<?xml version="1.0"?>
<molpro xmlns="http://www.molpro.net/schema/molpro-output"
  xmlns:xsd="http://www.w3.org/1999/XMLSchema"
  xmlns:cml="http://www.xml-cml.org/schema"
  xmlns:stm="http://www.xml-cml.org/schema"
  xmlns:xhtml="http://www.w3.org/1999/xhtml">
 <!--

 Nodes     nprocs
 nid01464    11
 Number of processes for MPI-2 version of Molpro:   nprocs(total)=   12   nprocs(compute)=   11   nprocs(helper)=    1

 Using customized tuning parameters: mindgm=7; mindgv=16; mindgc=1; mindgr=1; noblas=0; minvec=7
 default implementation of scratch files=sf

 --><job>
  <!--

 Variables initialized (889), CPU time= 0.02 sec
 Commands  initialized (702), CPU time= 0.01 sec, 572 directives.
 Default parameters read. Elapsed time= 0.14 sec

 Checking input...
 Passed
1


                                         ***  PROGRAM SYSTEM MOLPRO  ***
                                       Copyright, TTI GmbH Stuttgart, 2015
                                    Version 2015.1 linked Dec 29 2018 15:55:43


 **********************************************************************************************************************************
 LABEL *   Calculation for GdO, singlet and triplet
  64 bit mpp version                                                                     DATE: 22-Nov-22          TIME: 10:46:26
 **********************************************************************************************************************************

 SHA1:             19cd028119e0e09f93f0674bd8af7968d9b3eff6
 **********************************************************************************************************************************
  -->
  <!--

 THRESHOLDS:

 ZERO    =  1.00D-12  ONEINT  =  1.00D-12  TWOINT  =  1.00D-15  PREFAC  =  1.00D-14  LOCALI  =  1.00D-09  EORDER  =  1.00D-04
 ENERGY  =  0.00D+00  ETEST   =  0.00D+00  EDENS   =  0.00D+00  THRDEDEF=  1.00D-06  GRADIENT=  1.00D-02  STEP    =  1.00D-03
 ORBITAL =  1.00D-05  CIVEC   =  1.00D-05  COEFF   =  1.00D-04  PRINTCI =  5.00D-02  PUNCHCI =  9.90D+01  OPTGRAD =  3.00D-04
 OPTENERG=  1.00D-06  OPTSTEP =  3.00D-04  THRGRAD =  1.00D-10  COMPRESS=  1.00D-11  VARMIN  =  1.00D-07  VARMAX  =  1.00D-03
 THRDOUB =  0.00D+00  THRDIV  =  1.00D-05  THRRED  =  1.00D-07  THRPSP  =  1.00D+00  THRDC   =  1.00D-10  THRCS   =  1.00D-10
 THRNRM  =  1.00D-08  THREQ   =  0.00D+00  THRDE   =  1.00D+00  THRREF  =  1.00D-05  SPARFAC =  1.00D+00  THRDLP  =  1.00D-07
 THRDIA  =  1.00D-10  THRDLS  =  1.00D-07  THRGPS  =  0.00D+00  THRKEX  =  0.00D+00  THRDIS  =  2.00D-01  THRVAR  =  1.00D-10
 THRLOC  =  1.00D-06  THRGAP  =  1.00D-06  THRLOCT = -1.00D+00  THRGAPT = -1.00D+00  THRORB  =  1.00D-06  THRMLTP =  0.00D+00
 THRCPQCI=  1.00D-10  KEXTA   =  0.00D+00  THRCOARS=  0.00D+00  SYMTOL  =  1.00D-06  GRADTOL =  1.00D-06  THROVL  =  1.00D-08
 THRORTH =  1.00D-08  GRID    =  1.00D-06  GRIDMAX =  1.00D-03  DTMAX   =  0.00D+00  THROCCDE=  1.00D-01  THROCCDE=  1.00D-01



 THRESHOLDS:

 ZERO    =  1.00D-12  ONEINT  =  1.00D-12  TWOINT  =  1.00D-15  PREFAC  =  1.00D-14  LOCALI  =  1.00D-09  EORDER  =  1.00D-04
 ENERGY  =  0.00D+00  ETEST   =  0.00D+00  EDENS   =  0.00D+00  THRDEDEF=  1.00D-06  GRADIENT=  1.00D-02  STEP    =  1.00D-03
 ORBITAL =  1.00D-05  CIVEC   =  1.00D-05  COEFF   =  1.00D-04  PRINTCI =  5.00D-02  PUNCHCI =  9.90D+01  OPTGRAD =  3.00D-04
 OPTENERG=  1.00D-06  OPTSTEP =  3.00D-04  THRGRAD =  1.00D-10  COMPRESS=  1.00D-11  VARMIN  =  1.00D-07  VARMAX  =  1.00D-03
 THRDOUB =  0.00D+00  THRDIV  =  1.00D-05  THRRED  =  1.00D-07  THRPSP  =  1.00D+00  THRDC   =  1.00D-10  THRCS   =  1.00D-10
 THRNRM  =  1.00D-08  THREQ   =  0.00D+00  THRDE   =  1.00D+00  THRREF  =  1.00D-05  SPARFAC =  1.00D+00  THRDLP  =  1.00D-07
 THRDIA  =  1.00D-10  THRDLS  =  1.00D-07  THRGPS  =  0.00D+00  THRKEX  =  0.00D+00  THRDIS  =  2.00D-01  THRVAR  =  1.00D-10
 THRLOC  =  1.00D-06  THRGAP  =  1.00D-06  THRLOCT = -1.00D+00  THRGAPT = -1.00D+00  THRORB  =  1.00D-06  THRMLTP =  0.00D+00
 THRCPQCI=  1.00D-10  KEXTA   =  0.00D+00  THRCOARS=  0.00D+00  SYMTOL  =  1.00D-06  GRADTOL =  1.00D-06  THROVL  =  1.00D-15
 THRORTH =  1.00D-08  GRID    =  1.00D-06  GRIDMAX =  1.00D-03  DTMAX   =  0.00D+00  THROCCDE=  1.00D-01  THROCCDE=  1.00D-01



 Variable memory set to 1000000000 words,  buffer space   230000 words

 SETTING BASIS          =    USERDEF
 SETTING GD_CCSD        =      -109.29937150
 SETTING O_CCSD         =       -15.86622096
 SETTING NE             =        24.00000000
 SETTING SYMM           =         4.00000000
 SETTING SS             =         8.00000000
 SETTING A1             =         7.00000000
 SETTING B1             =         4.00000000
 SETTING B2             =         4.00000000
 SETTING A2             =         1.00000000

Geometry recognized as XYZ

  --><jobstep command="RHF-SCF" commandset="SCFPRO">
   <!--


 Recomputing integrals since basis changed


 Using spherical harmonics



 PROGRAM * SEWARD (Integral evaluation for generally contracted gaussian basis sets)     Author: Roland Lindh, 1990

 Geometry written to block  1 of record 700


 Point group  C2v


   --><cml:molecule>
    <cml:symmetry pointGroup="C2v"/>
    <cml:atomArray>
     <cml:atom id="a1" elementType="Gd" x3="0.0" y3="0.0" z3="0.0"/>
     <cml:atom id="a2" elementType="O" x3="0.0" y3="0.0" z3="1.2"/>
    </cml:atomArray>
    <cml:bondArray>
     <cml:bond atomRefs2="a1 a2"/>
    </cml:bondArray>
   </cml:molecule><!--

 ATOMIC COORDINATES

 NR  ATOM    CHARGE       X              Y              Z

   1  GD     18.00    0.000000000    0.000000000    0.000000000
   2  O       6.00    0.000000000    0.000000000    2.267671349

 Bond lengths in Bohr (Angstrom)

 1-2  2.267671349
     ( 1.200000000)

 NUCLEAR CHARGE:                   24
 NUMBER OF PRIMITIVE AOS:         673
 NUMBER OF SYMMETRY AOS:          515
 NUMBER OF CONTRACTIONS:          515   ( 203A1  + 123B1  + 123B2  +  66A2  )
 NUMBER OF CORE ORBITALS:           0   (   0A1  +   0B1  +   0B2  +   0A2  )
 NUMBER OF VALENCE ORBITALS:       21   (   9A1  +   5B1  +   5B2  +   2A2  )


 NUCLEAR REPULSION ENERGY   47.62594898

 EXTRA SYMMETRY OF AOS IN SYMMETRY 1:   1 1 1 1 1 1 1 1 1 1   1 1 1 1 1 1 1 1 1 1   1 1 1 1 1 1 1 1 1 1   1 1 1 1 1 1 1 1 1 1
                                        1 1 1 1 1 1 1 1 1 1   1 1 1 1 1 1 1 1 1 1   1 1 1 2 1 2 1 2 1 2   1 2 1 2 1 2 1 2 1 2
                                        1 2 1 2 1 2 1 2 1 2   1 2 1 2 1 2 1 2 1 2   1 2 1 2 1 2 1 2 1 2   1 2 1 2 1 2 1 2 1 2
                                        1 2 1 2 1 2 1 2 1 2   1 2 1 2 1 3 2 1 3 2   1 3 2 1 3 2 1 3 2 1   3 2 1 3 2 1 3 2 1 3
                                        2 2 3 1 2 3 1 2 3 1   1 1 1 1 1 1 1 1 1 1   1 1 1 1 1 1 1 1 1 1   1 1 2 1 2 1 2 1 2 1
                                        2 1 2
 EXTRA SYMMETRY OF AOS IN SYMMETRY 2:   1 1 1 1 1 1 1 1 1 1   1 1 1 1 1 1 1 1 1 1   1 1 1 1 1 1 1 1 1 1   1 1 1 1 1 1 1 1 1 1
                                        1 1 1 1 1 1 1 1 1 1   1 1 1 2 1 2 1 2 1 2   1 2 1 2 1 2 1 2 1 2   1 2 1 2 1 2 1 2 1 2
                                        1 2 1 2 1 2 1 2 1 2   1 2 1 2 1 2 1 2 1 2   3 1 2 3 1 2 3 1 1 1   1 1 1 1 1 1 1 1 1 1
                                        2 1 2
 EXTRA SYMMETRY OF AOS IN SYMMETRY 3:   1 1 1 1 1 1 1 1 1 1   1 1 1 1 1 1 1 1 1 1   1 1 1 1 1 1 1 1 1 1   1 1 1 1 1 1 1 1 1 1
                                        1 1 1 1 1 1 1 1 1 1   1 1 1 2 1 2 1 2 1 2   1 2 1 2 1 2 1 2 1 2   1 2 1 2 1 2 1 2 1 2
                                        1 2 1 2 1 2 1 2 1 2   1 2 1 2 1 2 1 2 1 2   3 1 2 3 1 2 3 1 1 1   1 1 1 1 1 1 1 1 1 1
                                        2 1 2
 EXTRA SYMMETRY OF AOS IN SYMMETRY 4:   1 1 1 1 1 1 1 1 1 1   1 1 1 1 1 1 1 1 1 1   1 1 1 1 1 1 1 1 1 1   1 1 1 1 1 1 1 2 1 2
                                        1 2 1 2 1 2 1 2 1 2   1 2 1 2 2 1 2 1 2 1   1 1 1 1 1 1

 Eigenvalues of metric

         1 0.103E-06 0.231E-06 0.570E-06 0.644E-06 0.726E-06 0.727E-06 0.102E-05 0.145E-05
         2 0.614E-06 0.720E-06 0.436E-05 0.136E-04 0.234E-04 0.300E-04 0.666E-04 0.102E-03
         3 0.614E-06 0.720E-06 0.436E-05 0.136E-04 0.234E-04 0.300E-04 0.666E-04 0.102E-03
         4 0.727E-06 0.238E-04 0.148E-03 0.539E-03 0.821E-03 0.924E-03 0.416E-02 0.869E-02


 Contracted 2-electron integrals neglected if value below      1.0D-15
 AO integral compression algorithm  1   Integral accuracy      1.0D-15

     8613.265 MB (compressed) written to integral file ( 46.4%)

     Node minimum: 553.124 MB, node maximum: 1026.294 MB


 NUMBER OF SORTED TWO-ELECTRON INTEGRALS:  203897834.     BUFFER LENGTH:  32768
 NUMBER OF SEGMENTS:   7  SEGMENT LENGTH:   31990770      RECORD LENGTH: 524288

 Memory used in sort:      32.55 MW

 SORT1 READ  2319806290. AND WROTE    92501277. INTEGRALS IN    267 RECORDS. CPU TIME:    45.15 SEC, REAL TIME:    65.21 SEC
 SORT2 READ  1025075428. AND WROTE  2243484243. INTEGRALS IN  30855 RECORDS. CPU TIME:     3.09 SEC, REAL TIME:     4.98 SEC

 Node minimum:   203897834.  Node maximum:   204073967. integrals

 OPERATOR DM      FOR CENTER  0  COORDINATES:    0.000000    0.000000    0.000000


 **********************************************************************************************************************************
 DATASETS  * FILE   NREC   LENGTH (MB)   RECORD NAMES
              1      19       23.11       500      610      700      900      950      970     1000      129      960     1100
                                          VAR    BASINP    GEOM    SYMINP    ZMAT    AOBASIS   BASIS     P2S    ABASIS      S
                                         1400     1410     1420     1200     1210     1080     1600     1650     1700
                                           T        V       ECP      H0       H01     AOSYM     SMH    MOLCAS    OPER

 PROGRAMS   *        TOTAL       INT
 CPU TIMES  *       161.74    161.25
 REAL TIME  *       186.20 SEC
 DISK USED  *        20.82 GB
 GA USED    *         0.00 MB       (max)       0.00 MB       (current)
 **********************************************************************************************************************************


 PROGRAM * RHF-SCF (OPEN SHELL)       Authors: W. Meyer, H.-J. Werner


 NUMBER OF ELECTRONS:      16+    8-    SPACE SYMMETRY=4    SPIN SYMMETRY: Nonet
 CONVERGENCE THRESHOLDS:    1.00E-05 (Density)    1.00E-07 (Energy)
 MAX. NUMBER OF ITERATIONS:      200
 INTERPOLATION TYPE:            DIIS
 INTERPOLATION STEPS:              2 (START)      1 (STEP)
 LEVEL SHIFTS:                 -0.60 (CLOSED) -0.30 (OPEN)

 Number of closed-shell orbitals:    8 (   4   2   2   0 )
 Number of open-shell orbitals:      8 (   3   2   2   1 )


 Guess basis ATOMIC-GUESS,GD=ECP46_GUESS,O=ECP2_GUESS not found. No density guess!


 Molecular orbital dump at record        2100.2

 ITERATION    DDIFF          GRAD             ENERGY        2-EL.EN.            DIPOLE MOMENTS         DIIS   ORB.
    1      0.000D+00      0.000D+00       -68.56213010    516.595124    0.00000    0.00000    5.71594    0    start
    2      0.000D+00      0.214D+00       -36.64314580     79.901036    0.00000    0.00000  -93.35810    0    diag,B
    3      0.480D+01      0.817D-01       -58.95125431    527.276891    0.00000    0.00000   12.82686    1    diag,B
    4      0.479D+01      0.221D+00       -74.67982231    495.431490    0.00000    0.00000   11.48434    2    diag,B
    5      0.155D+00      0.183D+00       -85.91605801    469.411715    0.00000    0.00000    9.86844    3    diag,B
    6      0.623D-01      0.159D+00       -90.09731512    459.430320    0.00000    0.00000    8.81846    4    diag,B
    7      0.313D-01      0.150D+00       -91.37722964    455.937548    0.00000    0.00000    8.53956    5    diag,B
    8      0.160D-01      0.147D+00       -91.53137964    455.691375    0.00000    0.00000    8.44425    6    diag,B
    9      0.425D-02      0.147D+00       -91.58204465    455.597996    0.00000    0.00000    8.41210    7    diag,B
   10      0.232D-02      0.147D+00       -91.67483418    455.359125    0.00000    0.00000    8.40435    8    orth
   11      0.217D-02      0.147D+00       -92.59426444    452.681245    0.00000    0.00000    8.29835    9    diag,B
   12      0.527D-02      0.145D+00       -92.77314419    452.077710    0.00000    0.00000    8.32935    9    diag,B
   13      0.439D-02      0.145D+00       -92.77784878    452.172222    0.00000    0.00000    8.28352    9    diag,B
   14      0.290D-02      0.145D+00       -96.22786112    442.289886    0.00000    0.00000    7.80988    9    diag,B
   15      0.176D-01      0.134D+00      -100.81425785    428.479252    0.00000    0.00000    6.90210    9    diag,B
   16      0.194D-01      0.119D+00      -102.15584825    424.214767    0.00000    0.00000    6.54502    9    diag,B
   17      0.917D-02      0.115D+00      -102.32767391    423.731295    0.00000    0.00000    6.48902    9    diag,B
   18      0.257D-02      0.114D+00      -102.66738669    422.658618    0.00000    0.00000    6.43051    9    diag,B
   19      0.225D-02      0.113D+00      -103.14070254    421.087326    0.00000    0.00000    6.36838    9    fixocc
   20      0.304D-02      0.111D+00      -103.10759141    421.324643    0.00000    0.00000    6.41697    9    orth
   21      0.836D-02      0.112D+00      -103.15867705    420.965136    0.00000    0.00000    6.44174    9    diag,B
   22      0.488D-02      0.112D+00      -103.57284807    419.559776    0.00000    0.00000    6.35275    9    diag,B
   23      0.279D-02      0.110D+00      -103.92370111    418.506558    0.00000    0.00000    6.18528    9    diag,B
   24      0.864D-02      0.110D+00      -104.09373100    417.896574    0.00000    0.00000    6.31928    9    diag,B
   25      0.992D-02      0.108D+00      -104.16249433    417.823434    0.00000    0.00000    6.22509    9    diag,B
   26      0.443D-02      0.108D+00      -103.14424723    421.379424    0.00000    0.00000    6.40825    9    diag,B
   27      0.640D-02      0.111D+00      -104.98552453    414.076954    0.00000    0.00000    6.35869    9    diag,B
   28      0.171D-01      0.106D+00      -103.89079774    418.215263    0.00000    0.00000    6.39754    9    diag,B
     Orbital  2.2 strongly deviates from fixed occupation: 1.70651  (now: 2.00)
     Orbital  3.2 strongly deviates from fixed occupation: 1.31815  (now: 1.00)
     Orbital  2.3 strongly deviates from fixed occupation: 1.70651  (now: 2.00)
     Orbital  3.3 strongly deviates from fixed occupation: 1.31815  (now: 1.00)
     Note:  Use {hf,nitord=N} to fix occupations at iteration N
            Use {gthresh,occdev=1.0} to suppress deviation warnings
   29      0.636D-02      0.109D+00      -107.44264049    405.209564    0.00000    0.00000    6.17824    9    diag,B
     Orbital  2.2 strongly deviates from fixed occupation: 1.84697  (now: 2.00)
     Orbital  3.2 strongly deviates from fixed occupation: 1.14096  (now: 1.00)
     Orbital  2.3 strongly deviates from fixed occupation: 1.84697  (now: 2.00)
     Orbital  3.3 strongly deviates from fixed occupation: 1.14096  (now: 1.00)
   30      0.829D-02      0.987D-01      -105.60627075    411.279376    0.00000    0.00000    6.68671    9    orth
   31      0.218D-01      0.105D+00      -107.24249618    406.140339    0.00000    0.00000    6.15120    9    diag,B
   32      0.116D-01      0.101D+00      -108.77205610    401.093416    0.00000    0.00000    5.70266    9    diag,B
   33      0.119D-01      0.944D-01      -111.95065021    386.412244    0.00000    0.00000    5.55711    9    diag,B
   34      0.794D-02      0.792D-01      -114.55039278    374.018932    0.00000    0.00000    4.80586    9    diag,B
     Orbital  2.2 strongly deviates from fixed occupation: 1.88997  (now: 2.00)
     Orbital  2.3 strongly deviates from fixed occupation: 1.88997  (now: 2.00)
   35      0.127D-01      0.657D-01      -118.50120449    350.490826    0.00000    0.00000    3.10228    9    diag,B
     Orbital  2.2 strongly deviates from fixed occupation: 1.75679  (now: 2.00)
     Orbital  3.2 strongly deviates from fixed occupation: 1.21219  (now: 1.00)
     Orbital  2.3 strongly deviates from fixed occupation: 1.75679  (now: 2.00)
     Orbital  3.3 strongly deviates from fixed occupation: 1.21219  (now: 1.00)
   36      0.466D-01      0.417D-01      -121.15471843    329.712134    0.00000    0.00000    2.04011    9    diag,B
     Orbital  3.1 strongly deviates from fixed occupation: 1.87099  (now: 2.00)
     Orbital  2.2 strongly deviates from fixed occupation: 1.81407  (now: 2.00)
     Orbital  4.2 strongly deviates from fixed occupation: 1.18860  (now: 1.00)
     Orbital  2.3 strongly deviates from fixed occupation: 1.81407  (now: 2.00)
     Orbital  4.3 strongly deviates from fixed occupation: 1.18860  (now: 1.00)
   37      0.939D-02      0.243D-01      -122.39446360    316.220013    0.00000    0.00000    1.75348    9    diag,B
     Orbital  3.1 strongly deviates from fixed occupation: 1.89808  (now: 2.00)
   38      0.490D-01      0.142D-01      -122.80047285    310.904524    0.00000    0.00000    1.00766    9    diag,B
     Orbital  3.1 strongly deviates from fixed occupation: 1.86640  (now: 2.00)
     Orbital  5.1 strongly deviates from fixed occupation: 1.10527  (now: 1.00)
   39      0.198D-01      0.821D-02      -123.09944361    300.463632    0.00000    0.00000    0.02739    9    diag,B
   40      0.132D-01      0.360D-02      -123.17901523    299.119916    0.00000    0.00000   -0.51431    9    orth
   41      0.659D-02      0.457D-02      -123.22884272    299.325843    0.00000    0.00000   -0.57387    9    diag,B
   42      0.413D-02      0.358D-02      -123.27746485    300.663906    0.00000    0.00000   -0.46031    9    diag,B
   43      0.678D-02      0.759D-03      -123.28002606    300.829307    0.00000    0.00000   -0.40079    9    diag,B
   44      0.581D-03      0.204D-03      -123.28062961    300.696227    0.00000    0.00000   -0.39739    9    diag,B
   45      0.473D-03      0.110D-03      -123.28102728    300.574775    0.00000    0.00000   -0.40309    9    diag,B
   46      0.155D-03      0.102D-03      -123.28134825    300.501006    0.00000    0.00000   -0.41060    9    diag,B
   47      0.150D-03      0.104D-03      -123.28145072    300.478173    0.00000    0.00000   -0.41153    9    diag,B
   48      0.355D-04      0.102D-03      -123.28117173    300.529736    0.00000    0.00000   -0.40457    9    diag,B
   49      0.132D-03      0.973D-04      -123.28042945    300.585368    0.00000    0.00000   -0.38319    9    diag,B
   50      0.407D-03      0.106D-03      -123.28068534    300.558842    0.00000    0.00000   -0.39019    9    orth
   51      0.122D-03      0.109D-03      -123.27979452    300.579929    0.00000    0.00000   -0.36802    9    diag,B
   52      0.408D-03      0.133D-03      -123.28628192    299.372474    0.00000    0.00000   -0.44589    9    diag,B
   53      0.200D-02      0.676D-03      -123.28250703    299.988937    0.00000    0.00000   -0.41851    9    diag,B
   54      0.895D-03      0.380D-03      -123.28052558    300.277032    0.00000    0.00000   -0.38246    9    diag,B
   55      0.818D-03      0.271D-03      -123.27894983    300.171103    0.00000    0.00000   -0.35109    9    diag,B
   56      0.732D-03      0.376D-03      -123.28310708    299.927175    0.00000    0.00000   -0.42490    9    diag,B
   57      0.182D-02      0.371D-03      -123.27993400    300.502160    0.00000    0.00000   -0.37142    9    diag,B
   58      0.137D-02      0.179D-03      -123.28015201    300.482511    0.00000    0.00000   -0.37542    9    diag,B
   59      0.101D-03      0.176D-03      -123.28012717    300.532397    0.00000    0.00000   -0.37282    9    diag,B
   60      0.143D-03      0.133D-03      -123.27974729    300.568892    0.00000    0.00000   -0.36714    9    orth
   61      0.187D-03      0.134D-03      -123.28508221    299.589617    0.00000    0.00000   -0.43819    9    diag,B
   62      0.185D-02      0.582D-03      -123.28040607    300.362734    0.00000    0.00000   -0.38075    9    diag,B
   63      0.161D-02      0.235D-03      -123.27948237    300.261359    0.00000    0.00000   -0.36147    9    diag,B
   64      0.450D-03      0.319D-03      -123.28300779    299.933553    0.00000    0.00000   -0.42388    9    diag,B
   65      0.166D-02      0.386D-03      -123.27820758    300.158254    0.00000    0.00000   -0.34363    9    diag,B
   66      0.214D-02      0.431D-03      -123.28128666    300.375025    0.00000    0.00000   -0.39911    9    diag,B
   67      0.142D-02      0.193D-03      -123.28245672    300.155507    0.00000    0.00000   -0.41682    9    diag,B
   68      0.495D-03      0.291D-03      -123.27984509    300.279769    0.00000    0.00000   -0.36763    9    diag,B
   69      0.123D-02      0.295D-03      -123.27671394    299.783384    0.00000    0.00000   -0.33364    9    diag,B
   70      0.110D-02      0.664D-03      -123.28050028    300.314073    0.00000    0.00000   -0.37842    9    orth
   71      0.153D-02      0.205D-03      -123.28127158    300.292662    0.00000    0.00000   -0.39196    9    diag,B
   72      0.395D-03      0.214D-03      -123.27893854    300.232521    0.00000    0.00000   -0.35131    9    diag,B
   73      0.119D-02      0.309D-03      -123.28146129    300.425312    0.00000    0.00000   -0.40104    9    diag,B
   74      0.125D-02      0.175D-03      -123.28058029    300.541372    0.00000    0.00000   -0.38841    9    diag,B
   75      0.545D-03      0.129D-03      -123.27831903    300.278001    0.00000    0.00000   -0.34653    9    diag,B
   76      0.101D-02      0.329D-03      -123.28220495    300.192916    0.00000    0.00000   -0.41368    9    diag,B
   77      0.179D-02      0.277D-03      -123.28012019    300.428641    0.00000    0.00000   -0.37439    9    diag,B
   78      0.102D-02      0.197D-03      -123.27586474    299.608142    0.00000    0.00000   -0.32747    9    diag,B
   79      0.137D-02      0.795D-03      -123.28081734    300.326790    0.00000    0.00000   -0.38669    9    diag,B
   80      0.182D-02      0.207D-03      -123.28131576    300.317983    0.00000    0.00000   -0.39507    9    orth
   81      0.285D-03      0.204D-03      -123.27677431    299.810057    0.00000    0.00000   -0.33214    9    diag,B
   82      0.184D-02      0.629D-03      -123.28207637    300.221386    0.00000    0.00000   -0.40859    9    diag,B
   83      0.216D-02      0.255D-03      -123.28124549    300.415524    0.00000    0.00000   -0.39954    9    diag,B
   84      0.451D-03      0.168D-03      -123.27926925    300.455696    0.00000    0.00000   -0.36261    9    diag,B
   85      0.106D-02      0.213D-03      -123.28266981    300.127949    0.00000    0.00000   -0.41440    9    diag,B
   86      0.170D-02      0.313D-03      -123.28045048    300.392559    0.00000    0.00000   -0.38186    9    diag,B
   87      0.109D-02      0.208D-03      -123.27867085    300.122517    0.00000    0.00000   -0.35408    9    diag,B
   88      0.845D-03      0.407D-03      -123.28166167    300.241800    0.00000    0.00000   -0.40049    9    diag,B
   89      0.155D-02      0.250D-03      -123.28106806    300.503605    0.00000    0.00000   -0.39486    9    diag,B
   90      0.349D-03      0.141D-03      -123.27921440    300.485087    0.00000    0.00000   -0.35981    9    orth
   91      0.981D-03      0.184D-03      -123.28092462    300.430077    0.00000    0.00000   -0.39311    9    diag,B
   92      0.843D-03      0.163D-03      -123.28366978    299.857840    0.00000    0.00000   -0.42396    9    diag,B
   93      0.108D-02      0.447D-03      -123.28012674    300.364692    0.00000    0.00000   -0.37632    9    diag,B
   94      0.155D-02      0.234D-03      -123.27946123    300.344940    0.00000    0.00000   -0.36348    9    diag,B
   95      0.327D-03      0.276D-03      -123.28170245    300.200178    0.00000    0.00000   -0.40540    9    diag,B
   96      0.120D-02      0.235D-03      -123.28097338    300.531800    0.00000    0.00000   -0.39208    9    diag,B
   97      0.353D-03      0.124D-03      -123.28001862    300.592779    0.00000    0.00000   -0.37447    9    diag,B
   98      0.524D-03      0.113D-03      -123.28054697    300.543418    0.00000    0.00000   -0.38855    9    diag,B
   99      0.228D-03      0.122D-03      -123.28038427    300.581419    0.00000    0.00000   -0.38335    9    diag,B
  100      0.748D-04      0.112D-03      -123.28029057    300.583019    0.00000    0.00000   -0.38191    9    orth
  101      0.766D-04      0.111D-03      -123.28002608    300.600244    0.00000    0.00000   -0.37429    9    diag,B
  102      0.101D-03      0.112D-03      -123.28409149    299.820283    0.00000    0.00000   -0.43548    9    diag,B
  103      0.146D-02      0.448D-03      -123.28061708    300.315033    0.00000    0.00000   -0.38304    9    diag,B
  104      0.121D-02      0.251D-03      -123.27888675    300.068083    0.00000    0.00000   -0.34753    9    diag,B
  105      0.723D-03      0.438D-03      -123.28312668    299.895567    0.00000    0.00000   -0.42197    9    diag,B
  106      0.184D-02      0.391D-03      -123.27897591    300.340564    0.00000    0.00000   -0.35437    9    diag,B
  107      0.195D-02      0.304D-03      -123.28134070    300.365511    0.00000    0.00000   -0.39946    9    diag,B
  108      0.118D-02      0.201D-03      -123.28171935    300.320124    0.00000    0.00000   -0.40591    9    diag,B
  109      0.170D-03      0.211D-03      -123.27926179    300.255548    0.00000    0.00000   -0.35798    9    diag,B
  110      0.116D-02      0.330D-03      -123.27919632    300.444396    0.00000    0.00000   -0.35865    9    orth
  111      0.248D-03      0.223D-03      -123.28159696    300.361451    0.00000    0.00000   -0.40049    9    diag,B
  112      0.123D-02      0.196D-03      -123.28145948    300.354932    0.00000    0.00000   -0.40185    9    diag,B
  113      0.159D-03      0.198D-03      -123.27878987    300.419377    0.00000    0.00000   -0.35195    9    diag,B
  114      0.128D-02      0.253D-03      -123.28282618    300.027249    0.00000    0.00000   -0.41719    9    diag,B
  115      0.181D-02      0.350D-03      -123.28137070    300.288167    0.00000    0.00000   -0.39960    9    diag,B
  116      0.587D-03      0.234D-03      -123.28039975    300.264358    0.00000    0.00000   -0.37897    9    diag,B
  117      0.531D-03      0.268D-03      -123.27941761    300.490877    0.00000    0.00000   -0.36116    9    diag,B
  118      0.487D-03      0.179D-03      -123.28305739    299.825396    0.00000    0.00000   -0.41882    9    diag,B
  119      0.169D-02      0.418D-03      -123.28064656    300.502394    0.00000    0.00000   -0.38600    9    diag,B
  120      0.106D-02      0.157D-03      -123.27975211    300.520293    0.00000    0.00000   -0.36865    9    orth
  121      0.469D-03      0.178D-03      -123.28284100    300.081884    0.00000    0.00000   -0.41954    9    diag,B
  122      0.134D-02      0.310D-03      -123.28127126    300.295507    0.00000    0.00000   -0.39831    9    diag,B
  123      0.632D-03      0.231D-03      -123.27998470    300.288056    0.00000    0.00000   -0.37282    9    diag,B
  124      0.650D-03      0.268D-03      -123.27973699    300.562170    0.00000    0.00000   -0.36842    9    diag,B
  125      0.188D-03      0.136D-03      -123.28320212    299.837816    0.00000    0.00000   -0.42208    9    diag,B
  126      0.148D-02      0.426D-03      -123.28093754    300.443221    0.00000    0.00000   -0.39144    9    diag,B
  127      0.901D-03      0.179D-03      -123.27989872    300.510531    0.00000    0.00000   -0.37059    9    diag,B
  128      0.546D-03      0.174D-03      -123.28007815    300.583483    0.00000    0.00000   -0.37435    9    diag,B
  129      0.168D-03      0.118D-03      -123.28139260    300.452393    0.00000    0.00000   -0.40056    9    diag,B
  130      0.673D-03      0.152D-03      -123.27907451    300.414941    0.00000    0.00000   -0.35370    9    orth
  131      0.117D-02      0.244D-03      -123.28018182    300.431819    0.00000    0.00000   -0.37623    9    diag,B
  132      0.565D-03      0.190D-03      -123.28092916    300.353841    0.00000    0.00000   -0.38582    9    diag,B
  133      0.448D-03      0.205D-03      -123.27962866    300.494829    0.00000    0.00000   -0.36385    9    diag,B
  134      0.633D-03      0.169D-03      -123.28245494    300.198593    0.00000    0.00000   -0.41524    9    diag,B
  135      0.123D-02      0.274D-03      -123.27711184    299.863133    0.00000    0.00000   -0.32987    9    diag,B
  136      0.218D-02      0.620D-03      -123.28006676    300.402527    0.00000    0.00000   -0.37304    9    diag,B
  137      0.108D-02      0.210D-03      -123.28096285    300.284877    0.00000    0.00000   -0.39096    9    diag,B
  138      0.547D-03      0.220D-03      -123.28106887    300.462230    0.00000    0.00000   -0.39279    9    diag,B
  139      0.168D-03      0.135D-03      -123.27917234    300.356056    0.00000    0.00000   -0.35364    9    diag,B
  140      0.955D-03      0.250D-03      -123.28192051    300.332310    0.00000    0.00000   -0.40742    9    orth
  141      0.127D-02      0.207D-03      -123.27940511    300.427784    0.00000    0.00000   -0.35952    9    diag,B
  142      0.126D-02      0.234D-03      -123.27967965    300.404724    0.00000    0.00000   -0.36489    9    diag,B
  143      0.164D-03      0.227D-03      -123.28103386    300.500355    0.00000    0.00000   -0.39428    9    diag,B
  144      0.743D-03      0.133D-03      -123.28035694    300.604594    0.00000    0.00000   -0.38080    9    diag,B
  145      0.330D-03      0.105D-03      -123.27994478    300.597441    0.00000    0.00000   -0.37221    9    diag,B
  146      0.219D-03      0.116D-03      -123.28281654    300.116758    0.00000    0.00000   -0.42058    9    diag,B
  147      0.118D-02      0.304D-03      -123.28092336    300.318611    0.00000    0.00000   -0.39186    9    diag,B
  148      0.780D-03      0.234D-03      -123.27908115    300.223755    0.00000    0.00000   -0.34676    9    diag,B
     Orbital  4.1 strongly deviates from fixed occupation: 1.89704  (now: 2.00)
  149      0.923D-03      0.353D-03      -123.28524884    299.479448    0.00000    0.00000   -0.43724    9    diag,B
  150      0.239D-02      0.599D-03      -123.28010553    300.414096    0.00000    0.00000   -0.37502    9    orth
  151      0.191D-02      0.219D-03      -123.27947097    300.337308    0.00000    0.00000   -0.35991    9    diag,B
  152      0.329D-03      0.288D-03      -123.28156941    300.314441    0.00000    0.00000   -0.40345    9    diag,B
  153      0.109D-02      0.215D-03      -123.28091702    300.524822    0.00000    0.00000   -0.39389    9    diag,B
  154      0.328D-03      0.127D-03      -123.27948889    300.556704    0.00000    0.00000   -0.36219    9    diag,B
  155      0.701D-03      0.149D-03      -123.28226406    300.181725    0.00000    0.00000   -0.41371    9    diag,B
  156      0.124D-02      0.277D-03      -123.28129352    300.321712    0.00000    0.00000   -0.39949    9    diag,B
  157      0.408D-03      0.226D-03      -123.27944810    300.371513    0.00000    0.00000   -0.35191    9    diag,B
  158      0.967D-03      0.264D-03      -123.28098645    300.518817    0.00000    0.00000   -0.39346    9    diag,B
  159      0.864D-03      0.127D-03      -123.28059843    300.536667    0.00000    0.00000   -0.38744    9    diag,B
  160      0.215D-03      0.128D-03      -123.28030583    300.538573    0.00000    0.00000   -0.38075    9    orth
  161      0.212D-03      0.127D-03      -123.28031937    300.549459    0.00000    0.00000   -0.38226    9    diag,B
  162      0.455D-04      0.120D-03      -123.27964573    300.554023    0.00000    0.00000   -0.36789    9    diag,B
  163      0.323D-03      0.141D-03      -123.28295626    299.921757    0.00000    0.00000   -0.42173    9    diag,B
  164      0.143D-02      0.396D-03      -123.27961733    300.399385    0.00000    0.00000   -0.36463    9    diag,B
  165      0.147D-02      0.240D-03      -123.27952345    300.398907    0.00000    0.00000   -0.36406    9    diag,B
  166      0.619D-04      0.246D-03      -123.28182410    300.309434    0.00000    0.00000   -0.39964    9    diag,B
  167      0.124D-02      0.203D-03      -123.28019326    300.558531    0.00000    0.00000   -0.38093    9    diag,B
  168      0.937D-03      0.137D-03      -123.27848393    300.334571    0.00000    0.00000   -0.35308    9    diag,B
  169      0.741D-03      0.324D-03      -123.28218840    300.164532    0.00000    0.00000   -0.41083    9    diag,B
  170      0.174D-02      0.282D-03      -123.28202094    300.216120    0.00000    0.00000   -0.40634    9    orth
  171      0.135D-03      0.254D-03      -123.27832147    300.255466    0.00000    0.00000   -0.35085    9    diag,B
  172      0.179D-02      0.370D-03      -123.28160154    300.312299    0.00000    0.00000   -0.40273    9    diag,B
  173      0.160D-02      0.214D-03      -123.28290954    300.029351    0.00000    0.00000   -0.41719    9    diag,B
  174      0.526D-03      0.346D-03      -123.28012408    300.294893    0.00000    0.00000   -0.37472    9    diag,B
  175      0.138D-02      0.277D-03      -123.27749568    299.943356    0.00000    0.00000   -0.34485    9    diag,B
  176      0.101D-02      0.564D-03      -123.28145686    300.195443    0.00000    0.00000   -0.39605    9    diag,B
  177      0.183D-02      0.246D-03      -123.28247959    300.102641    0.00000    0.00000   -0.40873    9    diag,B
  178      0.478D-03      0.296D-03      -123.27853993    300.059056    0.00000    0.00000   -0.35259    9    diag,B
  179      0.193D-02      0.440D-03      -123.28028561    300.561237    0.00000    0.00000   -0.38067    9    diag,B
  180      0.835D-03      0.130D-03      -123.28094727    300.532833    0.00000    0.00000   -0.39249    9    orth
  181      0.410D-03      0.126D-03      -123.27864780    300.391143    0.00000    0.00000   -0.35224    9    diag,B
  182      0.118D-02      0.262D-03      -123.28170742    300.277916    0.00000    0.00000   -0.40244    9    diag,B
  183      0.151D-02      0.232D-03      -123.28220400    300.172318    0.00000    0.00000   -0.40921    9    diag,B
  184      0.222D-03      0.286D-03      -123.27844454    300.139769    0.00000    0.00000   -0.35120    9    diag,B
  185      0.184D-02      0.420D-03      -123.27980403    300.466359    0.00000    0.00000   -0.37059    9    diag,B
  186      0.632D-03      0.193D-03      -123.28141709    300.417988    0.00000    0.00000   -0.40036    9    diag,B
  187      0.901D-03      0.170D-03      -123.27844333    300.349146    0.00000    0.00000   -0.34898    9    diag,B
  188      0.144D-02      0.297D-03      -123.28158099    300.292238    0.00000    0.00000   -0.40360    9    diag,B
  189      0.149D-02      0.225D-03      -123.28355909    299.873953    0.00000    0.00000   -0.42445    9    diag,B
  190      0.727D-03      0.428D-03      -123.28016554    300.303499    0.00000    0.00000   -0.37194    9    orth
  191      0.156D-02      0.267D-03      -123.27872994    300.207193    0.00000    0.00000   -0.35182    9    diag,B
  192      0.626D-03      0.381D-03      -123.28229619    300.041304    0.00000    0.00000   -0.40806    9    diag,B
  193      0.178D-02      0.316D-03      -123.28264026    300.162234    0.00000    0.00000   -0.41618    9    diag,B
  194      0.245D-03      0.279D-03      -123.27817044    300.133065    0.00000    0.00000   -0.34581    9    diag,B
  195      0.208D-02      0.435D-03      -123.27965526    300.407549    0.00000    0.00000   -0.36814    9    diag,B
  196      0.610D-03      0.229D-03      -123.28064223    300.382482    0.00000    0.00000   -0.38690    9    diag,B
  197      0.528D-03      0.191D-03      -123.28086022    300.537727    0.00000    0.00000   -0.38870    9    diag,B
  198      0.235D-03      0.121D-03      -123.27667118    299.848354    0.00000    0.00000   -0.33762    9    diag,B
  199      0.165D-02      0.621D-03      -123.28208647    300.247521    0.00000    0.00000   -0.40764    9    orth
  200      0.204D-02      0.303D-03      -123.29821401    300.459980    0.00000    0.00000   -0.40793    0    orth

 Final alpha occupancy:   7   4   4   1
 Final beta  occupancy:   4   2   2   0

 !RHF STATE 1.4 Energy               -123.298214014687
   --><property name="Energy" method="RHF" principal="true" stateSymmetry="4" stateNumber="1"
     value="-123.298214014687"/><!--
 Nuclear energy                        47.62594898
 One-electron energy                 -321.15415314
 Two-electron energy                  150.22999014
 Virial quotient                       -0.78542436
 !RHF STATE 1.4 Dipole moment           0.00000000     0.00000000    -0.40793114
 Dipole moment /Debye                   0.00000000     0.00000000    -1.03678963
   --><property name="Dipole moment" method="RHF" principal="true" stateSymmetry="4"
     stateNumber="1" value="0.0 0.0 -0.407931139494632"/><!--

 ELECTRON ORBITALS
 =================


   Orb  Occ    Energy  Couls-En    Coefficients

                                   1 1s      1 1s      1 1s      1 1s      1 1s      1 1s      1 1s      1 1s      1 1s      1 1s
                                   1 1s      1 1s      1 1s      1 1s      1 1s      1 1s      1 1s      1 1s      1 1s      1 1s
                                   1 1s      1 1s      1 1s      1 1s      1 1s      1 1s      1 1s      1 1s      1 1s      1 1s
                                   1 1s      1 1s      1 2pz     1 2pz     1 2pz     1 2pz     1 2pz     1 2pz     1 2pz     1 2pz
                                   1 2pz     1 2pz     1 2pz     1 2pz     1 2pz     1 2pz     1 2pz     1 2pz     1 2pz     1 2pz
                                   1 2pz     1 2pz     1 2pz     1 2pz     1 2pz     1 2pz     1 2pz     1 2pz     1 2pz     1 2pz
                                   1 2pz     1 2pz     1 3d0     1 3d2+    1 3d0     1 3d2+    1 3d0     1 3d2+    1 3d0     1 3d2+
                                   1 3d0     1 3d2+    1 3d0     1 3d2+    1 3d0     1 3d2+    1 3d0     1 3d2+    1 3d0     1 3d2+
                                   1 3d0     1 3d2+    1 3d0     1 3d2+    1 3d0     1 3d2+    1 3d0     1 3d2+    1 3d0     1 3d2+
                                   1 3d0     1 3d2+    1 3d0     1 3d2+    1 3d0     1 3d2+    1 3d0     1 3d2+    1 3d0     1 3d2+
                                   1 3d0     1 3d2+    1 3d0     1 3d2+    1 3d0     1 3d2+    1 4f0     1 4f2+    1 4f0     1 4f2+
                                   1 4f0     1 4f2+    1 4f0     1 4f2+    1 4f0     1 4f2+    1 4f0     1 4f2+    1 4f0     1 4f2+
                                   1 4f0     1 4f2+    1 4f0     1 4f2+    1 4f0     1 4f2+    1 4f0     1 4f2+    1 4f0     1 4f2+
                                   1 4f0     1 4f2+    1 4f0     1 4f2+    1 5g0     1 5g4+    1 5g2+    1 5g0     1 5g4+    1 5g2+
                                   1 5g0     1 5g4+    1 5g2+    1 5g0     1 5g4+    1 5g2+    1 5g0     1 5g4+    1 5g2+    1 5g0
                                   1 5g4+    1 5g2+    1 5g0     1 5g4+    1 5g2+    1 5g0     1 5g4+    1 5g2+    1 5g0     1 5g4+
                                   1 5g2+    1 6h2+    1 6h4+    1 6h0     1 6h2+    1 6h4+    1 6h0     1 6h2+    1 6h4+    1 6h0
                                   2 1s      2 1s      2 1s      2 1s      2 1s      2 1s      2 1s      2 1s      2 1s      2 1s
                                   2 1s      2 1s      2 1s      2 2pz     2 2pz     2 2pz     2 2pz     2 2pz     2 2pz     2 2pz
                                   2 2pz     2 3d0     2 3d2+    2 3d0     2 3d2+    2 3d0     2 3d2+    2 3d0     2 3d2+    2 4f0
                                   2 4f2+    2 4f0     2 4f2+

   1.1   2    -2.3020  -17.7301 -0.000000  0.000001 -0.000003  0.000061  0.000269  0.000833  0.001754  0.003863 -0.001492  0.004776
                                -0.089503  0.398240 -0.071393 -0.104079 -0.197816  0.375644  0.469531  0.267649  0.089746 -0.000107
                                -0.000483 -0.001422 -0.004004  0.139800 -0.783185  0.868883 -0.290234 -0.344304 -0.137122 -0.003830
                                 0.001329 -0.000285  0.000000 -0.000000  0.000000 -0.000001  0.000002 -0.000002  0.000004 -0.000013
                                 0.000052 -0.000481 -0.005315 -0.007262  0.003412 -0.076987  0.188443  0.121196 -0.064524  0.107594
                                 0.021591  0.001950  0.007675  0.012855 -0.009065  0.043044 -0.138364  0.002424 -0.000791 -0.003904
                                -0.000778  0.000150  0.000000  0.000000 -0.000001 -0.000000  0.000004  0.000000 -0.000020 -0.000000
                                 0.000380  0.000003  0.003381  0.000039 -0.000861 -0.000108 -0.006522 -0.000071  0.082135  0.000144
                                 0.046166  0.000035 -0.000908 -0.000009 -0.006159 -0.000082  0.006005  0.000146 -0.033404  0.000134
                                -0.042556  0.000206 -0.012138 -0.000002  0.031612  0.000011  0.013924 -0.000002 -0.001908  0.000002
                                 0.000219 -0.000001 -0.000051  0.000000  0.000011 -0.000000  0.000003  0.000000 -0.000027 -0.000000
                                 0.000466  0.000003  0.009800  0.000062  0.023251  0.000131  0.032256  0.000174  0.009068  0.000110
                                -0.001368 -0.000009 -0.012555 -0.000062  0.013996 -0.000040  0.004006  0.000032  0.007260 -0.000020
                                -0.001245  0.000012  0.000345 -0.000004  0.000168  0.000005 -0.000000 -0.000247  0.000032 -0.000002
                                 0.001128 -0.000102  0.000002  0.007685 -0.000227  0.000038 -0.000234  0.000171  0.000015  0.006084
                                 0.000545 -0.000010 -0.000324  0.000276  0.000003  0.002115  0.000073 -0.000001  0.000108  0.000009
                                 0.000000  0.000002  0.000020 -0.000064  0.000012  0.000057  0.000572  0.000034  0.000147  0.002988
                                -0.000000  0.000002 -0.000014  0.000087 -0.000753  0.027974 -0.049826  0.096260  0.230432  0.109207
                                -0.157354 -0.031629 -0.044986 -0.003052 -0.023685 -0.089850 -0.138534 -0.074994  0.004814 -0.004308
                                 0.000784  0.014642  0.000012  0.046965  0.000047  0.020769  0.000004  0.001139  0.000000 -0.005224
                                -0.000020 -0.011554 -0.000007

   2.1   2    -1.5634  -15.0319  0.000000 -0.000001  0.000003 -0.000051 -0.000225 -0.000698 -0.001472 -0.003251  0.001265 -0.004146
                                 0.075771 -0.286567  0.093754 -0.189106 -1.087183 -0.309719 -0.104591 -0.126702 -0.065363  0.000090
                                 0.000405  0.001193  0.003366 -0.119822  0.591918  0.625796 -0.100137  0.347265  0.092892  0.003440
                                -0.001269  0.000281  0.000000 -0.000000  0.000000 -0.000001  0.000002 -0.000002  0.000005 -0.000015
                                 0.000063 -0.000590 -0.006662 -0.009243  0.046036 -0.093588  0.175971  0.205540 -0.064405  0.106803
                                 0.020580  0.002415  0.009727 -0.002943 -0.084037  0.107083  0.065308  0.001945 -0.002970 -0.002549
                                -0.000668  0.000133 -0.000000 -0.000000  0.000001  0.000000 -0.000003 -0.000000  0.000016  0.000000
                                -0.000308 -0.000003 -0.003059 -0.000036  0.014494  0.000099 -0.016080  0.000045  0.049816 -0.000088
                                 0.060335  0.000056  0.000744  0.000008  0.006300  0.000074 -0.013827 -0.000128 -0.013045 -0.000091
                                 0.006597 -0.000085 -0.020045  0.000065  0.037049  0.000049  0.013369  0.000048 -0.001368  0.000030
                                 0.000073  0.000014  0.000023 -0.000003 -0.000011  0.000001  0.000004  0.000000 -0.000031 -0.000001
                                 0.000500  0.000016  0.009505  0.000270  0.020244  0.000448  0.028811  0.000502  0.013118  0.000346
                                -0.000175  0.000032 -0.008412 -0.000051  0.008919 -0.000018  0.001456  0.000097  0.007666 -0.000044
                                -0.001665  0.000032  0.000457 -0.000011  0.000188 -0.000001  0.000005 -0.000133 -0.000019  0.000011
                                 0.001024  0.000122  0.000027  0.005524  0.000318  0.000069  0.000435  0.000096  0.000065  0.004162
                                -0.000402  0.000008 -0.000906 -0.000363  0.000002  0.001753 -0.000148 -0.000001  0.000171 -0.000040
                                 0.000000  0.000002  0.000021 -0.000069  0.000010  0.000055  0.000461  0.000040 -0.000080  0.002084
                                -0.000000  0.000002 -0.000017  0.000103 -0.000889  0.033160 -0.058267  0.111220  0.303886  0.229275
                                -0.155530 -0.036303 -0.053971 -0.001867 -0.014557 -0.055039 -0.093454 -0.079711  0.005871 -0.002560
                                 0.000480  0.007661  0.000020  0.030208  0.000068  0.018327  0.000022  0.000477  0.000001 -0.003133
                                -0.000020 -0.008071 -0.000009

   3.1   2    -0.8933  -12.0208  0.000000 -0.000000  0.000000 -0.000002 -0.000009 -0.000029 -0.000060 -0.000129  0.000044 -0.000084
                                 0.005230 -0.062571 -0.044406  0.224167  0.945056 -0.087874 -0.199433 -0.105973 -0.059730  0.000004
                                 0.000017  0.000049  0.000135 -0.008457  0.121233 -1.095734 -0.005176 -0.278758  0.098809  0.001902
                                -0.000584  0.000117 -0.000000  0.000000 -0.000000  0.000001 -0.000002  0.000002 -0.000005  0.000014
                                -0.000058  0.000539  0.005984  0.008138 -0.036559  0.070179 -0.274887 -0.289639 -0.100362 -0.225090
                                -0.074961 -0.002190 -0.008657  0.000623  0.076392 -0.070272  0.116719  0.008729  0.062101 -0.030973
                                -0.001853  0.000286 -0.000001 -0.000000  0.000004  0.000000 -0.000016 -0.000000  0.000088  0.000000
                                -0.001639 -0.000000 -0.015018 -0.000001  0.027024  0.000005 -0.004650  0.000018 -0.094960 -0.000042
                                -0.060013 -0.000041  0.003927  0.000000  0.028503  0.000004 -0.040750 -0.000010  0.041862 -0.000027
                                 0.080029 -0.000063 -0.064393 -0.000022 -0.054770 -0.000048 -0.027485 -0.000021  0.013281 -0.000026
                                -0.002904 -0.000008  0.001050  0.000001 -0.000284 -0.000000 -0.000004  0.000000  0.000035 -0.000000
                                -0.000553 -0.000000 -0.010027 -0.000019 -0.020277 -0.000069 -0.028972 -0.000128  0.004123 -0.000105
                                -0.000227  0.000019  0.008058  0.000067 -0.028421  0.000028 -0.030651 -0.000035  0.000109  0.000013
                                 0.001135 -0.000010  0.000013  0.000003 -0.000206 -0.000000 -0.000002  0.000357 -0.000002 -0.000003
                                -0.001545  0.000008 -0.000012 -0.006211  0.000032 -0.000037  0.001953  0.000011 -0.000021 -0.005212
                                -0.000012 -0.000004 -0.005189  0.000197 -0.000002 -0.004050  0.000204 -0.000004  0.001889  0.000068
                                 0.000001 -0.000002 -0.000021  0.000098 -0.000010 -0.000054 -0.000683 -0.000023  0.000066 -0.002684
                                -0.000000  0.000003 -0.000019  0.000118 -0.000967  0.033911 -0.054450  0.104255  0.360400  0.627894
                                 0.519459 -0.035089 -0.055924  0.007298  0.061275  0.213675  0.319150  0.134376 -0.072611  0.006071
                                -0.001902 -0.016496 -0.000008 -0.055126  0.000019 -0.029973  0.000012 -0.001430 -0.000000  0.005888
                                 0.000006  0.014751 -0.000012

   4.1   2    -0.2925  -15.2840 -0.000000  0.000000 -0.000000  0.000003  0.000011  0.000034  0.000072  0.000159 -0.000062  0.000195
                                -0.004224  0.020855 -0.004700  0.094890  0.674057 -0.070071 -0.071783 -0.068245 -0.027476 -0.000004
                                -0.000020 -0.000058 -0.000165  0.006934 -0.045032 -0.622762  0.095879 -0.203268  0.044497  0.001021
                                -0.000326  0.000068 -0.000000  0.000000 -0.000000  0.000000 -0.000000  0.000000 -0.000001  0.000003
                                -0.000012  0.000107  0.001146  0.001657  0.031795  0.027426 -0.032782 -0.048988  0.088567 -0.128957
                                -0.081202 -0.000427 -0.001646 -0.018501 -0.054597 -0.003435  0.193938  0.011048  0.058968 -0.033986
                                -0.002687  0.000457  0.000000 -0.000000 -0.000001  0.000001  0.000006 -0.000005 -0.000030  0.000024
                                 0.000558 -0.000455  0.005164 -0.004194 -0.013437  0.014429  0.009471 -0.018184 -0.036321  0.009331
                                -0.069925  0.106026 -0.001334  0.001083 -0.009878  0.007979  0.016155 -0.014598  0.003252  0.008144
                                 0.027978  0.074874  0.011543  0.065632 -0.043810  0.060299 -0.025344  0.048824  0.006569  0.033147
                                -0.001097  0.013889  0.000342 -0.002344 -0.000084  0.000581 -0.000031  0.000123  0.000248 -0.000991
                                -0.003539  0.014332 -0.054452  0.224692 -0.079918  0.339791 -0.085290  0.347253 -0.041828  0.222000
                                -0.013393  0.045431 -0.006474  0.010476 -0.017615  0.015428 -0.008094  0.073083 -0.009566 -0.029413
                                 0.001808  0.023346 -0.000405 -0.008218 -0.000176 -0.000005  0.000192  0.000298 -0.000010  0.000533
                                -0.001506 -0.000070  0.001228 -0.001605 -0.000098  0.005633  0.001032  0.000041  0.006571 -0.006618
                                 0.000214  0.003245  0.003015  0.000230 -0.002219 -0.004059  0.000097  0.001373  0.000520  0.000012
                                -0.000575  0.000162 -0.000043  0.000011  0.000442 -0.000145 -0.000458  0.004273 -0.000107 -0.000737
                                 0.000000 -0.000000  0.000002 -0.000011  0.000096 -0.003801  0.006794 -0.013096 -0.031784 -0.004131
                                 0.303634  0.004897  0.006280  0.001000  0.008131  0.030574  0.060614  0.033801 -0.023720  0.001026
                                -0.000260 -0.005288  0.009776 -0.027376  0.021593 -0.010743  0.011155 -0.000277  0.000613  0.003045
                                -0.006767  0.008889  0.002179

   5.1   +    -0.6209  -15.2207 -0.000000  0.000000 -0.000001  0.000009  0.000040  0.000125  0.000264  0.000583 -0.000226  0.000722
                                -0.015226  0.071866 -0.018602  0.331054  2.332034 -0.232036 -0.256775 -0.238042 -0.095952 -0.000016
                                -0.000072 -0.000214 -0.000604  0.024895 -0.155606 -2.157051  0.336649 -0.698274  0.154350  0.003308
                                -0.001073  0.000223 -0.000000  0.000000 -0.000000  0.000001 -0.000001  0.000001 -0.000003  0.000009
                                -0.000038  0.000344  0.003691  0.005372  0.110177  0.090980 -0.114180 -0.157242  0.311714 -0.444766
                                -0.278362 -0.001377 -0.005303 -0.063328 -0.189279 -0.008727  0.677791  0.037761  0.202820 -0.116071
                                -0.009151  0.001555  0.000001  0.000000 -0.000005 -0.000000  0.000019  0.000001 -0.000102 -0.000007
                                 0.001904  0.000137  0.017642  0.001268 -0.047068 -0.004414  0.034864  0.005504 -0.127798 -0.002741
                                -0.253157 -0.032445 -0.004553 -0.000327 -0.033801 -0.002423  0.055865  0.004465  0.011443 -0.002303
                                 0.087484 -0.022648  0.030070 -0.020660 -0.155141 -0.018998 -0.089834 -0.015700  0.022783 -0.010629
                                -0.003906 -0.004503  0.001216  0.000762 -0.000302 -0.000190 -0.000103 -0.000035  0.000833  0.000280
                                -0.011901 -0.004057 -0.183130 -0.063572 -0.269260 -0.096183 -0.288390 -0.098381 -0.141679 -0.063308
                                -0.044630 -0.012744 -0.020699 -0.002778 -0.061523 -0.004641 -0.028250 -0.021166 -0.032862  0.008426
                                 0.006225 -0.006760 -0.001384  0.002380 -0.000615 -0.000019 -0.000058  0.001016 -0.000039 -0.000161
                                -0.005217 -0.000264 -0.000367 -0.005927 -0.000427 -0.001697  0.003400  0.000016 -0.001957 -0.022999
                                 0.000693 -0.000904  0.009868  0.000877  0.000618 -0.013958  0.000438 -0.000375  0.001761  0.000085
                                 0.000168 -0.000067 -0.000196  0.000029 -0.000183 -0.000624 -0.001616 -0.001317 -0.000632 -0.002632
                                 0.000000 -0.000001  0.000006 -0.000039  0.000345 -0.013631  0.024198 -0.046973 -0.115880 -0.014142
                                 1.057222  0.017600  0.022547  0.003610  0.029397  0.110298  0.217188  0.124934 -0.081438  0.003705
                                -0.000937 -0.018303 -0.002868 -0.094821 -0.006528 -0.038206 -0.003412 -0.000954 -0.000182  0.010527
                                 0.001987  0.030744 -0.000536

   6.1   +    -0.2999  -11.4670 -0.000000  0.000000 -0.000001  0.000010  0.000045  0.000140  0.000295  0.000658 -0.000264  0.000941
                                -0.011847 -0.019972 -0.046861 -0.008201 -0.572496  0.274435 -0.012988  0.115365  0.065335 -0.000018
                                -0.000081 -0.000239 -0.000679  0.018806  0.021875  0.494097 -0.110704  0.316922 -0.070101 -0.003294
                                 0.001302 -0.000298  0.000000 -0.000000  0.000000 -0.000001  0.000002 -0.000002  0.000005 -0.000014
                                 0.000057 -0.000530 -0.006041 -0.008965 -0.031916 -0.075833 -0.005461  0.263684 -0.051397  0.203753
                                 0.164837  0.002176  0.008946  0.035098  0.020996  0.096563 -0.022476 -0.029087 -0.111776  0.081021
                                 0.007694 -0.001386 -0.000000 -0.000000  0.000001  0.000000 -0.000006 -0.000000  0.000033  0.000001
                                -0.000608 -0.000014 -0.005100 -0.000134 -0.009507  0.000460  0.040614 -0.000560 -0.016292  0.000223
                                -0.217319  0.003235  0.001440  0.000034  0.009094  0.000257 -0.003674 -0.000473 -0.003612  0.000248
                                -0.244930  0.002233 -0.270648  0.002222 -0.032693  0.002020 -0.030827  0.001775 -0.008421  0.001235
                                -0.001288  0.000544  0.000592 -0.000084 -0.000196  0.000022  0.000081  0.000001 -0.000653 -0.000010
                                 0.009267  0.000142  0.140403  0.002237  0.198161  0.003443  0.199357  0.003603  0.112120  0.002568
                                 0.037007  0.000398  0.028682 -0.000024  0.011622  0.000386  0.011359  0.000992  0.019597 -0.000324
                                -0.003804  0.000295  0.001279 -0.000101  0.000189  0.000002  0.000001 -0.000380  0.000004  0.000004
                                 0.002052 -0.000014  0.000000 -0.005987  0.000099  0.000005 -0.006076  0.000806  0.000007  0.000302
                                 0.002050 -0.000006 -0.017851  0.003148 -0.000038  0.007666  0.002740  0.000004 -0.002046  0.001088
                                -0.000020  0.000016  0.000153  0.000106  0.000041  0.000287  0.000510  0.000076  0.000040 -0.000337
                                 0.000000 -0.000001  0.000004 -0.000025  0.000234 -0.009881  0.017328 -0.040697 -0.107912  0.078347
                                -0.236427  0.011546  0.016600  0.002865  0.024589  0.084285  0.115498  0.127918  0.053416  0.002291
                                -0.000743  0.002652  0.000160  0.020492  0.000357 -0.009997  0.000151  0.000056  0.000010 -0.002134
                                -0.000092 -0.008995  0.000034

   7.1   +    -0.1357   -8.3943  0.000000 -0.000000  0.000000 -0.000000 -0.000001 -0.000003 -0.000005 -0.000012  0.000005 -0.000017
                                 0.000247  0.000033  0.000566  0.002070  0.020964 -0.005745 -0.000909  0.000281  0.001348  0.000000
                                 0.000001  0.000004  0.000012 -0.000401  0.000303 -0.020631  0.003609 -0.008528  0.001748  0.000383
                                -0.000081  0.000017 -0.000000  0.000000 -0.000000  0.000000 -0.000000  0.000000 -0.000000  0.000000
                                -0.000001  0.000007  0.000073  0.000115  0.001302  0.001135 -0.000524 -0.002955  0.003175 -0.005438
                                -0.004277 -0.000027 -0.000110 -0.000868 -0.001773 -0.000953  0.005913  0.000478  0.002201 -0.001963
                                -0.000152  0.000026  0.000000 -0.000000 -0.000000  0.000002  0.000000 -0.000010 -0.000001  0.000056
                                 0.000025 -0.001043  0.000231 -0.009781 -0.000430  0.034529  0.000067 -0.040463 -0.000868  0.014554
                                -0.000816  0.249470 -0.000061  0.002497 -0.000438  0.018931  0.000631 -0.035407  0.000021  0.015339
                                 0.002271  0.159976  0.002263  0.206698 -0.001079  0.202483 -0.000463  0.196878  0.000213  0.140583
                                -0.000006  0.065444  0.000010 -0.009961 -0.000001  0.002615 -0.000001 -0.000049  0.000012  0.000395
                                -0.000165 -0.005681 -0.002521 -0.088357 -0.003662 -0.131018 -0.003853 -0.131874 -0.002200 -0.074786
                                -0.000614 -0.019585 -0.000331 -0.008424 -0.000797  0.001149 -0.000454 -0.017165 -0.000460  0.010707
                                 0.000072 -0.006807 -0.000022  0.002729 -0.000006  0.000001 -0.000048  0.000013  0.000000 -0.000051
                                -0.000054  0.000013 -0.000457  0.000003  0.000074 -0.000423  0.000053  0.000128  0.000038 -0.000204
                                 0.000128 -0.002881  0.000246  0.000075 -0.000040 -0.000174  0.000022 -0.002713  0.000036 -0.000000
                                -0.001255 -0.000050 -0.000016 -0.000004 -0.000278 -0.000046 -0.000023 -0.000881 -0.000017 -0.000019
                                 0.000000 -0.000000  0.000000 -0.000000  0.000002 -0.000057  0.000069 -0.000189 -0.000026 -0.000798
                                 0.009762  0.000108  0.000096  0.000005  0.000028  0.000184  0.000635 -0.000317 -0.001191  0.000012
                                -0.000001 -0.000194  0.003868 -0.000980  0.014408 -0.000224  0.005946 -0.000010  0.000312  0.000113
                                -0.000902  0.000322 -0.002792

   8.1   0     0.0008   -1.8627 -0.000000  0.000000 -0.000000  0.000001  0.000006  0.000019  0.000039  0.000088 -0.000037  0.000158
                                 0.002160 -0.055501 -0.044906  0.092983  0.226794 -0.207261 -2.609329 -4.129953 -5.442936 -0.000002
                                -0.000011 -0.000032 -0.000090 -0.004059  0.110399 -0.321975  0.718666  4.893336  6.425879  1.356920
                                -1.424711  1.557920 -0.000000  0.000000 -0.000000  0.000000 -0.000000  0.000000 -0.000000  0.000001
                                -0.000003  0.000025  0.000269  0.000384  0.007501  0.003884  0.024949  0.025678  0.034517 -0.021117
                                 0.161191 -0.000100 -0.000385 -0.004346 -0.011667 -0.001716 -0.011915 -0.373049 -0.352548  0.382855
                                 0.217138 -0.274464  0.000000  0.000000 -0.000001 -0.000000  0.000003  0.000000 -0.000014 -0.000000
                                 0.000265  0.000003  0.002396  0.000027 -0.004128 -0.000088  0.000215  0.000118  0.007506 -0.000045
                                 0.015427 -0.000611 -0.000633 -0.000007 -0.004535 -0.000051  0.006403  0.000091 -0.004009 -0.000072
                                 0.000669 -0.000463  0.018383 -0.000453 -0.006159 -0.000387  0.035654 -0.000477 -0.019177 -0.000359
                                 0.011334 -0.000691 -0.006760 -0.000145  0.019756 -0.000552 -0.000003  0.000000  0.000021 -0.000001
                                -0.000304  0.000008 -0.004611  0.000124 -0.006489  0.000180 -0.006225  0.000180 -0.005287  0.000089
                                -0.001200  0.000030 -0.001013  0.000018  0.001485 -0.000008 -0.004739  0.000001  0.003465 -0.000041
                                -0.002151 -0.000024 -0.002392  0.000029  0.000006  0.000004  0.000000  0.000005  0.000007  0.000000
                                 0.000004  0.000056  0.000000  0.000395  0.000079 -0.000001  0.000026  0.000176  0.000004  0.001321
                                 0.000429  0.000012  0.000952  0.001214  0.000008  0.000971  0.001702  0.000007  0.000904  0.002027
                                -0.000001 -0.000000 -0.000006 -0.000009 -0.000000 -0.000013  0.000005  0.000001 -0.000017  0.000042
                                 0.000000 -0.000000  0.000001 -0.000004  0.000026 -0.000758  0.000617 -0.002646 -0.006565 -0.065817
                                -0.173005  0.001198  0.001295 -0.000420 -0.003598 -0.012323 -0.019700  0.008669 -0.002595 -0.000311
                                 0.000110 -0.000146 -0.000013 -0.000011 -0.000050 -0.004817 -0.000048 -0.000014 -0.000001 -0.000059
                                 0.000005 -0.000070  0.000010

   9.1   0     0.0053   -1.1069 -0.000000  0.000000 -0.000000  0.000008  0.000036  0.000111  0.000235  0.000521 -0.000207  0.000721
                                -0.008923 -0.016534 -0.051380  0.102288  0.318553 -0.075993 -3.444196 -6.645791 -9.110420 -0.000014
                                -0.000064 -0.000190 -0.000538  0.014134  0.021899 -0.323219  1.080316  3.652140 10.686901  1.919549
                                -2.471426  1.584666 -0.000000  0.000000 -0.000000  0.000000 -0.000001  0.000001 -0.000002  0.000005
                                -0.000021  0.000197  0.002154  0.002987  0.017878  0.023033  0.059151  0.055825  0.084627 -0.887516
                                -1.929855 -0.000795 -0.003099 -0.014766 -0.019753 -0.027864 -0.064218  3.150567  3.408212 -3.920162
                                -2.395439  1.874717 -0.000000 -0.000000  0.000000  0.000000 -0.000001 -0.000000  0.000005  0.000000
                                -0.000098 -0.000001 -0.000908 -0.000010  0.001992  0.000031 -0.000941 -0.000040 -0.002004  0.000013
                                 0.001311  0.000198  0.000235  0.000003  0.001748  0.000018 -0.002694 -0.000032  0.001796  0.000026
                                 0.002870  0.000155  0.026291  0.000157 -0.264110  0.000125 -0.331567  0.000196  0.206547  0.000119
                                -0.098511  0.000318  0.084194  0.000012 -0.104433  0.000333  0.000000 -0.000000 -0.000002  0.000000
                                 0.000026 -0.000003  0.000501 -0.000048  0.000986 -0.000071  0.000963 -0.000072 -0.000567 -0.000039
                                -0.000023 -0.000011 -0.000307 -0.000005  0.000859  0.000000 -0.051410  0.000003 -0.073349  0.000018
                                 0.038706  0.000026 -0.009080 -0.000026  0.000004 -0.000002 -0.000000 -0.000022 -0.000002 -0.000000
                                 0.000059 -0.000020  0.000000 -0.000144 -0.000026  0.000001 -0.000169 -0.000077 -0.000000 -0.000730
                                -0.000161 -0.000004 -0.005109 -0.000471 -0.000001 -0.017724 -0.000500 -0.000005  0.004706 -0.000725
                                 0.000005  0.000000  0.000001 -0.000002 -0.000000  0.000002  0.000013 -0.000000  0.000010 -0.000093
                                -0.000000  0.000000 -0.000001  0.000003 -0.000020  0.000415  0.000605  0.001132  0.005413  0.029433
                                 3.312698 -0.001202 -0.000790  0.000064  0.000546  0.001973  0.000439  0.105335 -0.492542  0.000059
                                -0.000017  0.000279  0.000004 -0.000329  0.000017 -0.041701  0.000017  0.000001  0.000000 -0.000235
                                -0.000002  0.002519 -0.000004

                                   1 2px     1 2px     1 2px     1 2px     1 2px     1 2px     1 2px     1 2px     1 2px     1 2px
                                   1 2px     1 2px     1 2px     1 2px     1 2px     1 2px     1 2px     1 2px     1 2px     1 2px
                                   1 2px     1 2px     1 2px     1 2px     1 2px     1 2px     1 2px     1 2px     1 2px     1 2px
                                   1 3d1+    1 3d1+    1 3d1+    1 3d1+    1 3d1+    1 3d1+    1 3d1+    1 3d1+    1 3d1+    1 3d1+
                                   1 3d1+    1 3d1+    1 3d1+    1 3d1+    1 3d1+    1 3d1+    1 3d1+    1 3d1+    1 3d1+    1 3d1+
                                   1 3d1+    1 3d1+    1 4f1+    1 4f3+    1 4f1+    1 4f3+    1 4f1+    1 4f3+    1 4f1+    1 4f3+
                                   1 4f1+    1 4f3+    1 4f1+    1 4f3+    1 4f1+    1 4f3+    1 4f1+    1 4f3+    1 4f1+    1 4f3+
                                   1 4f1+    1 4f3+    1 4f1+    1 4f3+    1 4f1+    1 4f3+    1 4f1+    1 4f3+    1 4f1+    1 4f3+
                                   1 5g1+    1 5g3+    1 5g1+    1 5g3+    1 5g1+    1 5g3+    1 5g1+    1 5g3+    1 5g1+    1 5g3+
                                   1 5g1+    1 5g3+    1 5g1+    1 5g3+    1 5g1+    1 5g3+    1 5g1+    1 5g3+    1 6h1+    1 6h3+
                                   1 6h5+    1 6h1+    1 6h3+    1 6h5+    1 6h1+    1 6h3+    1 6h5+    2 2px     2 2px     2 2px
                                   2 2px     2 2px     2 2px     2 2px     2 2px     2 3d1+    2 3d1+    2 3d1+    2 3d1+    2 4f1+
                                   2 4f3+    2 4f1+    2 4f3+

   1.2   2    -1.1560  -14.0389  0.000000 -0.000000  0.000001 -0.000002  0.000002 -0.000003  0.000006 -0.000017  0.000070 -0.000659
                                -0.007538 -0.010563  0.083417 -0.083028  0.199314  0.279841 -0.052681  0.018067  0.011801  0.002713
                                 0.011084 -0.017393 -0.162246  0.128320  0.270761 -0.002116 -0.007879  0.005624  0.000567 -0.000102
                                 0.000000 -0.000000  0.000001 -0.000007  0.000132  0.001271  0.000675 -0.005440  0.034509  0.005507
                                -0.000323 -0.002484  0.002201 -0.016519  0.024429 -0.087814  0.008223  0.007587 -0.002455  0.001029
                                -0.000465  0.000137  0.000005  0.000001 -0.000038 -0.000007  0.000661  0.000103  0.013932  0.001759
                                 0.031467  0.003056  0.035730  0.003364  0.022647  0.003544 -0.002052  0.000219 -0.014324 -0.000382
                                -0.027539  0.002838 -0.027139  0.003129  0.011025  0.000167 -0.003801  0.000474  0.001166 -0.000108
                                -0.000021  0.000040  0.000390  0.000073 -0.001032  0.000266  0.009196  0.000467  0.000188  0.000679
                                -0.001967  0.000379 -0.008781  0.000292  0.000183  0.000085  0.000622  0.000007 -0.000036  0.000042
                                 0.000007  0.000222  0.000175 -0.000052  0.003996  0.000541 -0.000552  0.004580  0.038031  0.135528
                                 0.206678  0.225217 -0.008351  0.004767 -0.001181 -0.015916 -0.041435 -0.046150 -0.001028  0.007639
                                 0.000090  0.007936  0.000376

   2.2   2    -0.6508  -12.3702  0.000000 -0.000000  0.000000 -0.000001  0.000001 -0.000002  0.000004 -0.000011  0.000045 -0.000420
                                -0.004814 -0.006821  0.047988 -0.049863  0.030243  0.222039  0.332211 -0.000188 -0.044295  0.001730
                                 0.007094 -0.007914 -0.101836  0.110902  0.261070  0.011640  0.040604 -0.029471 -0.003224  0.000594
                                 0.000000 -0.000001  0.000004 -0.000023  0.000437  0.004092 -0.018185  0.022808 -0.039754 -0.090976
                                -0.001043 -0.008022  0.016893  0.010350 -0.081540  0.123994 -0.032335 -0.029229  0.008102 -0.003286
                                 0.001476 -0.000435 -0.000014  0.000000  0.000111 -0.000000 -0.001735  0.000004 -0.031225  0.000094
                                -0.059427  0.000259 -0.068908  0.000296 -0.056730  0.000670 -0.001065 -0.000025  0.015850 -0.000138
                                 0.024722  0.001492  0.046388  0.001628 -0.029219  0.000352  0.009152  0.000194 -0.002975 -0.000025
                                -0.000123 -0.000027 -0.000506 -0.000052  0.000085 -0.000145 -0.012476 -0.000243 -0.002705 -0.000277
                                -0.002967 -0.000226  0.016610 -0.000376 -0.001758 -0.000250 -0.001773 -0.000053  0.000005  0.000011
                                -0.000007 -0.000372  0.000054 -0.000058 -0.004937  0.000110 -0.000457 -0.008430 -0.071376 -0.245513
                                -0.391470 -0.482183  0.024006 -0.006793  0.002194  0.013547  0.041959  0.075840  0.000704 -0.007546
                                -0.000038 -0.008775 -0.000073

   3.2   +    -0.4883  -16.4186  0.000000 -0.000000  0.000000 -0.000000  0.000000 -0.000000  0.000000 -0.000000  0.000000 -0.000003
                                -0.000066 -0.000235  0.002703  0.003407  0.007029  0.002653  0.003300 -0.011657 -0.001189  0.000017
                                 0.000158 -0.000715 -0.009477  0.007065  0.006665 -0.000778 -0.003093  0.001720  0.000222 -0.000042
                                 0.000000 -0.000000  0.000001 -0.000004  0.000071  0.000640 -0.000906 -0.000643  0.002208  0.006454
                                -0.000170 -0.001225  0.001662 -0.000454  0.004331  0.013484 -0.003028  0.003787 -0.001584  0.000605
                                -0.000268  0.000079 -0.000008 -0.000143  0.000061  0.001151 -0.000876 -0.016574 -0.013428 -0.258086
                                -0.019356 -0.383013 -0.019325 -0.381630 -0.010849 -0.218593 -0.003309 -0.057458 -0.002142 -0.024257
                                 0.004573 -0.001237  0.001445 -0.062870  0.000980  0.031726  0.000073 -0.021107  0.000038  0.007416
                                -0.000027 -0.000166 -0.000011 -0.000290 -0.000245 -0.001286 -0.000144 -0.002640 -0.000391 -0.002585
                                 0.000488 -0.000740  0.001316 -0.000299 -0.000508  0.000008  0.000257 -0.000013 -0.000060  0.000149
                                -0.000048 -0.000133  0.000032 -0.000129 -0.000167 -0.001131 -0.000166  0.000090  0.000808  0.002283
                                 0.004726 -0.008627 -0.001128 -0.000018 -0.000024  0.000219 -0.000362  0.003807  0.000010 -0.000208
                                -0.000896  0.000293 -0.000607

   4.2   +    -0.4614  -15.8663 -0.000000  0.000000 -0.000000  0.000001 -0.000001  0.000002 -0.000004  0.000011 -0.000043  0.000397
                                 0.004377  0.006111  0.036459  0.044503  0.057232 -0.001883  0.259236 -0.051111  0.071575 -0.001610
                                -0.006307 -0.030553 -0.036611 -0.046057 -0.064563 -0.022798 -0.077411  0.057726  0.006317 -0.001163
                                 0.000001 -0.000004  0.000015 -0.000079  0.001454  0.012939 -0.019530 -0.005541  0.020414  0.112194
                                -0.003458 -0.024277  0.032813 -0.011217  0.054587  0.292844 -0.060836  0.074320 -0.033606  0.013096
                                -0.005826  0.001716 -0.000137  0.000007  0.001104 -0.000058 -0.015851  0.000832 -0.245817  0.013040
                                -0.362899  0.019627 -0.366847  0.019742 -0.224475  0.012496 -0.056548  0.002777 -0.026506  0.000828
                                 0.064706  0.002224  0.000256  0.005767  0.004693 -0.000884 -0.002963  0.001492  0.001230 -0.000446
                                -0.000265  0.000005  0.000136  0.000006 -0.002213  0.000041 -0.002026  0.000170 -0.003272  0.000387
                                 0.010968  0.000607  0.027478  0.000698 -0.010768  0.000467  0.004881  0.000129 -0.000135  0.000121
                                -0.000048 -0.000991  0.000294 -0.000148 -0.003264  0.000204 -0.000130  0.001121  0.010768  0.023121
                                 0.061903 -0.206423 -0.001157 -0.001658 -0.000321  0.010670  0.009804  0.092686  0.000575 -0.007696
                                 0.000096  0.001497 -0.000024

   5.2   0     0.0053   -1.0796 -0.000000  0.000000 -0.000000  0.000001 -0.000001  0.000002 -0.000004  0.000012 -0.000047  0.000434
                                 0.004740  0.006567  0.042236  0.051705  0.136626  0.091573 -0.144700  0.242520 -1.121752 -0.001751
                                -0.006813 -0.033824 -0.048927 -0.060550 -0.142989  3.141352  2.512559 -3.446101 -2.596421  2.093647
                                 0.000000 -0.000000  0.000000 -0.000002  0.000040  0.000359 -0.000807  0.000455  0.000102 -0.000292
                                -0.000094 -0.000682  0.001054 -0.000416 -0.001074 -0.007450  0.011534 -0.137612  0.027082 -0.036614
                                 0.049480 -0.090925  0.000000 -0.000000 -0.000003  0.000002  0.000037 -0.000032  0.000481 -0.000481
                                 0.000453 -0.000687  0.000455 -0.000665  0.001123 -0.000303  0.000247 -0.000120  0.000432 -0.000082
                                -0.001745  0.000375  0.004171  0.000881 -0.037159  0.001715 -0.010165  0.001760  0.005739  0.000951
                                 0.000007 -0.000000 -0.000023 -0.000001  0.000076 -0.000002 -0.000214 -0.000004  0.000607 -0.000007
                                -0.001171 -0.000002  0.002495 -0.000004 -0.005116 -0.000016 -0.007454 -0.000036  0.000002  0.000000
                                 0.000000 -0.000008  0.000000  0.000002  0.000026 -0.000001  0.000014 -0.000005 -0.000022 -0.000347
                                -0.000361  0.001128  0.242884 -0.000055  0.000001  0.000175  0.001123 -0.002680  0.000016 -0.000168
                                 0.000003 -0.000112  0.000004

   6.2   0     0.0114   -1.0466  0.000000 -0.000000  0.000000 -0.000000  0.000000 -0.000000  0.000001 -0.000003  0.000011 -0.000098
                                -0.001065 -0.001473 -0.010246 -0.011783 -0.034701 -0.020019  0.001919 -0.042727  0.107803  0.000394
                                 0.001529  0.007940  0.012407  0.013598  0.033612 -0.500978 -0.363013  0.537307  0.422106 -0.237486
                                 0.000001 -0.000004  0.000016 -0.000083  0.001544  0.014048 -0.028934  0.011050  0.032899  0.033685
                                -0.003687 -0.026796  0.040286 -0.024536 -0.025645 -0.115534  0.195569 -0.369690  0.484317 -0.669196
                                 1.146732 -1.624944 -0.000000 -0.000000  0.000001  0.000000 -0.000025 -0.000002 -0.000576 -0.000027
                                -0.001333 -0.000038 -0.001239 -0.000036  0.002142 -0.000018  0.000142 -0.000007  0.000654 -0.000005
                                -0.005042  0.000024 -0.004887  0.000052  0.002447  0.000118 -0.009440  0.000073  0.012849  0.000115
                                 0.000008 -0.000000 -0.000031 -0.000000  0.000088 -0.000000 -0.000240 -0.000002  0.001185  0.000001
                                -0.001266 -0.000013 -0.001358 -0.000004  0.000932 -0.000096 -0.001700 -0.000013  0.000005  0.000000
                                -0.000000 -0.000025  0.000001  0.000000  0.000148  0.000000  0.000001  0.000016  0.000104  0.000912
                                -0.000170  0.024424  0.028248  0.000097 -0.000003 -0.000079  0.001761 -0.009018  0.000004 -0.000140
                                -0.000000 -0.000709 -0.000000

                                   1 2py     1 2py     1 2py     1 2py     1 2py     1 2py     1 2py     1 2py     1 2py     1 2py
                                   1 2py     1 2py     1 2py     1 2py     1 2py     1 2py     1 2py     1 2py     1 2py     1 2py
                                   1 2py     1 2py     1 2py     1 2py     1 2py     1 2py     1 2py     1 2py     1 2py     1 2py
                                   1 3d1-    1 3d1-    1 3d1-    1 3d1-    1 3d1-    1 3d1-    1 3d1-    1 3d1-    1 3d1-    1 3d1-
                                   1 3d1-    1 3d1-    1 3d1-    1 3d1-    1 3d1-    1 3d1-    1 3d1-    1 3d1-    1 3d1-    1 3d1-
                                   1 3d1-    1 3d1-    1 4f1-    1 4f3-    1 4f1-    1 4f3-    1 4f1-    1 4f3-    1 4f1-    1 4f3-
                                   1 4f1-    1 4f3-    1 4f1-    1 4f3-    1 4f1-    1 4f3-    1 4f1-    1 4f3-    1 4f1-    1 4f3-
                                   1 4f1-    1 4f3-    1 4f1-    1 4f3-    1 4f1-    1 4f3-    1 4f1-    1 4f3-    1 4f1-    1 4f3-
                                   1 5g1-    1 5g3-    1 5g1-    1 5g3-    1 5g1-    1 5g3-    1 5g1-    1 5g3-    1 5g1-    1 5g3-
                                   1 5g1-    1 5g3-    1 5g1-    1 5g3-    1 5g1-    1 5g3-    1 5g1-    1 5g3-    1 6h1-    1 6h3-
                                   1 6h5-    1 6h1-    1 6h3-    1 6h5-    1 6h1-    1 6h3-    1 6h5-    2 2py     2 2py     2 2py
                                   2 2py     2 2py     2 2py     2 2py     2 2py     2 3d1-    2 3d1-    2 3d1-    2 3d1-    2 4f1-
                                   2 4f3-    2 4f1-    2 4f3-

   1.3   2    -1.1542  -14.0359  0.000000 -0.000000  0.000001 -0.000002  0.000002 -0.000003  0.000006 -0.000017  0.000070 -0.000659
                                -0.007528 -0.010550  0.083224 -0.082977  0.198983  0.279696 -0.053008  0.018050  0.011789  0.002710
                                 0.011070 -0.017336 -0.161849  0.127987  0.270247 -0.002127 -0.007910  0.005649  0.000570 -0.000102
                                 0.000000 -0.000000  0.000001 -0.000007  0.000129  0.001240  0.000741 -0.005480  0.034554  0.005702
                                -0.000316 -0.002429  0.002121 -0.016455  0.024575 -0.088006  0.008304  0.007585 -0.002455  0.001031
                                -0.000466  0.000137  0.000005 -0.000001 -0.000038  0.000006  0.000666 -0.000094  0.014016 -0.001554
                                 0.031632 -0.002607  0.035965 -0.002693  0.022827 -0.003028 -0.002053 -0.000249 -0.014371  0.000182
                                -0.027596 -0.002960 -0.027196 -0.003048  0.011050 -0.000231 -0.003812 -0.000440  0.001169  0.000096
                                -0.000024 -0.000043  0.000381 -0.000082 -0.001054 -0.000280  0.009185 -0.000433  0.000167 -0.000634
                                -0.001972 -0.000387 -0.008810 -0.000299  0.000186 -0.000087  0.000622 -0.000008 -0.000039 -0.000042
                                 0.000006  0.000208 -0.000176 -0.000053  0.003986 -0.000505 -0.000554  0.004595  0.038153  0.135967
                                 0.207316  0.225978 -0.008320  0.004782 -0.001185 -0.015932 -0.041465 -0.046275 -0.001028  0.007649
                                -0.000076  0.007946 -0.000354

   2.3   2    -0.6493  -12.3622 -0.000000  0.000000 -0.000000  0.000001 -0.000001  0.000002 -0.000004  0.000011 -0.000045  0.000422
                                 0.004836  0.006851 -0.048000  0.050162 -0.030240 -0.222798 -0.331634  0.000021  0.044545 -0.001739
                                -0.007126  0.007861  0.101879 -0.111091 -0.261732 -0.011706 -0.040835  0.029642  0.003242 -0.000597
                                -0.000000  0.000001 -0.000004  0.000023 -0.000430 -0.004033  0.018069 -0.022770  0.039840  0.091124
                                 0.001027  0.007911 -0.016728 -0.010419  0.081449 -0.123025  0.032109  0.029450 -0.008206  0.003324
                                -0.001493  0.000440  0.000013 -0.000000 -0.000108  0.000002  0.001691 -0.000033  0.030528 -0.000523
                                 0.058349 -0.000746  0.067767 -0.000855  0.055910 -0.000050  0.000922 -0.000118 -0.015868 -0.000065
                                -0.024484  0.001549 -0.046338  0.001472  0.029229  0.000442 -0.009156  0.000136  0.002978 -0.000006
                                 0.000121 -0.000026  0.000504 -0.000051 -0.000096 -0.000139  0.012457 -0.000205  0.002656 -0.000187
                                 0.002992 -0.000220 -0.016521 -0.000375  0.001727 -0.000250  0.001788 -0.000053 -0.000001  0.000020
                                 0.000007  0.000383  0.000072  0.000058  0.004934  0.000188  0.000458  0.008426  0.071354  0.245409
                                 0.391435  0.481350 -0.024037  0.006784 -0.002193 -0.013485 -0.041858 -0.075492 -0.000699  0.007517
                                -0.000012  0.008769  0.000012

   3.3   +    -0.4888  -16.4153 -0.000000  0.000000 -0.000000  0.000000 -0.000000  0.000000 -0.000000  0.000001 -0.000003  0.000023
                                 0.000222  0.000123  0.004595  0.007374  0.010193  0.000920  0.018491 -0.015037  0.003571 -0.000091
                                -0.000243 -0.002388 -0.012328  0.005092  0.002062 -0.002267 -0.008155  0.005496  0.000635 -0.000117
                                 0.000000 -0.000000  0.000002 -0.000009  0.000163  0.001453 -0.002115 -0.001069  0.003680  0.013903
                                -0.000387 -0.002754  0.003724 -0.001132  0.008055  0.032002 -0.006872  0.008570 -0.003746  0.001442
                                -0.000641  0.000188 -0.000016  0.000142  0.000132 -0.001145 -0.001895  0.016485 -0.029236  0.256699
                                -0.042654  0.380941 -0.042821  0.379559 -0.025140  0.217319 -0.006980  0.057158 -0.003928  0.024153
                                 0.008770  0.001090  0.001420  0.062374  0.001347 -0.031592 -0.000134  0.020965  0.000122 -0.007370
                                -0.000045  0.000166 -0.000007  0.000289 -0.000410  0.001283 -0.000286  0.002633 -0.000642  0.002566
                                 0.001200  0.000706  0.003036  0.000255 -0.001189 -0.000037  0.000571  0.000005 -0.000076 -0.000162
                                 0.000039 -0.000215 -0.000066  0.000086 -0.000392  0.001101  0.000111  0.000176  0.001616  0.004179
                                 0.009408 -0.020877 -0.001277 -0.000111 -0.000049  0.000883  0.000187  0.009610  0.000047 -0.000679
                                 0.000888  0.000408  0.000609

   4.3   +    -0.4568  -15.8666 -0.000000  0.000000 -0.000000  0.000001 -0.000001  0.000002 -0.000004  0.000010 -0.000043  0.000396
                                 0.004361  0.006110  0.036466  0.043793  0.056853 -0.001105  0.260074 -0.050193  0.071391 -0.001603
                                -0.006291 -0.030555 -0.036065 -0.046415 -0.064104 -0.022705 -0.077010  0.057490  0.006292 -0.001159
                                 0.000001 -0.000004  0.000015 -0.000079  0.001449  0.012891 -0.019502 -0.005405  0.020069  0.111372
                                -0.003445 -0.024186  0.032711 -0.011129  0.053952  0.292215 -0.060547  0.073973 -0.033480  0.013054
                                -0.005809  0.001711 -0.000136 -0.000016  0.001098  0.000132 -0.015762 -0.001898 -0.244455 -0.029639
                                -0.360985 -0.044272 -0.364989 -0.044337 -0.223661 -0.026666 -0.056152 -0.006447 -0.026146 -0.002342
                                 0.064219 -0.002355  0.000237 -0.009922  0.004527  0.002943 -0.002948 -0.002882  0.001222  0.000934
                                -0.000261 -0.000015  0.000140 -0.000026 -0.002174 -0.000117 -0.002020 -0.000295 -0.003190 -0.000478
                                 0.010937 -0.000590  0.027431 -0.000700 -0.010728 -0.000465  0.004856 -0.000128 -0.000157 -0.000160
                                -0.000055 -0.001047 -0.000429 -0.000165 -0.003318 -0.000433 -0.000155  0.001086  0.010468  0.022125
                                 0.060173 -0.207207 -0.000856 -0.001681 -0.000312  0.010698  0.010004  0.092621  0.000575 -0.007708
                                -0.000156  0.001442 -0.000021

   5.3   0     0.0053   -1.0785 -0.000000  0.000000 -0.000000  0.000001 -0.000001  0.000002 -0.000004  0.000012 -0.000047  0.000434
                                 0.004742  0.006569  0.042287  0.051732  0.136780  0.091738 -0.144815  0.242594 -1.122837 -0.001752
                                -0.006815 -0.033850 -0.049022 -0.060539 -0.142992  3.143584  2.514317 -3.449127 -2.598879  2.094985
                                 0.000000 -0.000000  0.000000 -0.000002  0.000040  0.000359 -0.000805  0.000449  0.000111 -0.000266
                                -0.000094 -0.000681  0.001052 -0.000416 -0.001050 -0.007454  0.011559 -0.137678  0.027143 -0.036639
                                 0.049568 -0.091051  0.000000  0.000000 -0.000003 -0.000002  0.000037  0.000032  0.000478  0.000480
                                 0.000451  0.000683  0.000453  0.000658  0.001124  0.000300  0.000246  0.000120  0.000429  0.000085
                                -0.001742 -0.000354  0.004191 -0.000824 -0.037161 -0.001666 -0.010143 -0.001665  0.005726 -0.000993
                                 0.000007  0.000000 -0.000023  0.000001  0.000076  0.000002 -0.000214  0.000001  0.000606  0.000005
                                -0.001172  0.000000  0.002499  0.000008 -0.005119  0.000012 -0.007452  0.000047  0.000002  0.000000
                                 0.000000 -0.000008 -0.000000  0.000002  0.000026  0.000000  0.000015 -0.000005 -0.000022 -0.000345
                                -0.000361  0.001124  0.242977 -0.000055  0.000001  0.000171  0.001114 -0.002689  0.000015 -0.000167
                                -0.000003 -0.000111 -0.000004

   6.3   0     0.0114   -1.0466  0.000000 -0.000000  0.000000 -0.000000  0.000000 -0.000000  0.000001 -0.000003  0.000011 -0.000098
                                -0.001065 -0.001472 -0.010235 -0.011775 -0.034671 -0.019995  0.001901 -0.042698  0.107819  0.000394
                                 0.001528  0.007933  0.012391  0.013594  0.033600 -0.500744 -0.362904  0.537027  0.421827 -0.237360
                                 0.000001 -0.000004  0.000016 -0.000083  0.001544  0.014047 -0.028932  0.011048  0.032898  0.033684
                                -0.003687 -0.026795  0.040283 -0.024534 -0.025641 -0.115521  0.195556 -0.369593  0.484287 -0.669118
                                 1.146605 -1.624889 -0.000000  0.000000  0.000001 -0.000000 -0.000025  0.000002 -0.000577  0.000026
                                -0.001335  0.000036 -0.001242  0.000033  0.002138  0.000016  0.000142  0.000007  0.000654  0.000006
                                -0.005042 -0.000022 -0.004891 -0.000046  0.002470 -0.000114 -0.009443 -0.000060  0.012866 -0.000127
                                 0.000008  0.000000 -0.000031  0.000000  0.000088  0.000000 -0.000240  0.000001  0.001184  0.000000
                                -0.001266  0.000011 -0.001358  0.000006  0.000932  0.000087 -0.001695  0.000018  0.000005 -0.000000
                                -0.000000 -0.000025 -0.000001  0.000000  0.000148 -0.000001  0.000001  0.000016  0.000103  0.000910
                                -0.000172  0.024423  0.028138  0.000097 -0.000003 -0.000079  0.001760 -0.009019  0.000004 -0.000140
                                 0.000000 -0.000708  0.000001

                                   1 3d2-    1 3d2-    1 3d2-    1 3d2-    1 3d2-    1 3d2-    1 3d2-    1 3d2-    1 3d2-    1 3d2-
                                   1 3d2-    1 3d2-    1 3d2-    1 3d2-    1 3d2-    1 3d2-    1 3d2-    1 3d2-    1 3d2-    1 3d2-
                                   1 3d2-    1 3d2-    1 4f2-    1 4f2-    1 4f2-    1 4f2-    1 4f2-    1 4f2-    1 4f2-    1 4f2-
                                   1 4f2-    1 4f2-    1 4f2-    1 4f2-    1 4f2-    1 4f2-    1 5g2-    1 5g4-    1 5g2-    1 5g4-
                                   1 5g2-    1 5g4-    1 5g2-    1 5g4-    1 5g2-    1 5g4-    1 5g2-    1 5g4-    1 5g2-    1 5g4-
                                   1 5g2-    1 5g4-    1 5g2-    1 5g4-    1 6h4-    1 6h2-    1 6h4-    1 6h2-    1 6h4-    1 6h2-
                                   2 3d2-    2 3d2-    2 3d2-    2 3d2-    2 4f2-    2 4f2-

   1.4   +    -0.5070  -16.5391 -0.000000  0.000000 -0.000002  0.000009 -0.000168 -0.001502  0.004292 -0.006446  0.006196  0.032899
                                 0.000395  0.002653 -0.004226  0.005577  0.028392  0.005767  0.007056 -0.001262  0.001310 -0.000540
                                 0.000251 -0.000075  0.000141 -0.001139  0.016420  0.256336  0.382200  0.382749  0.222675  0.056328
                                 0.022045 -0.001556  0.055490 -0.031796  0.019361 -0.006973  0.000122  0.000001  0.000363  0.000004
                                 0.000865  0.000020  0.004000  0.000037  0.004193  0.000033  0.002718  0.000015 -0.003090  0.000002
                                 0.001515  0.000001 -0.000497 -0.000000  0.000042  0.000100  0.000107  0.000334  0.000137  0.003608
                                 0.007117  0.011574  0.004427  0.000396 -0.005612  0.004135

   2.4   0     0.0115   -1.0442  0.000001 -0.000004  0.000018 -0.000094  0.001736  0.015796 -0.032662  0.012699  0.037644  0.033515
                                -0.004144 -0.030138  0.045377 -0.027902 -0.030973 -0.095641  0.185273 -0.352913  0.483276 -0.672573
                                 1.156454 -1.633223  0.000000 -0.000001  0.000009  0.000148  0.000245  0.000233  0.000036  0.000018
                                -0.000023  0.000486 -0.000894  0.002508 -0.004851  0.008855  0.000001 -0.000000 -0.000002 -0.000000
                                 0.000006 -0.000000 -0.000012 -0.000001  0.000016 -0.000000  0.000157 -0.000002 -0.000099  0.000000
                                 0.000274 -0.000007 -0.000336  0.000004  0.000000  0.000000  0.000000 -0.000001 -0.000000  0.000009
                                -0.000030 -0.000187 -0.000384 -0.000003 -0.000026  0.000236

   3.4   0     0.0332   -1.5051  0.000002 -0.000009  0.000039 -0.000207  0.003830  0.034847 -0.071487  0.026702  0.084830  0.084973
                                -0.009144 -0.066482  0.099827 -0.061729 -0.062810 -0.208929  0.431376 -0.812807  1.159350 -1.665979
                                 3.001389 -1.485227 -0.000000  0.000003 -0.000049 -0.000825 -0.001370 -0.001303 -0.000062 -0.000097
                                 0.000132 -0.000488  0.004023 -0.009132  0.017710 -0.040071  0.000002  0.000000 -0.000009  0.000000
                                 0.000017  0.000000 -0.000045  0.000003  0.000185  0.000004 -0.000066  0.000010  0.000795  0.000002
                                -0.000718  0.000029  0.001331 -0.000013 -0.000000  0.000000 -0.000000 -0.000006  0.000001  0.000005
                                 0.000192  0.000656 -0.001322  0.000017 -0.000128  0.000418

 HOMO      7.1    -0.135741 =      -3.6937eV
 LUMO      8.1     0.000796 =       0.0216eV
 LUMO-HOMO         0.136537 =       3.7154eV

 No convergence



 **********************************************************************************************************************************
 DATASETS  * FILE   NREC   LENGTH (MB)   RECORD NAMES
              1      19       23.19       500      610      700      900      950      970     1000      129      960     1100
                                          VAR    BASINP    GEOM    SYMINP    ZMAT    AOBASIS   BASIS     P2S    ABASIS      S
                                         1400     1410     1420     1200     1210     1080     1600     1650     1700
                                           T        V       ECP      H0       H01     AOSYM     SMH    MOLCAS    OPER

              2       4        4.99       700     1000      520     2100
                                         GEOM     BASIS   MCVARS     RHF

 PROGRAMS   *        TOTAL       RHF       INT
 CPU TIMES  *       361.93    200.19    161.25
 REAL TIME  *       401.43 SEC
 DISK USED  *        21.25 GB
 SF USED    *         0.31 MB
 GA USED    *         0.00 MB       (max)       0.00 MB       (current)
 **********************************************************************************************************************************
   -->
   <time start="10:46:26" end="10:53:07" cpu="361.93" system="38.41" real="401.43"/>
   <storage units="megabyte" memory="8001.84" sf="0.31" df="432.19" eaf="20818.12" ga="0.0"/>
  </jobstep><!--
 SETTING SCF            =      -123.29821401  AU
 SETTING _CC_NORM_MAX   =         2.00000000
  --><jobstep command="RCCSD(T)" commandset="CCSD">
   <!--


 PROGRAM * CCSD (Restricted open-shell coupled cluster)     Authors: C. Hampel, H.-J. Werner, 1991, M. Deegan, P.J. Knowles, 1992


 Convergence thresholds:  THRVAR = 1.00D-08  THRDEN = 1.00D-06

 CCSD(T)     terms to be evaluated (factor= 1.000)


 Number of closed-shell orbitals:   8 (   4   2   2   0 )
 Number of active  orbitals:        8 (   3   2   2   1 )
 Number of external orbitals:     499 ( 196 119 119  65 )

 Memory could be reduced to 771.69 Mwords without degradation in triples

 Number of N-1 electron functions:              24
 Number of N-2 electron functions:             276
 Number of singly external CSFs:              3707
 Number of doubly external CSFs:          13243967
 Total number of CSFs:                    13247674

 Molecular orbitals read from record     2100.2  Type=RHF/CANONICAL (state 1.4)

 ?Error: RHF not converged. This error exit can be avoided using the IGNORE_ERROR option on the ORBITAL directive
   --><error/><!--
  --></jobstep><!--
  -->
  <input>
  <!--
 --></job><!--
--></molpro>
