
 Primary working directories    : /global/cscratch1/sd/haihan
 Secondary working directories  : /global/cscratch1/sd/haihan
 Wavefunction directory         : /global/homes/h/haihan/Research/ECP/f_group_element_ecps/Rh/Molpro/molecules/RhO/AE/wfu/
 Main file repository           : /global/cscratch1/sd/haihan/

 SHA1      : 19cd028119e0e09f93f0674bd8af7968d9b3eff6
 NAME      : 2015.1.36
 ARCHNAME  : linux/x86_64
 FC        : /opt/cray/pe/craype/2.5.14/bin/ftn
 BLASLIB   : -L/opt/intel/compilers_and_libraries_2018.1.163/linux/mkl/lib/intel64 -Wl,-_start-group -lmkl_intel_ilp64 -lmkl_intel_thread -lmkl_core -Wl,-_end-group -liomp5
 id        : lbl

 Nodes     nprocs
 nid01213    11
 Number of processes for MPI-2 version of Molpro:   nprocs(total)=   12   nprocs(compute)=   11   nprocs(helper)=    1

 Using customized tuning parameters: mindgm=7; mindgv=16; mindgc=1; mindgr=1; noblas=0; minvec=7
 default implementation of scratch files=sf  

 ***,Calculation for all-electron YH molecule, SCF and CCSD(T)
 memory,1,g
 gthresh,twoint=1.0E-15
 gthresh,throvl=1.0E-15
 
 set,dkroll=1,dkho=10,dkhp=4
 basis={
 Including file /global/u2/h/haihan/Research/ECP/f_group_element_ecps/Rh/Molpro/molecules/RhO/AE/r_1.70/../generate/Rh-aug-cc-pwCVTZ.basis
 Including file /global/u2/h/haihan/Research/ECP/f_group_element_ecps/Rh/Molpro/molecules/RhO/AE/r_1.70/../generate/O-aug-cc-pwCVTZ.basis
 }
 
 Rh_ccsd=-4782.723260
 O_ccsd=-75.09173839
 
                                                                                 !These are the wf cards parameters
 ne = 53
 symm = 1
 ss= 3
 
                                                                                 !There are irrep cards paramters
 A1=14
 B1=6
 B2=6
 A2=2
 
 
 geometry={
     2
     RhH molecule
     Rh 0.0 0.0 0.0
     O 0.0 0.0 1.70
 }
 {rhf,nitord=20;
  maxit,200;
  wf,ne,symm,ss
  occ,A1,B1,B2,A2
  closed,A1,B1-1,B2-1,A2-1
  print,orbitals=2
 }
 scf=energy
 _CC_NORM_MAX=2.0
 {rccsd(t),shifts=0.5,shiftp=0.5,thrdis=1.0;diis,1,1,15,1;maxit,200;core}
 ccsd=energy
 bind=ccsd-Rh_ccsd-O_ccsd
 
 
 table,1.70,scf,ccsd,bind
 save
 type,csv
 

 Variables initialized (889), CPU time= 0.01 sec
 Commands  initialized (702), CPU time= 0.01 sec, 572 directives.
 Default parameters read. Elapsed time= 0.22 sec

 Checking input...
 Passed
1


                                         ***  PROGRAM SYSTEM MOLPRO  ***
                                       Copyright, TTI GmbH Stuttgart, 2015
                                    Version 2015.1 linked Dec 29 2018 15:55:43


 **********************************************************************************************************************************
 LABEL *   Calculation for all-electron YH molecule, SCF and CCSD(T)                     
  64 bit mpp version                                                                     DATE: 25-Sep-22          TIME: 12:49:51  
 **********************************************************************************************************************************

 SHA1:             19cd028119e0e09f93f0674bd8af7968d9b3eff6
 **********************************************************************************************************************************

 THRESHOLDS:

 ZERO    =  1.00D-12  ONEINT  =  1.00D-12  TWOINT  =  1.00D-15  PREFAC  =  1.00D-14  LOCALI  =  1.00D-09  EORDER  =  1.00D-04
 ENERGY  =  0.00D+00  ETEST   =  0.00D+00  EDENS   =  0.00D+00  THRDEDEF=  1.00D-06  GRADIENT=  1.00D-02  STEP    =  1.00D-03
 ORBITAL =  1.00D-05  CIVEC   =  1.00D-05  COEFF   =  1.00D-04  PRINTCI =  5.00D-02  PUNCHCI =  9.90D+01  OPTGRAD =  3.00D-04
 OPTENERG=  1.00D-06  OPTSTEP =  3.00D-04  THRGRAD =  1.00D-10  COMPRESS=  1.00D-11  VARMIN  =  1.00D-07  VARMAX  =  1.00D-03
 THRDOUB =  0.00D+00  THRDIV  =  1.00D-05  THRRED  =  1.00D-07  THRPSP  =  1.00D+00  THRDC   =  1.00D-10  THRCS   =  1.00D-10
 THRNRM  =  1.00D-08  THREQ   =  0.00D+00  THRDE   =  1.00D+00  THRREF  =  1.00D-05  SPARFAC =  1.00D+00  THRDLP  =  1.00D-07
 THRDIA  =  1.00D-10  THRDLS  =  1.00D-07  THRGPS  =  0.00D+00  THRKEX  =  0.00D+00  THRDIS  =  2.00D-01  THRVAR  =  1.00D-10
 THRLOC  =  1.00D-06  THRGAP  =  1.00D-06  THRLOCT = -1.00D+00  THRGAPT = -1.00D+00  THRORB  =  1.00D-06  THRMLTP =  0.00D+00
 THRCPQCI=  1.00D-10  KEXTA   =  0.00D+00  THRCOARS=  0.00D+00  SYMTOL  =  1.00D-06  GRADTOL =  1.00D-06  THROVL  =  1.00D-08
 THRORTH =  1.00D-08  GRID    =  1.00D-06  GRIDMAX =  1.00D-03  DTMAX   =  0.00D+00  THROCCDE=  1.00D-01  THROCCDE=  1.00D-01



 THRESHOLDS:

 ZERO    =  1.00D-12  ONEINT  =  1.00D-12  TWOINT  =  1.00D-15  PREFAC  =  1.00D-14  LOCALI  =  1.00D-09  EORDER  =  1.00D-04
 ENERGY  =  0.00D+00  ETEST   =  0.00D+00  EDENS   =  0.00D+00  THRDEDEF=  1.00D-06  GRADIENT=  1.00D-02  STEP    =  1.00D-03
 ORBITAL =  1.00D-05  CIVEC   =  1.00D-05  COEFF   =  1.00D-04  PRINTCI =  5.00D-02  PUNCHCI =  9.90D+01  OPTGRAD =  3.00D-04
 OPTENERG=  1.00D-06  OPTSTEP =  3.00D-04  THRGRAD =  1.00D-10  COMPRESS=  1.00D-11  VARMIN  =  1.00D-07  VARMAX  =  1.00D-03
 THRDOUB =  0.00D+00  THRDIV  =  1.00D-05  THRRED  =  1.00D-07  THRPSP  =  1.00D+00  THRDC   =  1.00D-10  THRCS   =  1.00D-10
 THRNRM  =  1.00D-08  THREQ   =  0.00D+00  THRDE   =  1.00D+00  THRREF  =  1.00D-05  SPARFAC =  1.00D+00  THRDLP  =  1.00D-07
 THRDIA  =  1.00D-10  THRDLS  =  1.00D-07  THRGPS  =  0.00D+00  THRKEX  =  0.00D+00  THRDIS  =  2.00D-01  THRVAR  =  1.00D-10
 THRLOC  =  1.00D-06  THRGAP  =  1.00D-06  THRLOCT = -1.00D+00  THRGAPT = -1.00D+00  THRORB  =  1.00D-06  THRMLTP =  0.00D+00
 THRCPQCI=  1.00D-10  KEXTA   =  0.00D+00  THRCOARS=  0.00D+00  SYMTOL  =  1.00D-06  GRADTOL =  1.00D-06  THROVL  =  1.00D-15
 THRORTH =  1.00D-08  GRID    =  1.00D-06  GRIDMAX =  1.00D-03  DTMAX   =  0.00D+00  THROCCDE=  1.00D-01  THROCCDE=  1.00D-01


 SETTING DKROLL         =         1.00000000                                  
 SETTING DKHO           =        10.00000000                                  
 SETTING DKHP           =         4.00000000                                  

 Variable memory set to 1000000000 words,  buffer space   230000 words

 SETTING BASIS          =    USERDEF
 SETTING RH_CCSD        =     -4782.72326000                                  
 SETTING O_CCSD         =       -75.09173839                                  
 SETTING NE             =        53.00000000                                  
 SETTING SYMM           =         1.00000000                                  
 SETTING SS             =         3.00000000                                  
 SETTING A1             =        14.00000000                                  
 SETTING B1             =         6.00000000                                  
 SETTING B2             =         6.00000000                                  
 SETTING A2             =         2.00000000                                  

Geometry recognized as XYZ



 Recomputing integrals since basis changed


 Using spherical harmonics



 PROGRAM * SEWARD (Integral evaluation for generally contracted gaussian basis sets)     Author: Roland Lindh, 1990

 Geometry written to block  1 of record 700


 Point group  C2v 



 ATOMIC COORDINATES

 NR  ATOM    CHARGE       X              Y              Z

   1  RH     45.00    0.000000000    0.000000000    0.000000000
   2  O       8.00    0.000000000    0.000000000    3.212534412

 Bond lengths in Bohr (Angstrom)

 1-2  3.212534412
     ( 1.700000000)

 NUCLEAR CHARGE:                   53
 NUMBER OF PRIMITIVE AOS:         391
 NUMBER OF SYMMETRY AOS:          330
 NUMBER OF CONTRACTIONS:          330   ( 145A1  +  75B1  +  75B2  +  35A2  )
 NUMBER OF CORE ORBITALS:          19   (  10A1  +   4B1  +   4B2  +   1A2  )
 NUMBER OF VALENCE ORBITALS:       10   (   5A1  +   2B1  +   2B2  +   1A2  )


 NUCLEAR REPULSION ENERGY  112.06105643

 One-electron integrals computed with SEWARD

 10nd-order Douglas-Kroll-Hess method activated. McWeeny DKH parametrization is used.

 Computing Douglas-Kroll / X2C integrals

 AO integral compression algorithm  1   Integral accuracy      1.0D-15

     1625.555 MB (compressed) written to integral file ( 44.7%)

     Node minimum: 81.527 MB, node maximum: 239.600 MB


 NUMBER OF SORTED TWO-ELECTRON INTEGRALS:   35099806.     BUFFER LENGTH:  32768
 NUMBER OF SEGMENTS:   2  SEGMENT LENGTH:   31967806      RECORD LENGTH: 524288

 Memory used in sort:      32.52 MW

 SORT1 READ   454841961. AND WROTE    16582271. INTEGRALS IN     48 RECORDS. CPU TIME:     8.11 SEC, REAL TIME:    10.01 SEC
 SORT2 READ   180764323. AND WROTE   386140795. INTEGRALS IN   6149 RECORDS. CPU TIME:     0.84 SEC, REAL TIME:     2.98 SEC

 Node minimum:    35061033.  Node maximum:    35222262. integrals

 OPERATOR DM      FOR CENTER  0  COORDINATES:    0.000000    0.000000    0.000000

 EXTRA SYMMETRY OF AOS IN SYMMETRY 1:   1 1 1 1 1 1 1 1 1 1   1 1 1 1 1 1 1 1 1 1   1 1 1 1 1 1 1 1 1 1   1 1 1 1 1 1 1 1 1 1
                                        1 1 1 1 1 1 1 1 1 1   1 1 1 1 1 1 1 1 2 1   2 1 2 1 2 1 2 1 2 1   2 1 2 1 2 1 2 1 2 1
                                        2 1 2 1 2 1 2 1 2 1   2 1 2 1 2 1 2 1 2 1   2 1 2 1 3 2 1 3 2 1   3 2 1 1 1 1 1 1 1 1
                                        1 1 1 1 1 1 1 1 1 1   1 1 1 1 2 1 2 1 2 1   2 1 2 1 2
 EXTRA SYMMETRY OF AOS IN SYMMETRY 2:   1 1 1 1 1 1 1 1 1 1   1 1 1 1 1 1 1 1 1 1   1 1 1 1 1 1 1 1 1 1   1 1 1 1 1 1 1 1 1 1
                                        1 1 1 1 2 1 2 1 2 1   2 1 2 1 2 1 2 1 2 1   1 1 1 1 1 1 1 1 1 1   1 1 2 1 2
 EXTRA SYMMETRY OF AOS IN SYMMETRY 3:   1 1 1 1 1 1 1 1 1 1   1 1 1 1 1 1 1 1 1 1   1 1 1 1 1 1 1 1 1 1   1 1 1 1 1 1 1 1 1 1
                                        1 1 1 1 2 1 2 1 2 1   2 1 2 1 2 1 2 1 2 1   1 1 1 1 1 1 1 1 1 1   1 1 2 1 2
 EXTRA SYMMETRY OF AOS IN SYMMETRY 4:   1 1 1 1 1 1 1 1 1 1   1 1 1 1 1 1 1 1 1 1   1 1 1 1 2 1 2 1 2 1   1 1 1 1 1

 Eigenvalues of metric

         1 0.116E-07 0.845E-06 0.863E-06 0.262E-05 0.276E-05 0.432E-05 0.577E-05 0.188E-04
         2 0.880E-06 0.273E-05 0.612E-05 0.328E-04 0.482E-04 0.535E-03 0.671E-03 0.147E-02
         3 0.880E-06 0.273E-05 0.612E-05 0.328E-04 0.482E-04 0.535E-03 0.671E-03 0.147E-02
         4 0.276E-05 0.493E-04 0.686E-03 0.161E-02 0.452E-02 0.127E-01 0.271E-01 0.553E-01


 **********************************************************************************************************************************
 DATASETS  * FILE   NREC   LENGTH (MB)   RECORD NAMES
              1      22       22.21       500      610      700      900      950      970     1000      129      960     1700   
                                          VAR    BASINP    GEOM    SYMINP    ZMAT    AOBASIS   BASIS     P2S    ABASIS    OPER   
                                         1101     1401     1411     1412     1650     1100     1400     1410     1200     1210   
                                          SR      EKINR    POTR     PVPR    MOLCAS      S      EKIN      POT      H0       H01  
                                         1080     1600   
                                         AOSYM     SMH  

 PROGRAMS   *        TOTAL       INT
 CPU TIMES  *        47.05     46.90
 REAL TIME  *        53.10 SEC
 DISK USED  *         3.80 GB      
 GA USED    *         0.00 MB       (max)       0.00 MB       (current)
 **********************************************************************************************************************************


 PROGRAM * RHF-SCF (OPEN SHELL)       Authors: W. Meyer, H.-J. Werner


 NUMBER OF ELECTRONS:      28+   25-    SPACE SYMMETRY=1    SPIN SYMMETRY: Quartet 
 CONVERGENCE THRESHOLDS:    1.00E-05 (Density)    1.06E-07 (Energy)
 MAX. NUMBER OF ITERATIONS:      200
 INTERPOLATION TYPE:            DIIS
 INTERPOLATION STEPS:              2 (START)      1 (STEP)
 LEVEL SHIFTS:                 -0.60 (CLOSED) -0.30 (OPEN) 

 Number of closed-shell orbitals:   25 (  14   5   5   1 )
 Number of open-shell orbitals:      3 (   0   1   1   1 )


 Orbital guess generated from atomic densities. Full valence occupancy:   15   6   6   2

 Molecular orbital dump at record        2100.2

 ITERATION    DDIFF          GRAD             ENERGY        2-EL.EN.            DIPOLE MOMENTS         DIIS   ORB.
    1      0.000D+00      0.000D+00     -4843.10144618   3492.156889    0.00000    0.00000   -4.77556    0    start
    2      0.000D+00      0.445D-01     -4846.13893701   4202.906465    0.00000    0.00000    8.65859    1    diag,B
    3      0.837D+00      0.846D-01     -4853.96756795   4055.130123    0.00000    0.00000    1.02155    2    diag,B
    4      0.120D+00      0.361D-01     -4855.42867170   3986.442463    0.00000    0.00000    0.14607    3    diag,B
    5      0.277D-01      0.178D-01     -4855.98796389   3935.689025    0.00000    0.00000   -1.50815    4    diag,B
    6      0.927D-02      0.535D-02     -4856.06020794   3914.754831    0.00000    0.00000   -1.80918    5    diag,B
    7      0.359D-02      0.123D-02     -4856.07119650   3908.252668    0.00000    0.00000   -1.93683    6    diag,B
    8      0.237D-02      0.673D-03     -4856.07482278   3907.597027    0.00000    0.00000   -1.94372    7    diag,B
    9      0.125D-02      0.337D-03     -4856.07671829   3906.673304    0.00000    0.00000   -1.96757    8    diag,B
   10      0.893D-03      0.217D-03     -4856.07772539   3906.202378    0.00000    0.00000   -1.97920    9    orth
   11      0.930D-03      0.150D-03     -4856.07853231   3905.496489    0.00000    0.00000   -2.00033    9    diag,B
   12      0.626D-03      0.108D-03     -4856.07897530   3904.969467    0.00000    0.00000   -2.01479    9    diag,B
   13      0.408D-03      0.762D-04     -4856.07921490   3904.578056    0.00000    0.00000   -2.03080    9    diag,B
   14      0.369D-03      0.562D-04     -4856.07933496   3904.298958    0.00000    0.00000   -2.04676    9    diag,B
   15      0.204D-03      0.432D-04     -4856.07939203   3904.174801    0.00000    0.00000   -2.06219    9    diag,B
   16      0.117D-03      0.402D-04     -4856.07946251   3904.016323    0.00000    0.00000   -2.08670    9    diag,B
   17      0.125D-03      0.358D-04     -4856.07958317   3903.692505    0.00000    0.00000   -2.14037    9    diag,B
   18      0.231D-03      0.224D-04     -4856.07962363   3903.548927    0.00000    0.00000   -2.16963    9    diag,B
   19      0.100D-03      0.185D-04     -4856.07966402   3903.245523    0.00000    0.00000   -2.22028    9    fixocc
   20      0.203D-03      0.948D-05     -4856.07966562   3903.215845    0.00000    0.00000   -2.22510    9    orth
   21      0.482D-04      0.456D-05     -4856.07966626   3903.170621    0.00000    0.00000   -2.23133    9    diag,B
   22      0.270D-04      0.249D-05     -4856.07966635   3903.175409    0.00000    0.00000   -2.23017    9    diag,B
   23      0.137D-04      0.115D-05     -4856.07966636   3903.169824    0.00000    0.00000   -2.23095    9    diag,B
   24      0.605D-05      0.470D-06     -4856.07966636   3903.169609    0.00000    0.00000   -2.23093    0    orth

 Final alpha occupancy:  14   6   6   2
 Final beta  occupancy:  14   5   5   1

 !RHF STATE 1.1 Energy              -4856.079666358517
 Nuclear energy                       112.06105643
 One-electron energy                -6919.72552730
 Two-electron energy                 1951.58480451
 Virial quotient                       -0.89125059
 !RHF STATE 1.1 Dipole moment           0.00000000     0.00000000    -2.23093050
 Dipole moment /Debye                   0.00000000     0.00000000    -5.67008834

 ELECTRON ORBITALS
 =================


   Orb  Occ    Energy  Couls-En    Coefficients

                                   1 1s      1 1s      1 1s      1 1s      1 1s      1 1s      1 1s      1 1s      1 1s      1 1s   
                                   1 1s      1 1s      1 1s      1 1s      1 1s      1 1s      1 1s      1 1s      1 1s      1 1s   
                                   1 1s      1 1s      1 1s      1 1s      1 1s      1 1s      1 1s      1 1s      1 1s      1 1s   
                                   1 1s      1 1s      1 2pz     1 2pz     1 2pz     1 2pz     1 2pz     1 2pz     1 2pz     1 2pz  
                                   1 2pz     1 2pz     1 2pz     1 2pz     1 2pz     1 2pz     1 2pz     1 2pz     1 2pz     1 2pz  
                                   1 2pz     1 2pz     1 2pz     1 2pz     1 2pz     1 2pz     1 2pz     1 3d0     1 3d2+    1 3d0  
                                   1 3d2+    1 3d0     1 3d2+    1 3d0     1 3d2+    1 3d0     1 3d2+    1 3d0     1 3d2+    1 3d0  
                                   1 3d2+    1 3d0     1 3d2+    1 3d0     1 3d2+    1 3d0     1 3d2+    1 3d0     1 3d2+    1 3d0  
                                   1 3d2+    1 3d0     1 3d2+    1 3d0     1 3d2+    1 3d0     1 3d2+    1 3d0     1 3d2+    1 3d0  
                                   1 3d2+    1 3d0     1 3d2+    1 4f0     1 4f2+    1 4f0     1 4f2+    1 4f0     1 4f2+    1 4f0  
                                   1 4f2+    1 4f0     1 4f2+    1 5g0     1 5g4+    1 5g2+    1 5g0     1 5g4+    1 5g2+    1 5g0  
                                   1 5g4+    1 5g2+    2 1s      2 1s      2 1s      2 1s      2 1s      2 1s      2 1s      2 1s   
                                   2 1s      2 1s      2 1s      2 1s      2 1s      2 2pz     2 2pz     2 2pz     2 2pz     2 2pz  
                                   2 2pz     2 2pz     2 2pz     2 3d0     2 3d2+    2 3d0     2 3d2+    2 3d0     2 3d2+    2 3d0  
                                   2 3d2+    2 4f0     2 4f2+    2 4f0     2 4f2+ 

   1.1   2  -857.8932-1901.5573  0.000045  0.000122  0.000335  0.000765  0.001628  0.003290  0.006567  0.013170  0.026884  0.055549
                                 0.112517  0.208271  0.308815  0.297914 -0.004400  0.130171  0.011230  0.004377 -0.010077  0.057789
                                -0.076367  0.038857 -0.017032  0.005362 -0.001681  0.000820 -0.000179  0.000092 -0.000046  0.000026
                                -0.000005  0.000001 -0.000000 -0.000000 -0.000000 -0.000000 -0.000000 -0.000000 -0.000001 -0.000002
                                -0.000002 -0.000000  0.000000 -0.000005  0.000007 -0.000005  0.000015 -0.000019  0.000010 -0.000014
                                 0.000012 -0.000002 -0.000001  0.000002  0.000004  0.000001 -0.000000 -0.000000 -0.000000  0.000000
                                 0.000000  0.000000 -0.000000  0.000000 -0.000000 -0.000000  0.000000 -0.000000 -0.000000  0.000000
                                 0.000000 -0.000001 -0.000000  0.000009  0.000000 -0.000017 -0.000000  0.000015  0.000000 -0.000015
                                -0.000000  0.000023  0.000000 -0.000019 -0.000000  0.000004  0.000000 -0.000000 -0.000000  0.000001
                                 0.000000 -0.000000 -0.000000 -0.000000 -0.000000  0.000002  0.000000 -0.000002 -0.000000  0.000000
                                 0.000000  0.000000 -0.000000  0.000000  0.000000  0.000000 -0.000000  0.000000 -0.000000  0.000000
                                 0.000000  0.000000 -0.000000  0.000000 -0.000000  0.000000 -0.000000  0.000000  0.000000 -0.000001
                                 0.000000 -0.000001 -0.000008  0.000000 -0.000000 -0.000000 -0.000000  0.000000  0.000000  0.000001
                                 0.000003  0.000000  0.000000 -0.000000  0.000000  0.000000 -0.000000 -0.000000  0.000000 -0.000000
                                 0.000000 -0.000000 -0.000000 -0.000000  0.000000

   2.1   2  -127.4724 -389.6675 -0.000015 -0.000041 -0.000113 -0.000258 -0.000550 -0.001115 -0.002238 -0.004529 -0.009382 -0.019887
                                -0.042213 -0.085438 -0.150305 -0.190844  0.002600 -0.066966  0.308959  0.553420  0.266790  0.112631
                                -0.129216  0.099591 -0.048104  0.017421 -0.006040  0.002923 -0.000726  0.000368 -0.000189  0.000106
                                -0.000020  0.000004 -0.000000 -0.000000 -0.000000 -0.000000 -0.000001 -0.000004 -0.000011 -0.000030
                                -0.000070 -0.000127 -0.000163 -0.000163  0.000047 -0.000055  0.000059 -0.000077  0.000039 -0.000056
                                 0.000049 -0.000008 -0.000002  0.000007  0.000015  0.000004 -0.000002 -0.000000 -0.000000 -0.000000
                                -0.000000 -0.000001 -0.000000 -0.000001 -0.000000 -0.000016 -0.000000 -0.000019 -0.000000  0.000003
                                 0.000000 -0.000010 -0.000000  0.000066  0.000000 -0.000107 -0.000000  0.000081  0.000000 -0.000068
                                -0.000000  0.000098  0.000000 -0.000077 -0.000000  0.000015  0.000000 -0.000002 -0.000000  0.000006
                                -0.000000 -0.000001  0.000000 -0.000000  0.000000  0.000007 -0.000000 -0.000007  0.000000  0.000001
                                -0.000000  0.000002  0.000000 -0.000001 -0.000004 -0.000000 -0.000001  0.000001  0.000000  0.000001
                                -0.000001 -0.000000 -0.000000 -0.000000 -0.000000 -0.000000 -0.000000  0.000000 -0.000001 -0.000002
                                 0.000001 -0.000005 -0.000033  0.000002 -0.000000 -0.000000 -0.000001  0.000001 -0.000000  0.000005
                                 0.000011  0.000001  0.000000 -0.000000 -0.000000  0.000001 -0.000000 -0.000002  0.000000 -0.000000
                                 0.000000 -0.000001  0.000000 -0.000001 -0.000000

   3.1   2  -114.0395 -370.5671 -0.000000 -0.000000 -0.000000 -0.000000 -0.000000 -0.000001 -0.000001 -0.000002 -0.000005 -0.000010
                                -0.000021 -0.000042 -0.000074 -0.000095  0.000002 -0.000032  0.000171  0.000278  0.000071  0.000337
                                -0.000491  0.000327 -0.000198  0.000094 -0.000062  0.000049 -0.000033  0.000042 -0.000033  0.000017
                                 0.000000 -0.000000  0.000016  0.000055  0.000203  0.000713  0.002485  0.008366  0.026118  0.072484
                                 0.167218  0.296008  0.348854  0.212839  0.000903  0.050257  0.007497 -0.004586  0.002547 -0.002472
                                 0.002075 -0.000476  0.000079 -0.000030  0.000011 -0.000002  0.000000 -0.000000  0.000000 -0.000000
                                 0.000000 -0.000002  0.000000 -0.000007  0.000000 -0.000019  0.000000 -0.000023  0.000000 -0.000006
                                 0.000000 -0.000002  0.000000 -0.000005 -0.000000  0.000013  0.000000 -0.000015 -0.000000  0.000015
                                 0.000000 -0.000014 -0.000000  0.000006  0.000000  0.000009 -0.000000 -0.000011  0.000000  0.000003
                                -0.000000 -0.000001  0.000000 -0.000010 -0.000000  0.000024  0.000000 -0.000023 -0.000000  0.000005
                                 0.000000 -0.000004 -0.000000  0.000000  0.000000 -0.000000  0.000000 -0.000000 -0.000000  0.000001
                                 0.000000  0.000000 -0.000000  0.000000 -0.000000  0.000000 -0.000000  0.000004  0.000010  0.000007
                                -0.000006  0.000012 -0.000011 -0.000009 -0.000007  0.000000  0.000000 -0.000000  0.000004 -0.000003
                                 0.000005 -0.000000 -0.000000 -0.000000 -0.000000 -0.000003  0.000000 -0.000001  0.000000  0.000000
                                 0.000000 -0.000000  0.000000  0.000002 -0.000000

   4.1   2   -24.1587 -134.0385  0.000007  0.000018  0.000049  0.000111  0.000237  0.000481  0.000965  0.001956  0.004059  0.008641
                                 0.018449  0.037883  0.068231  0.092166 -0.003570  0.035071 -0.204827 -0.489388 -0.317150  0.276147
                                -0.064801  0.473119  0.367448  0.293189  0.054639 -0.005178  0.002800 -0.000826  0.000399 -0.000252
                                 0.000043 -0.000010  0.000000  0.000000  0.000000  0.000001  0.000002  0.000008  0.000024  0.000067
                                 0.000162  0.000302  0.000370  0.000143 -0.000045 -0.000483 -0.000925 -0.000225 -0.000698 -0.000118
                                 0.000042 -0.000074  0.000032 -0.000086 -0.000038 -0.000011  0.000004  0.000000  0.000000  0.000000
                                -0.000000  0.000002 -0.000000  0.000004 -0.000000  0.000025 -0.000000  0.000049 -0.000000  0.000025
                                -0.000000 -0.000136 -0.000000 -0.000649 -0.000000  0.000721  0.000000 -0.000398 -0.000000  0.000312
                                 0.000000 -0.000423 -0.000000  0.000321  0.000000 -0.000072 -0.000000 -0.000017  0.000000 -0.000014
                                 0.000000  0.000003 -0.000000  0.000054 -0.000000 -0.000211  0.000000  0.000184 -0.000000 -0.000021
                                -0.000000 -0.000011 -0.000000 -0.000014 -0.000046 -0.000000  0.000028  0.000082  0.000000 -0.000013
                                -0.000019 -0.000000  0.000000  0.000000  0.000000  0.000000  0.000000  0.000007  0.000022  0.000015
                                -0.000012  0.000060  0.000091 -0.000023 -0.000011  0.000000  0.000005 -0.000003 -0.000002 -0.000036
                                -0.000026 -0.000004 -0.000000  0.000002 -0.000000 -0.000006  0.000000  0.000008  0.000000 -0.000000
                                 0.000000  0.000004  0.000000  0.000007 -0.000000

   5.1   2   -20.5655  -66.5242  0.000000  0.000000  0.000000  0.000000  0.000000  0.000000  0.000000  0.000000  0.000000  0.000000
                                 0.000000  0.000001  0.000001  0.000002 -0.000001  0.000002 -0.000004 -0.000008  0.000011 -0.000507
                                 0.001080 -0.001308  0.001466 -0.001196  0.001257 -0.000867 -0.000610  0.004684 -0.012939 -0.002112
                                -0.000904  0.000238 -0.000000 -0.000000 -0.000000 -0.000000  0.000000 -0.000000  0.000000 -0.000004
                                 0.000007 -0.000036  0.000123 -0.001615  0.002366 -0.001848  0.006951 -0.009693  0.006472 -0.013717
                                 0.015461 -0.006519  0.003695 -0.009079 -0.002552  0.000057  0.000016 -0.000000  0.000000  0.000000
                                 0.000000 -0.000000  0.000000  0.000001  0.000000 -0.000005  0.000000  0.000007  0.000000 -0.000036
                                 0.000000  0.000099  0.000000 -0.001062  0.000000  0.001604 -0.000000 -0.000955  0.000000  0.000684
                                -0.000000 -0.001701  0.000000  0.001619 -0.000000 -0.000361  0.000000 -0.004145 -0.000000 -0.000166
                                 0.000000  0.000040 -0.000000  0.000077  0.000000 -0.000621 -0.000000  0.000601  0.000000  0.000072
                                -0.000000 -0.001223 -0.000000 -0.000051  0.000000 -0.000000  0.000129  0.000000  0.000000  0.000021
                                 0.000000 -0.000000  0.000743  0.004238  0.020741  0.079672  0.231857  0.425474  0.336359  0.042661
                                -0.012538  0.014927  0.004330  0.008404  0.012702 -0.000063 -0.000125 -0.000547  0.000703 -0.007922
                                -0.001199 -0.000437 -0.000015  0.000089 -0.000000  0.000059 -0.000000  0.002234 -0.000000 -0.000024
                                 0.000000  0.000098  0.000000 -0.000167  0.000000

   6.1   2   -19.6147 -125.9284  0.000000  0.000000  0.000000  0.000000  0.000001  0.000001  0.000002  0.000005  0.000010  0.000020
                                 0.000044  0.000090  0.000161  0.000227 -0.000023  0.000097 -0.000519 -0.001176 -0.000930  0.002704
                                -0.003271  0.004051 -0.001292  0.001495 -0.000724  0.000592 -0.000374  0.000194  0.000136 -0.000109
                                 0.000020 -0.000005 -0.000007 -0.000025 -0.000091 -0.000320 -0.001118 -0.003789 -0.011974 -0.034032
                                -0.081593 -0.152304 -0.185114 -0.030133 -0.003566  0.296896  0.489058  0.010751  0.284544  0.039118
                                 0.008050  0.000229  0.000790  0.000052 -0.000047 -0.000006  0.000001 -0.000000  0.000000 -0.000001
                                 0.000000 -0.000008  0.000000 -0.000035  0.000000 -0.000108  0.000000 -0.000253  0.000000 -0.000422
                                 0.000000 -0.000529  0.000000 -0.000337  0.000000  0.000041 -0.000000  0.000081  0.000000 -0.000245
                                 0.000000  0.000554  0.000000 -0.000554 -0.000000  0.000215  0.000000 -0.000061 -0.000000 -0.000017
                                -0.000000  0.000000 -0.000000 -0.000435 -0.000000  0.001672  0.000000 -0.001402 -0.000000  0.000216
                                 0.000000 -0.000050 -0.000000  0.000009 -0.000001 -0.000000 -0.000022 -0.000000  0.000000  0.000026
                                -0.000000  0.000000 -0.000000 -0.000000 -0.000001 -0.000002 -0.000007 -0.000017 -0.000032 -0.000008
                                -0.000021 -0.000068  0.000009  0.000027  0.000010 -0.000001 -0.000011  0.000005  0.000051  0.000102
                                 0.000006  0.000008  0.000000 -0.000007  0.000000 -0.000015 -0.000000 -0.000052  0.000000  0.000001
                                -0.000000 -0.000012  0.000000  0.000003  0.000000

   7.1   2   -12.3677 -114.1009  0.000000  0.000000  0.000000 -0.000000  0.000000  0.000000  0.000000  0.000000  0.000000  0.000000
                                 0.000000  0.000000  0.000000  0.000000  0.000000 -0.000000 -0.000000 -0.000000  0.000000 -0.000000
                                 0.000000 -0.000000  0.000000 -0.000000  0.000000 -0.000000  0.000000 -0.000000  0.000000 -0.000000
                                 0.000000 -0.000000  0.000000 -0.000000  0.000000  0.000000  0.000000  0.000000  0.000000  0.000000
                                 0.000000  0.000000  0.000000 -0.000000  0.000000 -0.000000 -0.000000 -0.000000 -0.000000 -0.000000
                                 0.000000 -0.000000 -0.000000  0.000000 -0.000000  0.000000 -0.000000  0.000000  0.000149  0.000000
                                 0.001274  0.000000  0.007720  0.000000  0.031725  0.000000  0.096231  0.000000  0.214120  0.000000
                                 0.329744  0.000000  0.338648  0.000000  0.195470 -0.000000 -0.017317  0.000000  0.034339  0.000000
                                 0.018261 -0.000000 -0.006810  0.000000  0.005625 -0.000000 -0.000501  0.000000  0.000191 -0.000000
                                -0.000051  0.000000  0.000015 -0.000000 -0.000606  0.000000  0.001723 -0.000000 -0.001505  0.000000
                                 0.000149 -0.000000 -0.000049 -0.000000 -0.000000 -0.000006  0.000000 -0.000000 -0.000006 -0.000000
                                -0.000000 -0.000012  0.000000  0.000000  0.000000  0.000000  0.000000  0.000000 -0.000000 -0.000000
                                -0.000000 -0.000000  0.000000  0.000000  0.000000 -0.000000 -0.000000  0.000000  0.000000  0.000000
                                -0.000000  0.000000  0.000000 -0.000000  0.000001 -0.000000 -0.000005 -0.000000  0.000009  0.000000
                                -0.000000 -0.000000  0.000000  0.000000  0.000003

   8.1   2   -12.3532 -114.0832  0.000000  0.000000  0.000000  0.000000  0.000000  0.000000  0.000001  0.000001  0.000002  0.000005
                                 0.000011  0.000022  0.000040  0.000057 -0.000006  0.000025 -0.000150 -0.000369 -0.000220  0.000511
                                -0.000189  0.001099  0.000081 -0.000655 -0.000605  0.000409 -0.000186  0.000167  0.000222 -0.000387
                                -0.000041  0.000012 -0.000000 -0.000000 -0.000000 -0.000000 -0.000001 -0.000005 -0.000016 -0.000045
                                -0.000106 -0.000202 -0.000240 -0.000120  0.000110  0.000329  0.001176 -0.000661  0.000779 -0.000620
                                 0.000788 -0.000385  0.000065  0.000147 -0.000259 -0.000016  0.000006  0.000149 -0.000000  0.001273
                                -0.000000  0.007715 -0.000000  0.031700 -0.000000  0.096155 -0.000000  0.213946 -0.000000  0.329542
                                -0.000000  0.338621 -0.000000  0.195442 -0.000000 -0.016853  0.000000  0.034384 -0.000000  0.018594
                                -0.000000 -0.006916  0.000000  0.005608 -0.000000 -0.000401  0.000000  0.000129 -0.000000 -0.000132
                                 0.000000  0.000023 -0.000000 -0.000752  0.000000  0.002156 -0.000000 -0.001933  0.000000  0.000255
                                -0.000000 -0.000107  0.000000 -0.000091  0.000079 -0.000000  0.000112 -0.000111  0.000000 -0.000028
                                 0.000020 -0.000000 -0.000000 -0.000000 -0.000000 -0.000000 -0.000001 -0.000004 -0.000021 -0.000015
                                 0.000026 -0.000054  0.000292  0.000029  0.000005 -0.000001 -0.000010  0.000001  0.000032  0.000109
                                -0.000068  0.000007  0.000000 -0.000006 -0.000000 -0.000030  0.000000 -0.000063  0.000000  0.000001
                                 0.000000 -0.000008  0.000000  0.000017 -0.000000

   9.1   2    -3.8147  -54.5411 -0.000003 -0.000007 -0.000020 -0.000046 -0.000097 -0.000197 -0.000396 -0.000803 -0.001668 -0.003548
                                -0.007598 -0.015599 -0.028377 -0.037680 -0.000048 -0.013451  0.089335  0.237843  0.122688  0.272173
                                -0.681729  0.253835 -0.866996 -0.025254 -0.081267  0.873930  0.496237  0.009462  0.017503 -0.012553
                                 0.001619 -0.000402 -0.000000 -0.000000 -0.000000 -0.000001 -0.000004 -0.000014 -0.000044 -0.000122
                                -0.000306 -0.000545 -0.000777  0.001008 -0.001591  0.002684 -0.002754  0.007686 -0.003617  0.007040
                                -0.008522 -0.002664 -0.007213 -0.004629 -0.002416 -0.000776  0.000259 -0.000000  0.000000 -0.000003
                                 0.000000 -0.000016  0.000000 -0.000067  0.000000 -0.000211  0.000000 -0.000472  0.000000 -0.000671
                                 0.000000 -0.000615  0.000000  0.001936 -0.000000 -0.002477  0.000000  0.002473 -0.000000  0.001355
                                 0.000000 -0.000728 -0.000000  0.004243  0.000000 -0.002445  0.000000 -0.001118  0.000000 -0.000888
                                 0.000000  0.000111  0.000000  0.000056 -0.000000 -0.001563  0.000000  0.001449 -0.000000 -0.000551
                                 0.000000 -0.000469 -0.000000 -0.000030  0.000149  0.000000  0.000443  0.000573  0.000000 -0.000003
                                 0.000599  0.000000 -0.000002 -0.000010 -0.000048 -0.000189 -0.000595 -0.001203 -0.001300  0.000971
                                 0.004390  0.006145  0.006071 -0.000229 -0.000232 -0.000092 -0.000663 -0.001844 -0.004434 -0.004196
                                -0.001522 -0.000029 -0.000016  0.000475 -0.000000  0.001774 -0.000000  0.000916  0.000000  0.000024
                                -0.000000 -0.000362 -0.000000 -0.000255  0.000000

  10.1   2    -2.4475  -48.9902 -0.000000 -0.000000 -0.000000 -0.000001 -0.000001 -0.000002 -0.000004 -0.000009 -0.000018 -0.000039
                                -0.000083 -0.000175 -0.000304 -0.000506  0.000158 -0.000291  0.001188  0.002178  0.004467 -0.032713
                                 0.052031 -0.046582  0.026880 -0.022418  0.019167 -0.001422  0.015218 -0.020225 -0.007388 -0.013080
                                -0.002918  0.000680  0.000003  0.000009  0.000035  0.000123  0.000429  0.001456  0.004608  0.013167
                                 0.031744  0.060005  0.072985  0.006463 -0.003532 -0.152257 -0.290803 -0.007146 -0.134834  0.337429
                                 0.000867  0.544762  0.286822  0.019413 -0.009957 -0.000714  0.000209  0.000000  0.000000  0.000003
                                 0.000000  0.000021  0.000000  0.000082  0.000000  0.000273  0.000000  0.000558  0.000000  0.001015
                                 0.000000  0.000379  0.000000  0.007274 -0.000000 -0.013322  0.000000  0.010433 -0.000000 -0.010977
                                 0.000000  0.004643 -0.000000 -0.004643  0.000000 -0.007366 -0.000000 -0.002440 -0.000000 -0.002118
                                -0.000000  0.000142  0.000000  0.001425  0.000000 -0.006984 -0.000000  0.009673  0.000000 -0.000364
                                 0.000000 -0.001137  0.000000 -0.000100 -0.000007 -0.000000  0.000495 -0.000002  0.000000 -0.000540
                                 0.000003  0.000000 -0.000011 -0.000061 -0.000302 -0.001182 -0.003734 -0.007768 -0.008913  0.007964
                                 0.031909  0.026136  0.016271 -0.001152 -0.001280 -0.000519 -0.003794 -0.011510 -0.022818 -0.016248
                                -0.003605 -0.000286 -0.000096  0.001830 -0.000000  0.007002 -0.000000  0.003217 -0.000000  0.000101
                                -0.000000 -0.001372 -0.000000 -0.001238  0.000000

  11.1   2    -1.1990  -23.6268 -0.000000 -0.000001 -0.000002 -0.000004 -0.000008 -0.000015 -0.000031 -0.000062 -0.000129 -0.000274
                                -0.000589 -0.001205 -0.002212 -0.002805 -0.000215 -0.000856  0.006733  0.019424  0.005453  0.071595
                                -0.137916  0.087788 -0.125143  0.029104 -0.032942  0.117599  0.058559 -0.044022  0.058133  0.020207
                                 0.012257 -0.002642  0.000000  0.000001  0.000005  0.000019  0.000066  0.000223  0.000704  0.002021
                                 0.004849  0.009251  0.010986  0.003589 -0.004537 -0.020522 -0.059168  0.018172 -0.034717  0.096834
                                -0.045919  0.122370  0.020730  0.045169  0.020388  0.002816 -0.000604  0.000007 -0.000000  0.000060
                                -0.000000  0.000365 -0.000000  0.001505 -0.000000  0.004627 -0.000000  0.010342 -0.000000  0.015586
                                -0.000000  0.014030 -0.000000  0.001150 -0.000000 -0.007579  0.000000 -0.009743  0.000000 -0.040996
                                 0.000000  0.012266 -0.000000 -0.072835  0.000000 -0.035021  0.000000  0.016028  0.000000  0.001961
                                 0.000000  0.000236 -0.000000 -0.004001 -0.000000  0.011514  0.000000 -0.016416 -0.000000 -0.005979
                                -0.000000  0.005764 -0.000000 -0.000172  0.000002  0.000000 -0.001965  0.000019 -0.000000 -0.001206
                                 0.000126  0.000000  0.000161  0.000919  0.004557  0.017870  0.056788  0.118069  0.133221 -0.167470
                                -0.536419 -0.431665 -0.066398  0.030899  0.022910  0.000887  0.006444  0.019884  0.043069  0.077241
                                 0.011824  0.000399  0.000161 -0.001848  0.000000 -0.012157  0.000000 -0.018878  0.000000 -0.000179
                                 0.000000  0.001178 -0.000000  0.002681 -0.000000

  12.1   2    -0.5687  -27.7311 -0.000000 -0.000000 -0.000001 -0.000002 -0.000004 -0.000009 -0.000017 -0.000035 -0.000073 -0.000154
                                -0.000334 -0.000673 -0.001269 -0.001374 -0.000492 -0.000151  0.003356  0.012144 -0.004235  0.124578
                                -0.217711  0.162632 -0.153881  0.064250 -0.058108  0.099682  0.015110 -0.003516  0.038772  0.049744
                                 0.009481 -0.003262  0.000000  0.000001  0.000003  0.000009  0.000033  0.000112  0.000357  0.001009
                                 0.002471  0.004566  0.005933 -0.003298  0.005201 -0.016472 -0.007152 -0.023239  0.003932  0.011094
                                 0.018581  0.052815  0.013484  0.024476  0.011573  0.000170 -0.001561  0.000029  0.000000  0.000250
                                 0.000000  0.001527  0.000000  0.006294  0.000000  0.019366  0.000000  0.043305  0.000000  0.065134
                                 0.000000  0.058325  0.000000 -0.001076  0.000000 -0.027513 -0.000000 -0.048095 -0.000000 -0.177222
                                -0.000000  0.025492  0.000000 -0.278842 -0.000000 -0.165237 -0.000000 -0.072003 -0.000000 -0.014264
                                -0.000000 -0.000093  0.000000 -0.003815  0.000000  0.012352 -0.000000 -0.016499  0.000000 -0.002398
                                 0.000000  0.005010  0.000000 -0.000160  0.000133  0.000000 -0.002181  0.000104 -0.000000 -0.002608
                                 0.000497 -0.000000 -0.000033 -0.000187 -0.000929 -0.003642 -0.011638 -0.024052 -0.026610  0.042177
                                 0.120657  0.120966 -0.003913 -0.008430 -0.005427  0.008363  0.061340  0.210869  0.335656  0.238932
                                 0.030579  0.007298  0.001673 -0.006549 -0.000000 -0.022342 -0.000000 -0.013648 -0.000000 -0.000352
                                -0.000000  0.002975  0.000000  0.003881  0.000000

  13.1   2    -0.4986  -36.4726 -0.000000 -0.000000 -0.000000 -0.000000 -0.000000 -0.000000 -0.000000 -0.000000 -0.000000 -0.000000
                                -0.000000 -0.000000 -0.000000  0.000000 -0.000000  0.000000  0.000000  0.000000 -0.000000  0.000000
                                -0.000000  0.000000 -0.000000  0.000000 -0.000000  0.000000 -0.000000  0.000000  0.000000  0.000000
                                 0.000000 -0.000000  0.000000  0.000000  0.000000  0.000000  0.000000  0.000000  0.000000  0.000000
                                 0.000000  0.000000  0.000000  0.000000 -0.000000 -0.000000 -0.000000  0.000000 -0.000000  0.000000
                                -0.000000  0.000000 -0.000000  0.000000  0.000000  0.000000 -0.000000  0.000000 -0.000046  0.000000
                                -0.000389  0.000000 -0.002388  0.000000 -0.009795  0.000000 -0.030300  0.000000 -0.067319  0.000000
                                -0.102396  0.000000 -0.087332 -0.000000 -0.044627  0.000000  0.126375 -0.000000  0.009009 -0.000000
                                 0.331670 -0.000000 -0.076649 -0.000000  0.447447 -0.000000  0.255398 -0.000000  0.147249 -0.000000
                                 0.038632  0.000000 -0.003422 -0.000000 -0.002581  0.000000  0.005487 -0.000000 -0.008616 -0.000000
                                -0.006917  0.000000 -0.010821 -0.000000  0.000000 -0.000238 -0.000000  0.000000  0.000155 -0.000000
                                 0.000000  0.001206 -0.000000 -0.000000 -0.000000 -0.000000 -0.000000 -0.000000 -0.000000  0.000000
                                 0.000000  0.000000 -0.000000  0.000000  0.000000  0.000000  0.000000  0.000000  0.000000  0.000000
                                 0.000000  0.000000  0.000000 -0.000000  0.000909 -0.000000  0.004085 -0.000000  0.001692 -0.000000
                                 0.000070  0.000000 -0.000805  0.000000 -0.001333

  14.1   2    -0.3259  -25.7628  0.000001  0.000002  0.000004  0.000010  0.000021  0.000042  0.000085  0.000173  0.000359  0.000763
                                 0.001637  0.003357  0.006131  0.008022  0.000214  0.002728 -0.019252 -0.053101 -0.023118 -0.109717
                                 0.234597 -0.119247  0.259537 -0.020748  0.026291 -0.294963 -0.260784  0.020587  0.240229  0.349206
                                 0.065486  0.001915 -0.000000 -0.000001 -0.000004 -0.000013 -0.000047 -0.000159 -0.000502 -0.001443
                                -0.003456 -0.006615 -0.007792 -0.003211  0.004292  0.013924  0.047353 -0.019901  0.030457 -0.089723
                                 0.052235 -0.102270 -0.018794  0.048925  0.020427 -0.013060  0.002982  0.000027  0.000000  0.000225
                                 0.000000  0.001382  0.000000  0.005664  0.000000  0.017544  0.000000  0.038919  0.000000  0.059349
                                 0.000000  0.050116  0.000000  0.029823  0.000000 -0.080041 -0.000000 -0.001451  0.000000 -0.194318
                                -0.000000  0.044593  0.000000 -0.264283 -0.000000 -0.142045 -0.000000 -0.108734 -0.000000 -0.052905
                                 0.000000 -0.001224 -0.000000  0.006476 -0.000000 -0.009260  0.000000  0.016433 -0.000000  0.020350
                                 0.000000  0.021249 -0.000000  0.000591  0.000306  0.000000  0.000135  0.000293  0.000000  0.001663
                                 0.000259 -0.000000  0.000003  0.000019  0.000095  0.000360  0.001225  0.001774  0.000098 -0.008484
                                -0.011542 -0.027462 -0.011347  0.004043  0.002027 -0.006050 -0.044638 -0.153368 -0.243464 -0.205889
                                -0.043053 -0.005069 -0.001197 -0.000807 -0.000000 -0.003143 -0.000000  0.000523 -0.000000 -0.000066
                                -0.000000  0.001063 -0.000000  0.001780  0.000000

  15.1   0    -0.0175  -12.5214  0.000000  0.000000  0.000001  0.000003  0.000006  0.000012  0.000023  0.000047  0.000098  0.000209
                                 0.000443  0.000926  0.001630  0.002573 -0.000632  0.001358 -0.006047 -0.012230 -0.019687  0.123296
                                -0.189945  0.170983 -0.079596  0.081151 -0.062475 -0.016172 -0.107862  0.051782 -0.098508  0.232011
                                -0.001677  0.625724  0.000000  0.000001  0.000005  0.000017  0.000060  0.000205  0.000646  0.001851
                                 0.004449  0.008471  0.010135  0.002533 -0.003126 -0.019929 -0.051719  0.011911 -0.028515  0.085737
                                -0.032062  0.114787  0.044236 -0.074364 -0.212979 -0.171863 -0.248429 -0.000011  0.000000 -0.000089
                                 0.000000 -0.000552  0.000000 -0.002251  0.000000 -0.007003  0.000000 -0.015448  0.000000 -0.023808
                                 0.000000 -0.019252  0.000000 -0.023738  0.000000  0.053095 -0.000000 -0.019665  0.000000  0.097736
                                -0.000000 -0.050522  0.000000  0.131964 -0.000000  0.046005 -0.000000  0.059061 -0.000000  0.056105
                                -0.000000  0.107694 -0.000000 -0.002975 -0.000000  0.005218 -0.000000 -0.008214  0.000000 -0.007231
                                 0.000000 -0.014099  0.000000 -0.000445  0.000227 -0.000000 -0.000526  0.000498 -0.000000 -0.002682
                                -0.000386 -0.000000  0.000010  0.000055  0.000272  0.001076  0.003369  0.007726  0.010513 -0.008008
                                -0.041800 -0.025222  0.001464 -0.000795  0.000149  0.002586  0.019040  0.066557  0.105597  0.089593
                                 0.006724  0.002326  0.000522  0.000965 -0.000000  0.002922  0.000000  0.007790  0.000000  0.000065
                                 0.000000 -0.000575  0.000000 -0.001285  0.000000

  16.1   0     0.0324   -7.5480  0.000000  0.000000  0.000001  0.000003  0.000006  0.000011  0.000023  0.000045  0.000098  0.000194
                                 0.000455  0.000818  0.001886 -0.000336  0.004442 -0.003184  0.000044 -0.028078  0.079223 -1.008283
                                 1.688737 -1.346473  1.044794 -0.581923  0.504683 -0.525012  0.301703 -0.561308  0.691209 -1.181065
                                 1.625254 -1.181868  0.000000  0.000001  0.000003  0.000011  0.000041  0.000135  0.000439  0.001212
                                 0.003059  0.005383  0.007952 -0.013385  0.020201 -0.031419  0.037352 -0.095382  0.053816 -0.106253
                                 0.162742  0.002424  0.081927 -0.242028 -0.063815 -1.052050  1.334059 -0.000007  0.000000 -0.000059
                                 0.000000 -0.000358  0.000000 -0.001478  0.000000 -0.004541  0.000000 -0.010180  0.000000 -0.015238
                                 0.000000 -0.013849  0.000000  0.005328 -0.000000 -0.003355  0.000000  0.023974 -0.000000  0.026933
                                 0.000000  0.022108 -0.000000  0.047792  0.000000  0.014765 -0.000000  0.001614 -0.000000  0.022725
                                -0.000000 -0.126721  0.000000 -0.001358  0.000000 -0.004653 -0.000000  0.004815  0.000000 -0.016680
                                 0.000000 -0.014507  0.000000 -0.000195  0.000171 -0.000000 -0.000403  0.000322 -0.000000 -0.004976
                                -0.000450 -0.000000  0.000009  0.000052  0.000263  0.001000  0.003365  0.004978  0.001290 -0.016054
                                -0.040990  0.002812  0.562071  0.009224  0.005079  0.001532  0.011171  0.040363  0.063380 -0.059829
                                -0.095999  0.001555  0.000319  0.000015 -0.000000  0.011366  0.000000  0.047135  0.000000  0.000121
                                 0.000000  0.000080  0.000000 -0.008594 -0.000000

                                   1 2px     1 2px     1 2px     1 2px     1 2px     1 2px     1 2px     1 2px     1 2px     1 2px  
                                   1 2px     1 2px     1 2px     1 2px     1 2px     1 2px     1 2px     1 2px     1 2px     1 2px  
                                   1 2px     1 2px     1 2px     1 2px     1 2px     1 3d1+    1 3d1+    1 3d1+    1 3d1+    1 3d1+ 
                                   1 3d1+    1 3d1+    1 3d1+    1 3d1+    1 3d1+    1 3d1+    1 3d1+    1 3d1+    1 3d1+    1 3d1+ 
                                   1 3d1+    1 3d1+    1 3d1+    1 4f1+    1 4f3+    1 4f1+    1 4f3+    1 4f1+    1 4f3+    1 4f1+ 
                                   1 4f3+    1 4f1+    1 4f3+    1 5g1+    1 5g3+    1 5g1+    1 5g3+    1 5g1+    1 5g3+    2 2px  
                                   2 2px     2 2px     2 2px     2 2px     2 2px     2 2px     2 2px     2 3d1+    2 3d1+    2 3d1+ 
                                   2 3d1+    2 4f1+    2 4f3+    2 4f1+    2 4f3+ 

   1.2   2  -114.0425 -370.5668  0.000016  0.000055  0.000203  0.000713  0.002485  0.008366  0.026118  0.072482  0.167213  0.295998
                                 0.348859  0.212916  0.000825  0.050282  0.007371 -0.004425  0.002461 -0.002297  0.001899 -0.000416
                                 0.000053 -0.000022  0.000007 -0.000003  0.000001 -0.000000 -0.000000 -0.000002 -0.000007 -0.000018
                                -0.000021 -0.000004 -0.000004  0.000016 -0.000025  0.000015 -0.000009  0.000011 -0.000007  0.000004
                                -0.000002  0.000000 -0.000000 -0.000004 -0.000010  0.000020 -0.000006 -0.000017  0.000002  0.000003
                                -0.000002 -0.000001  0.000000  0.000000  0.000000 -0.000000 -0.000000  0.000000  0.000000 -0.000000
                                -0.000001 -0.000001 -0.000002  0.000000 -0.000000  0.000000  0.000000 -0.000000  0.000001 -0.000001
                                 0.000000 -0.000000  0.000000 -0.000001 -0.000000

   2.2   2   -19.6209 -125.9040 -0.000007 -0.000025 -0.000091 -0.000320 -0.001118 -0.003788 -0.011972 -0.034026 -0.081579 -0.152269
                                -0.185085 -0.030115 -0.003651  0.296838  0.488290  0.011773  0.284393  0.039718  0.007212  0.000380
                                 0.000815 -0.000085  0.000053 -0.000028  0.000008 -0.000000 -0.000001 -0.000007 -0.000029 -0.000086
                                -0.000204 -0.000345 -0.000462 -0.000446  0.000222 -0.000076 -0.000025  0.000077 -0.000103  0.000030
                                -0.000027 -0.000002 -0.000002 -0.000246 -0.000250  0.000922  0.000876 -0.000791 -0.000636  0.000096
                                 0.000098 -0.000031 -0.000015  0.000005 -0.000001 -0.000010 -0.000001  0.000010 -0.000000 -0.000000
                                -0.000002  0.000014  0.000001  0.000017  0.000007  0.000004  0.000000 -0.000002  0.000016 -0.000004
                                 0.000000  0.000000 -0.000000 -0.000012  0.000000

   3.2   2   -12.3518 -114.0607 -0.000000 -0.000000 -0.000000 -0.000000 -0.000001 -0.000004 -0.000014 -0.000040 -0.000097 -0.000182
                                -0.000223 -0.000040  0.000008  0.000392  0.000818 -0.000237  0.000355 -0.000102  0.000210 -0.000113
                                -0.000023 -0.000034 -0.000039 -0.000013  0.000001  0.000148  0.001273  0.007711  0.031685  0.096107
                                 0.213839  0.329407  0.338610  0.196067 -0.017437  0.034844  0.018360 -0.006722  0.005551 -0.000462
                                 0.000162 -0.000064  0.000007 -0.000728 -0.000001  0.002063 -0.000004 -0.001827  0.000001  0.000203
                                -0.000001 -0.000086 -0.000000 -0.000074 -0.000048  0.000085  0.000068 -0.000031 -0.000012 -0.000001
                                -0.000011 -0.000015 -0.000044  0.000004  0.000031  0.000003  0.000000 -0.000001  0.000017 -0.000012
                                 0.000000 -0.000002 -0.000000 -0.000015  0.000002

   4.2   2    -2.4278  -48.9428  0.000003  0.000009  0.000035  0.000123  0.000431  0.001463  0.004632  0.013222  0.031912  0.060216
                                 0.073603  0.002923  0.001743 -0.157302 -0.274702 -0.032062 -0.118318  0.300734  0.043395  0.530535
                                 0.294940  0.037881 -0.002191  0.001461 -0.000415  0.000001  0.000005  0.000032  0.000132  0.000406
                                 0.000914  0.001388  0.001260  0.000410 -0.000996 -0.001087 -0.002512 -0.002330 -0.004617 -0.004869
                                -0.000614 -0.000357  0.000075 -0.000345  0.002510 -0.000809 -0.003527  0.000895  0.006719 -0.000272
                                 0.002908 -0.000518  0.000819 -0.000020 -0.000023  0.000079 -0.000029  0.000185 -0.000082  0.000150
                                 0.001121  0.003349  0.006187  0.003054  0.000089  0.000049  0.000025 -0.000506 -0.002114 -0.000322
                                -0.000033  0.000489  0.000005  0.000496 -0.000001

   5.2   2    -0.5010  -26.2297 -0.000000 -0.000000 -0.000002 -0.000006 -0.000020 -0.000069 -0.000217 -0.000626 -0.001490 -0.002877
                                -0.003302 -0.002256  0.003130  0.004993  0.024251 -0.014057  0.016958 -0.047281  0.033281 -0.048325
                                -0.007062  0.003841  0.013318  0.002546 -0.001295 -0.000026 -0.000224 -0.001375 -0.005644 -0.017445
                                -0.038786 -0.058953 -0.050733 -0.024242  0.068488  0.006325  0.187797 -0.048463  0.261017  0.161707
                                 0.074197  0.025697 -0.002831  0.003168 -0.000051 -0.004166  0.000044  0.007035 -0.000051  0.012494
                                 0.000020 -0.005136  0.000074  0.000091  0.000083  0.002072  0.000069  0.005885  0.000256  0.008171
                                 0.060082  0.204838  0.329396  0.267413  0.029481  0.006679  0.001608 -0.005553 -0.023329 -0.023812
                                -0.000385  0.002635 -0.000002  0.005403  0.000019

   6.2   +    -0.4401  -30.6575 -0.000000 -0.000001 -0.000003 -0.000011 -0.000040 -0.000135 -0.000425 -0.001220 -0.002928 -0.005587
                                -0.006642 -0.002114  0.002711  0.012595  0.035979 -0.010688  0.020781 -0.059939  0.025399 -0.078982
                                -0.017288  0.056270  0.049210 -0.006591  0.000611  0.000038  0.000320  0.001962  0.008046  0.024894
                                 0.055311  0.084145  0.071575  0.038236 -0.106247 -0.005079 -0.277202  0.065793 -0.374670 -0.201303
                                -0.124632 -0.030199 -0.003442  0.006033  0.000175 -0.009572 -0.000070  0.016509  0.000345  0.021601
                                -0.000214  0.015992 -0.000238  0.000728  0.000388  0.000921  0.000992  0.002675  0.000762  0.007446
                                 0.054890  0.190331  0.301325  0.264173  0.058578  0.006339  0.001480  0.000528 -0.001490 -0.013976
                                -0.000005 -0.001659  0.000006  0.000491 -0.000041

   7.2   0     0.0227   -6.1785 -0.000000 -0.000000 -0.000001 -0.000005 -0.000016 -0.000057 -0.000165 -0.000527 -0.001104 -0.002591
                                -0.001425 -0.017410  0.025589 -0.014748  0.094347 -0.119029  0.090035 -0.212786  0.224494 -0.120401
                                 0.038195 -0.053421  0.228713 -0.438833  1.192692 -0.000002 -0.000022 -0.000130 -0.000561 -0.001647
                                -0.003913 -0.005255 -0.006833  0.029448 -0.050986  0.056607 -0.037730  0.091438 -0.055130  0.042427
                                -0.017852  0.019975 -0.262892 -0.000986  0.000016  0.001937  0.000209 -0.003188 -0.000159 -0.002806
                                -0.000085  0.001392 -0.000563  0.000049 -0.000024 -0.000436 -0.000080  0.000722  0.000002 -0.000807
                                -0.005504 -0.024896 -0.032418 -0.058581  0.071477 -0.001728 -0.000224 -0.000354  0.000120  0.000413
                                -0.000003  0.000045 -0.000006 -0.000505  0.000028

   8.2   0     0.0751   -8.0430 -0.000000 -0.000001 -0.000003 -0.000010 -0.000036 -0.000111 -0.000395 -0.000978 -0.002822 -0.003961
                                -0.009580  0.046967 -0.069848  0.069760 -0.204081  0.330307 -0.224131  0.508513 -0.619171  0.200726
                                -0.178298  0.246468 -0.432568  1.500269 -1.152521 -0.000004 -0.000042 -0.000233 -0.001039 -0.002940
                                -0.007303 -0.008981 -0.014889  0.093340 -0.165360  0.173331 -0.140638  0.291173 -0.207703  0.120985
                                -0.113306  0.059281 -0.680433 -0.001819  0.000045  0.007686  0.000348 -0.010193 -0.000231 -0.000529
                                -0.000252 -0.021094 -0.001149 -0.000278 -0.000040  0.000782 -0.000153 -0.002250  0.000034 -0.001019
                                -0.007453 -0.027068 -0.042615 -0.022360  0.139340 -0.001078 -0.000216 -0.001497  0.002186 -0.040026
                                 0.000008  0.000012 -0.000011  0.001689  0.000049

                                   1 2py     1 2py     1 2py     1 2py     1 2py     1 2py     1 2py     1 2py     1 2py     1 2py  
                                   1 2py     1 2py     1 2py     1 2py     1 2py     1 2py     1 2py     1 2py     1 2py     1 2py  
                                   1 2py     1 2py     1 2py     1 2py     1 2py     1 3d1-    1 3d1-    1 3d1-    1 3d1-    1 3d1- 
                                   1 3d1-    1 3d1-    1 3d1-    1 3d1-    1 3d1-    1 3d1-    1 3d1-    1 3d1-    1 3d1-    1 3d1- 
                                   1 3d1-    1 3d1-    1 3d1-    1 4f1-    1 4f3-    1 4f1-    1 4f3-    1 4f1-    1 4f3-    1 4f1- 
                                   1 4f3-    1 4f1-    1 4f3-    1 5g1-    1 5g3-    1 5g1-    1 5g3-    1 5g1-    1 5g3-    2 2py  
                                   2 2py     2 2py     2 2py     2 2py     2 2py     2 2py     2 2py     2 3d1-    2 3d1-    2 3d1- 
                                   2 3d1-    2 4f1-    2 4f3-    2 4f1-    2 4f3- 

   1.3   2  -114.0425 -370.5668  0.000016  0.000055  0.000203  0.000713  0.002485  0.008366  0.026118  0.072482  0.167213  0.295998
                                 0.348859  0.212916  0.000825  0.050282  0.007371 -0.004425  0.002461 -0.002297  0.001899 -0.000416
                                 0.000053 -0.000022  0.000007 -0.000003  0.000001 -0.000000 -0.000000 -0.000002 -0.000007 -0.000018
                                -0.000021 -0.000004 -0.000004  0.000016 -0.000025  0.000015 -0.000009  0.000011 -0.000007  0.000004
                                -0.000002  0.000000 -0.000000 -0.000004  0.000010  0.000020  0.000006 -0.000017 -0.000002  0.000003
                                 0.000002 -0.000001 -0.000000  0.000000 -0.000000 -0.000000  0.000000  0.000000 -0.000000 -0.000000
                                -0.000001 -0.000001 -0.000002  0.000000 -0.000000  0.000000  0.000000 -0.000000  0.000001 -0.000001
                                 0.000000 -0.000000 -0.000000 -0.000001  0.000000

   2.3   2   -19.6209 -125.9040 -0.000007 -0.000025 -0.000091 -0.000320 -0.001118 -0.003788 -0.011972 -0.034026 -0.081579 -0.152269
                                -0.185085 -0.030115 -0.003651  0.296838  0.488290  0.011773  0.284393  0.039718  0.007212  0.000380
                                 0.000815 -0.000085  0.000053 -0.000028  0.000008 -0.000000 -0.000001 -0.000007 -0.000029 -0.000086
                                -0.000204 -0.000345 -0.000462 -0.000446  0.000222 -0.000076 -0.000025  0.000077 -0.000103  0.000030
                                -0.000027 -0.000002 -0.000002 -0.000246  0.000250  0.000922 -0.000876 -0.000791  0.000636  0.000096
                                -0.000098 -0.000031  0.000015  0.000005  0.000001 -0.000010  0.000001  0.000010  0.000000 -0.000000
                                -0.000002  0.000014  0.000001  0.000017  0.000007  0.000004  0.000000 -0.000002  0.000016 -0.000004
                                 0.000000  0.000000  0.000000 -0.000012 -0.000000

   3.3   2   -12.3518 -114.0607 -0.000000 -0.000000 -0.000000 -0.000000 -0.000001 -0.000004 -0.000014 -0.000040 -0.000097 -0.000182
                                -0.000223 -0.000040  0.000008  0.000392  0.000818 -0.000237  0.000355 -0.000102  0.000210 -0.000113
                                -0.000023 -0.000034 -0.000039 -0.000013  0.000001  0.000148  0.001273  0.007711  0.031685  0.096107
                                 0.213839  0.329407  0.338610  0.196067 -0.017437  0.034844  0.018360 -0.006722  0.005551 -0.000462
                                 0.000162 -0.000064  0.000007 -0.000728  0.000001  0.002063  0.000004 -0.001827 -0.000001  0.000203
                                 0.000001 -0.000086  0.000000 -0.000074  0.000048  0.000085 -0.000068 -0.000031  0.000012 -0.000001
                                -0.000011 -0.000015 -0.000044  0.000004  0.000031  0.000003  0.000000 -0.000001  0.000017 -0.000012
                                 0.000000 -0.000002  0.000000 -0.000015 -0.000002

   4.3   2    -2.4278  -48.9428  0.000003  0.000009  0.000035  0.000123  0.000431  0.001463  0.004632  0.013222  0.031912  0.060216
                                 0.073603  0.002923  0.001743 -0.157302 -0.274702 -0.032062 -0.118318  0.300734  0.043395  0.530535
                                 0.294940  0.037881 -0.002191  0.001461 -0.000415  0.000001  0.000005  0.000032  0.000132  0.000406
                                 0.000914  0.001388  0.001260  0.000410 -0.000996 -0.001087 -0.002512 -0.002330 -0.004617 -0.004869
                                -0.000614 -0.000357  0.000075 -0.000345 -0.002510 -0.000809  0.003527  0.000895 -0.006719 -0.000272
                                -0.002908 -0.000518 -0.000819 -0.000020  0.000023  0.000079  0.000029  0.000185  0.000082  0.000150
                                 0.001121  0.003349  0.006187  0.003054  0.000089  0.000049  0.000025 -0.000506 -0.002114 -0.000322
                                -0.000033  0.000489 -0.000005  0.000496  0.000001

   5.3   2    -0.5010  -26.2297 -0.000000 -0.000000 -0.000002 -0.000006 -0.000020 -0.000069 -0.000217 -0.000626 -0.001490 -0.002877
                                -0.003302 -0.002256  0.003130  0.004993  0.024251 -0.014057  0.016958 -0.047281  0.033281 -0.048325
                                -0.007062  0.003841  0.013318  0.002546 -0.001295 -0.000026 -0.000224 -0.001375 -0.005644 -0.017445
                                -0.038786 -0.058953 -0.050733 -0.024242  0.068488  0.006325  0.187797 -0.048463  0.261017  0.161707
                                 0.074197  0.025697 -0.002831  0.003168  0.000051 -0.004166 -0.000044  0.007035  0.000051  0.012494
                                -0.000020 -0.005136 -0.000074  0.000091 -0.000083  0.002072 -0.000069  0.005885 -0.000256  0.008171
                                 0.060082  0.204838  0.329396  0.267413  0.029481  0.006679  0.001608 -0.005553 -0.023329 -0.023812
                                -0.000385  0.002635  0.000002  0.005403 -0.000019

   6.3   +    -0.4401  -30.6575 -0.000000 -0.000001 -0.000003 -0.000011 -0.000040 -0.000135 -0.000425 -0.001220 -0.002928 -0.005587
                                -0.006642 -0.002114  0.002711  0.012595  0.035979 -0.010688  0.020781 -0.059939  0.025399 -0.078982
                                -0.017288  0.056270  0.049210 -0.006591  0.000611  0.000038  0.000320  0.001962  0.008046  0.024894
                                 0.055311  0.084145  0.071575  0.038236 -0.106247 -0.005079 -0.277202  0.065793 -0.374670 -0.201303
                                -0.124632 -0.030199 -0.003442  0.006033 -0.000175 -0.009572  0.000070  0.016509 -0.000345  0.021601
                                 0.000214  0.015992  0.000238  0.000728 -0.000388  0.000921 -0.000992  0.002675 -0.000762  0.007446
                                 0.054890  0.190331  0.301325  0.264173  0.058578  0.006339  0.001480  0.000528 -0.001490 -0.013976
                                -0.000005 -0.001659 -0.000006  0.000491  0.000041

   7.3   0     0.0227   -6.1785 -0.000000 -0.000000 -0.000001 -0.000005 -0.000016 -0.000057 -0.000165 -0.000527 -0.001104 -0.002591
                                -0.001425 -0.017410  0.025589 -0.014748  0.094347 -0.119029  0.090035 -0.212786  0.224494 -0.120401
                                 0.038195 -0.053421  0.228713 -0.438833  1.192692 -0.000002 -0.000022 -0.000130 -0.000561 -0.001647
                                -0.003913 -0.005255 -0.006833  0.029448 -0.050986  0.056607 -0.037730  0.091438 -0.055130  0.042427
                                -0.017852  0.019975 -0.262892 -0.000986 -0.000016  0.001937 -0.000209 -0.003188  0.000159 -0.002806
                                 0.000085  0.001392  0.000563  0.000049  0.000024 -0.000436  0.000080  0.000722 -0.000002 -0.000807
                                -0.005504 -0.024896 -0.032418 -0.058581  0.071477 -0.001728 -0.000224 -0.000354  0.000120  0.000413
                                -0.000003  0.000045  0.000006 -0.000505 -0.000028

   8.3   0     0.0751   -8.0430 -0.000000 -0.000001 -0.000003 -0.000010 -0.000036 -0.000111 -0.000395 -0.000978 -0.002822 -0.003961
                                -0.009580  0.046967 -0.069848  0.069760 -0.204081  0.330307 -0.224131  0.508513 -0.619171  0.200726
                                -0.178298  0.246468 -0.432568  1.500269 -1.152521 -0.000004 -0.000042 -0.000233 -0.001039 -0.002940
                                -0.007303 -0.008981 -0.014889  0.093340 -0.165360  0.173331 -0.140638  0.291173 -0.207703  0.120985
                                -0.113306  0.059281 -0.680433 -0.001819 -0.000045  0.007686 -0.000348 -0.010193  0.000231 -0.000529
                                 0.000252 -0.021094  0.001149 -0.000278  0.000040  0.000782  0.000153 -0.002250 -0.000034 -0.001019
                                -0.007453 -0.027068 -0.042615 -0.022360  0.139340 -0.001078 -0.000216 -0.001497  0.002186 -0.040026
                                 0.000008  0.000012  0.000011  0.001689 -0.000049

                                   1 3d2-    1 3d2-    1 3d2-    1 3d2-    1 3d2-    1 3d2-    1 3d2-    1 3d2-    1 3d2-    1 3d2- 
                                   1 3d2-    1 3d2-    1 3d2-    1 3d2-    1 3d2-    1 3d2-    1 3d2-    1 3d2-    1 4f2-    1 4f2- 
                                   1 4f2-    1 4f2-    1 4f2-    1 5g2-    1 5g4-    1 5g2-    1 5g4-    1 5g2-    1 5g4-    2 3d2- 
                                   2 3d2-    2 3d2-    2 3d2-    2 4f2-    2 4f2- 

   1.4   2   -12.3525 -114.0187  0.000148  0.001272  0.007705  0.031659  0.096020  0.213655  0.329161  0.338616  0.197038 -0.018153
                                 0.035265  0.018212 -0.006663  0.005651 -0.000411  0.000231 -0.000040  0.000013 -0.000618  0.001756
                                -0.001531  0.000150 -0.000058 -0.000058 -0.000000  0.000069  0.000000 -0.000028 -0.000000  0.000001
                                -0.000003  0.000015 -0.000000  0.000001 -0.000002

   2.4   +    -0.5564  -36.9295 -0.000046 -0.000395 -0.002423 -0.009942 -0.030740 -0.068341 -0.103889 -0.088700 -0.044705  0.124869
                                 0.011357  0.334167 -0.069219  0.449416  0.255567  0.131862  0.030202 -0.003099 -0.002169  0.005466
                                -0.008201 -0.008889 -0.011262  0.000043 -0.000000  0.000523 -0.000000  0.001677 -0.000000  0.000856
                                 0.003553  0.001632  0.000061 -0.000748 -0.001043

   3.4   0     0.0868   -6.6143  0.000002  0.000029  0.000109  0.000713  0.001344  0.005404  0.001557  0.024130 -0.303725  0.551005
                                -0.539096  0.525313 -0.917399  0.754307 -0.294616  0.287061 -0.456143  1.237844 -0.000928  0.008497
                                -0.009720  0.005222 -0.008736  0.000043  0.000000 -0.000207  0.000000  0.000317 -0.000000  0.000236
                                 0.002181 -0.000593  0.000036 -0.000154  0.000223

   4.4   0     0.2803  -10.4025 -0.000013 -0.000069 -0.000628 -0.001806 -0.008092 -0.010966 -0.036029  0.036029 -0.905081  1.664007
                                -1.578025  1.686989 -2.761473  2.444653 -0.807749  0.964788 -1.916626  0.919738  0.003340 -0.027828
                                 0.032297 -0.016835  0.037636 -0.000172 -0.000000  0.000777 -0.000000 -0.000986  0.000000  0.000366
                                -0.016708  0.026670 -0.000274 -0.001097  0.004448

 HOMO     14.1    -0.325855 =      -8.8670eV
 LUMO     15.1    -0.017514 =      -0.4766eV
 LUMO-HOMO         0.308342 =       8.3904eV


 **********************************************************************************************************************************
 DATASETS  * FILE   NREC   LENGTH (MB)   RECORD NAMES
              1      22       22.21       500      610      700      900      950      970     1000      129      960     1700   
                                          VAR    BASINP    GEOM    SYMINP    ZMAT    AOBASIS   BASIS     P2S    ABASIS    OPER   
                                         1101     1401     1411     1412     1650     1100     1400     1410     1200     1210   
                                          SR      EKINR    POTR     PVPR    MOLCAS      S      EKIN      POT      H0       H01  
                                         1080     1600   
                                         AOSYM     SMH  

              2       4        3.76       700     1000      520     2100   
                                         GEOM     BASIS   MCVARS     RHF  

 PROGRAMS   *        TOTAL       RHF       INT
 CPU TIMES  *        52.66      5.59     46.90
 REAL TIME  *        59.80 SEC
 DISK USED  *         4.14 GB      
 SF USED    *         0.14 MB      
 GA USED    *         0.00 MB       (max)       0.00 MB       (current)
 **********************************************************************************************************************************
 SETTING SCF            =     -4856.07966636  AU                              
 SETTING _CC_NORM_MAX   =         2.00000000                                  


 PROGRAM * CCSD (Restricted open-shell coupled cluster)     Authors: C. Hampel, H.-J. Werner, 1991, M. Deegan, P.J. Knowles, 1992


 Convergence thresholds:  THRVAR = 1.00D-08  THRDEN = 1.06D-06

 CCSD(T)     terms to be evaluated (factor= 1.000)


 Number of closed-shell orbitals:  25 (  14   5   5   1 )
 Number of active  orbitals:        3 (   0   1   1   1 )
 Number of external orbitals:     302 ( 131  69  69  33 )

 Memory could be reduced to 344.84 Mwords without degradation in triples

 Number of N-1 electron functions:              53
 Number of N-2 electron functions:            1378
 Number of singly external CSFs:              5310
 Number of doubly external CSFs:          25170062
 Total number of CSFs:                    25175372

 Molecular orbitals read from record     2100.2  Type=RHF/CANONICAL (state 1.1)

 Integral transformation finished. Total CPU:  12.41 sec, npass=  1  Memory used:  37.74 MW

 Starting RMP2 calculation

 Wavefunction is spin-projected

 ITER.      SQ.NORM     CORR.ENERGY   TOTAL ENERGY   ENERGY CHANGE        DEN1      VAR(S)    VAR(P)  DIIS     TIME
   1      1.26546283    -1.90115371 -4857.98082007    -1.90115371    -0.01321391  0.28D-03  0.55D-02  1  1    16.05
   2      1.28274842    -1.91649867 -4857.99616502    -0.01534496    -0.00025558  0.11D-04  0.14D-03  2  2    19.46
   3      1.28578816    -1.91807750 -4857.99774386    -0.00157884    -0.00000445  0.30D-06  0.24D-05  3  3    30.18
   4      1.28597126    -1.91810612 -4857.99777248    -0.00002862    -0.00000011  0.17D-07  0.54D-07  4  4    36.59
   5      1.28597611    -1.91810565 -4857.99777201     0.00000047    -0.00000000  0.16D-08  0.13D-08  5  5    45.01

 Norm of t1 vector:      0.08384944      S-energy:    -0.01287427      T1 diagnostic:  0.00056926
 Norm of t2 vector:      0.52815280      P-energy:    -1.90523139
                                         Alpha-Beta:  -1.29142060
                                         Alpha-Alpha: -0.31685802
                                         Beta-Beta:   -0.29695277

 Spin contamination <S**2-Sz**2-Sz>     0.00000000
  Reference energy                  -4856.079666358517
  RHF-RMP2 correlation energy          -1.918105654721
 !RHF-RMP2 energy                   -4857.997772013238
 (NB above energy spin projected)

 Starting RCCSD calculation

 ITER.      SQ.NORM     CORR.ENERGY   TOTAL ENERGY   ENERGY CHANGE        DEN1      VAR(S)    VAR(P)  DIIS     TIME
   1      1.19798396    -1.76118453 -4857.84085089    -1.76118453    -0.03569167  0.64D-02  0.47D-02  0  0    87.38
   2      1.22087565    -1.79261096 -4857.87227732    -0.03142643    -0.00354354  0.79D-03  0.94D-03  1  1   126.63
   3      1.22975428    -1.79212029 -4857.87178665     0.00049067    -0.00125175  0.86D-03  0.15D-03  2  2   167.27
   4      1.24722717    -1.79651103 -4857.87617739    -0.00439074    -0.00041056  0.32D-03  0.42D-04  3  3   208.69
   5      1.26210846    -1.79790522 -4857.87757158    -0.00139419    -0.00018986  0.18D-03  0.12D-04  4  4   252.88
   6      1.27832315    -1.79874186 -4857.87840822    -0.00083664    -0.00008943  0.78D-04  0.76D-05  5  5   293.30
   7      1.29411448    -1.79925908 -4857.87892544    -0.00051722    -0.00003283  0.26D-04  0.35D-05  6  6   336.71
   8      1.30536649    -1.79954191 -4857.87920827    -0.00028283    -0.00001055  0.72D-05  0.15D-05  7  7   380.08
   9      1.31089087    -1.79962086 -4857.87928722    -0.00007895    -0.00000249  0.15D-05  0.44D-06  8  8   424.22
  10      1.31224796    -1.79964759 -4857.87931395    -0.00002673    -0.00000070  0.45D-06  0.11D-06  9  9   472.81
  11      1.31275377    -1.79965589 -4857.87932225    -0.00000831    -0.00000024  0.17D-06  0.31D-07 10 10   524.84
  12      1.31293135    -1.79965898 -4857.87932534    -0.00000309    -0.00000011  0.79D-07  0.14D-07 11 11   573.19
  13      1.31302321    -1.79966070 -4857.87932705    -0.00000171    -0.00000006  0.39D-07  0.76D-08 12 12   625.29
  14      1.31308659    -1.79966079 -4857.87932715    -0.00000009    -0.00000003  0.22D-07  0.41D-08 13 13   667.67
  15      1.31311303    -1.79966094 -4857.87932730    -0.00000015    -0.00000002  0.15D-07  0.28D-08 14 14   711.18
  16      1.31313639    -1.79966101 -4857.87932737    -0.00000007    -0.00000001  0.10D-07  0.20D-08 15 15   755.45
  17      1.31315209    -1.79966116 -4857.87932752    -0.00000015    -0.00000001  0.73D-08  0.14D-08 15  1   805.87

 Norm of t1 vector:      0.29961960      S-energy:    -0.01133389      T1 diagnostic:  0.02812450
                                                                       D1 diagnostic:  0.18581383
 Norm of t2 vector:      0.47263113      P-energy:    -1.78832728
                                         Alpha-Beta:  -1.25010680
                                         Alpha-Alpha: -0.28045075
                                         Beta-Beta:   -0.25776972

 Singles amplitudes (print threshold =  0.500E-01):

         I         SYM. A    A   T(IA) [Alpha-Alpha]

        14         1         1      0.13144439
        14         1         2      0.07412482
        14         1         7      0.06136698
 
         I         SYM. A    A   T(IA) [Beta-Beta]

        14         1         1      0.15545883
        14         1         2      0.08335172
        14         1         7      0.05356749
        19         2         1     -0.06855716
        25         3         1     -0.06855716

 Doubles amplitudes (print threshold =  0.500E-01):

         I         J         SYM. A    SYM. B    A         B      T(IJ, AB) [Beta-Beta]

        25        19         2         3         1         1      0.10444608
        25        19         3         2         1         1     -0.10444608

 Spin contamination <S**2-Sz**2-Sz>     0.00000000

 Memory could be reduced to 386.52 Mwords without degradation in triples
 

  Correlated core orbitals:             1.1       2.1       3.1       4.1       5.1       6.1       7.1       8.1       9.1      10.1
                                        1.2       2.2       3.2       4.2       1.3       2.3       3.3       4.3       1.4
  Orbital energies:                  -857.8936 -127.4843 -114.0498  -24.1654  -20.5786  -19.6218  -12.3727  -12.3585   -3.8855   -2.5232
                                     -114.0550  -19.6295  -12.3735   -2.5233 -114.0550  -19.6295  -12.3735   -2.5233  -12.3826
 
  RCCSD core-core energy               -0.916373519814
  RCCSD core-valence energy            -0.322892215386
  RCCSD valence correlation energy     -0.560395428929
 

 RESULTS
 =======

  Reference energy                  -4856.079666358517
  RCCSD singles energy                 -0.011333887549
  RCCSD pair energy                    -1.788327276579
  RCCSD correlation energy             -1.799661164128
  Triples (T) contribution             -0.057150120141
  Total correlation energy             -1.856811284270
 
  RHF-RCCSD energy                  -4857.879327522645
  RHF-RCCSD[T] energy               -4857.944569784126
  RHF-RCCSD-T energy                -4857.935787955666
 !RHF-RCCSD(T) energy               -4857.936477642786

 Program statistics:

 Available memory in ccsd:               999993348
 Min. memory needed in ccsd:              69392564
 Max. memory used in ccsd:               101957035
 Max. memory used in cckext:              81693108 (17 integral passes)
 Max. memory used in cckint:              37737602 ( 1 integral passes)



 **********************************************************************************************************************************
 DATASETS  * FILE   NREC   LENGTH (MB)   RECORD NAMES
              1      22       22.21       500      610      700      900      950      970     1000      129      960     1700   
                                          VAR    BASINP    GEOM    SYMINP    ZMAT    AOBASIS   BASIS     P2S    ABASIS    OPER   
                                         1101     1401     1411     1412     1650     1100     1400     1410     1200     1210   
                                          SR      EKINR    POTR     PVPR    MOLCAS      S      EKIN      POT      H0       H01  
                                         1080     1600   
                                         AOSYM     SMH  

              2       4        3.76       700     1000      520     2100   
                                         GEOM     BASIS   MCVARS     RHF  

 PROGRAMS   *        TOTAL  RCCSD(T)       RHF       INT
 CPU TIMES  *      1761.28   1708.61      5.59     46.90
 REAL TIME  *      3057.62 SEC
 DISK USED  *        92.26 GB      
 SF USED    *         7.63 GB      
 GA USED    *         0.00 MB       (max)       0.00 MB       (current)
 **********************************************************************************************************************************
 SETTING CCSD           =     -4857.93647764  AU                              
 SETTING BIND           =        -0.12147925  AU                              
 Output type csv         
                                                                                                                                                                                                                                                                

  1.70,SCF,CCSD,BIND
   1.7,   -4856.079666,   -4857.936478,   -0.12147925
                                                  

 RCCSD(T)/USERDEF energy=  -4857.936477642786

        RCCSD(T)        RHF-SCF 
  -4857.93647764  -4856.07966636
 **********************************************************************************************************************************
 Molpro calculation terminated
 Variable memory released
