<?xml version="1.0"?>
<molpro xmlns="http://www.molpro.net/schema/molpro-output"
  xmlns:xsd="http://www.w3.org/1999/XMLSchema"
  xmlns:cml="http://www.xml-cml.org/schema"
  xmlns:stm="http://www.xml-cml.org/schema"
  xmlns:xhtml="http://www.w3.org/1999/xhtml">
 <!--

 Nodes     nprocs
 nid01845    11
 Number of processes for MPI-2 version of Molpro:   nprocs(total)=   12   nprocs(compute)=   11   nprocs(helper)=    1

 Using customized tuning parameters: mindgm=7; mindgv=16; mindgc=1; mindgr=1; noblas=0; minvec=7
 default implementation of scratch files=sf

 --><job>
  <!--

 Variables initialized (889), CPU time= 0.02 sec
 Commands  initialized (702), CPU time= 0.01 sec, 572 directives.
 Default parameters read. Elapsed time= 0.13 sec

 Checking input...
 Passed
1


                                         ***  PROGRAM SYSTEM MOLPRO  ***
                                       Copyright, TTI GmbH Stuttgart, 2015
                                    Version 2015.1 linked Dec 29 2018 15:55:43


 **********************************************************************************************************************************
 LABEL *   Calculation for Y atom, singlet and triplet
  64 bit mpp version                                                                     DATE: 26-Apr-23          TIME: 20:05:35
 **********************************************************************************************************************************

 SHA1:             19cd028119e0e09f93f0674bd8af7968d9b3eff6
 **********************************************************************************************************************************
  -->
  <!--

 THRESHOLDS:

 ZERO    =  1.00D-12  ONEINT  =  1.00D-12  TWOINT  =  1.00D-15  PREFAC  =  1.00D-14  LOCALI  =  1.00D-09  EORDER  =  1.00D-04
 ENERGY  =  0.00D+00  ETEST   =  0.00D+00  EDENS   =  0.00D+00  THRDEDEF=  1.00D-06  GRADIENT=  1.00D-02  STEP    =  1.00D-03
 ORBITAL =  1.00D-05  CIVEC   =  1.00D-05  COEFF   =  1.00D-04  PRINTCI =  5.00D-02  PUNCHCI =  9.90D+01  OPTGRAD =  3.00D-04
 OPTENERG=  1.00D-06  OPTSTEP =  3.00D-04  THRGRAD =  1.00D-10  COMPRESS=  1.00D-11  VARMIN  =  1.00D-07  VARMAX  =  1.00D-03
 THRDOUB =  0.00D+00  THRDIV  =  1.00D-05  THRRED  =  1.00D-07  THRPSP  =  1.00D+00  THRDC   =  1.00D-10  THRCS   =  1.00D-10
 THRNRM  =  1.00D-08  THREQ   =  0.00D+00  THRDE   =  1.00D+00  THRREF  =  1.00D-05  SPARFAC =  1.00D+00  THRDLP  =  1.00D-07
 THRDIA  =  1.00D-10  THRDLS  =  1.00D-07  THRGPS  =  0.00D+00  THRKEX  =  0.00D+00  THRDIS  =  2.00D-01  THRVAR  =  1.00D-10
 THRLOC  =  1.00D-06  THRGAP  =  1.00D-06  THRLOCT = -1.00D+00  THRGAPT = -1.00D+00  THRORB  =  1.00D-06  THRMLTP =  0.00D+00
 THRCPQCI=  1.00D-10  KEXTA   =  0.00D+00  THRCOARS=  0.00D+00  SYMTOL  =  1.00D-06  GRADTOL =  1.00D-06  THROVL  =  1.00D-08
 THRORTH =  1.00D-08  GRID    =  1.00D-06  GRIDMAX =  1.00D-03  DTMAX   =  0.00D+00  THROCCDE=  1.00D-01  THROCCDE=  1.00D-01



 THRESHOLDS:

 ZERO    =  1.00D-12  ONEINT  =  1.00D-12  TWOINT  =  1.00D-15  PREFAC  =  1.00D-14  LOCALI  =  1.00D-09  EORDER  =  1.00D-04
 ENERGY  =  0.00D+00  ETEST   =  0.00D+00  EDENS   =  0.00D+00  THRDEDEF=  1.00D-06  GRADIENT=  1.00D-02  STEP    =  1.00D-03
 ORBITAL =  1.00D-05  CIVEC   =  1.00D-05  COEFF   =  1.00D-04  PRINTCI =  5.00D-02  PUNCHCI =  9.90D+01  OPTGRAD =  3.00D-04
 OPTENERG=  1.00D-06  OPTSTEP =  3.00D-04  THRGRAD =  1.00D-10  COMPRESS=  1.00D-11  VARMIN  =  1.00D-07  VARMAX  =  1.00D-03
 THRDOUB =  0.00D+00  THRDIV  =  1.00D-05  THRRED  =  1.00D-07  THRPSP  =  1.00D+00  THRDC   =  1.00D-10  THRCS   =  1.00D-10
 THRNRM  =  1.00D-08  THREQ   =  0.00D+00  THRDE   =  1.00D+00  THRREF  =  1.00D-05  SPARFAC =  1.00D+00  THRDLP  =  1.00D-07
 THRDIA  =  1.00D-10  THRDLS  =  1.00D-07  THRGPS  =  0.00D+00  THRKEX  =  0.00D+00  THRDIS  =  2.00D-01  THRVAR  =  1.00D-10
 THRLOC  =  1.00D-06  THRGAP  =  1.00D-06  THRLOCT = -1.00D+00  THRGAPT = -1.00D+00  THRORB  =  1.00D-06  THRMLTP =  0.00D+00
 THRCPQCI=  1.00D-10  KEXTA   =  0.00D+00  THRCOARS=  0.00D+00  SYMTOL  =  1.00D-06  GRADTOL =  1.00D-06  THROVL  =  1.00D-15
 THRORTH =  1.00D-08  GRID    =  1.00D-06  GRIDMAX =  1.00D-03  DTMAX   =  0.00D+00  THROCCDE=  1.00D-01  THROCCDE=  1.00D-01



 Variable memory set to 1000000000 words,  buffer space   230000 words

 SETTING BASIS          =    USERDEF
 SETTING LU_CCSD        =       -41.82487761
 SETTING O_CCSD         =       -15.86622096
 SETTING NE             =        17.00000000
 SETTING SYMM           =         1.00000000
 SETTING SS             =         1.00000000
 SETTING A1             =         5.00000000
 SETTING B1             =         2.00000000
 SETTING B2             =         2.00000000
 SETTING A2             =     0.00000000D+00

Geometry recognized as XYZ

  --><jobstep command="RHF-SCF" commandset="SCFPRO">
   <!--


 Recomputing integrals since basis changed


 Using spherical harmonics



 PROGRAM * SEWARD (Integral evaluation for generally contracted gaussian basis sets)     Author: Roland Lindh, 1990

 Geometry written to block  1 of record 700


 Point group  C2v


   --><cml:molecule>
    <cml:symmetry pointGroup="C2v"/>
    <cml:atomArray>
     <cml:atom id="a1" elementType="Lu" x3="0.0" y3="0.0" z3="0.0"/>
     <cml:atom id="a2" elementType="O" x3="0.0" y3="0.0" z3="2.4"/>
    </cml:atomArray>
    <cml:bondArray>
     <cml:bond atomRefs2="a1 a2"/>
    </cml:bondArray>
   </cml:molecule><!--

 ATOMIC COORDINATES

 NR  ATOM    CHARGE       X              Y              Z

   1  LU     11.00    0.000000000    0.000000000    0.000000000
   2  O       6.00    0.000000000    0.000000000    4.535342699

 Bond lengths in Bohr (Angstrom)

 1-2  4.535342699
     ( 2.400000000)

 NUCLEAR CHARGE:                   17
 NUMBER OF PRIMITIVE AOS:         584
 NUMBER OF SYMMETRY AOS:          451
 NUMBER OF CONTRACTIONS:          451   ( 180A1  + 108B1  + 108B2  +  55A2  )
 NUMBER OF CORE ORBITALS:           0   (   0A1  +   0B1  +   0B2  +   0A2  )
 NUMBER OF VALENCE ORBITALS:       14   (   7A1  +   3B1  +   3B2  +   1A2  )


 NUCLEAR REPULSION ENERGY   14.55237330

 EXTRA SYMMETRY OF AOS IN SYMMETRY 1:   1 1 1 1 1 1 1 1 1 1   1 1 1 1 1 1 1 1 1 1   1 1 1 1 1 1 1 1 1 1   1 1 1 1 1 1 1 1 1 1
                                        1 1 1 1 1 1 1 1 1 1   1 1 1 1 1 1 1 1 1 2   1 2 1 2 1 2 1 2 1 2   1 2 1 2 1 2 1 2 1 2
                                        1 2 1 2 1 2 1 2 1 2   1 2 1 2 1 2 1 2 1 2   1 2 1 2 1 2 1 2 1 2   1 2 1 2 1 2 1 2 1 2
                                        1 3 2 1 3 2 1 3 2 1   3 2 1 3 2 1 3 2 2 3   1 2 3 1 2 3 1 1 1 1   1 1 1 1 1 1 1 1 1 1
                                        1 1 1 1 1 1 1 1 1 2   1 2 1 2 1 2 1 2 1 2
 EXTRA SYMMETRY OF AOS IN SYMMETRY 2:   1 1 1 1 1 1 1 1 1 1   1 1 1 1 1 1 1 1 1 1   1 1 1 1 1 1 1 1 1 1   1 1 1 1 1 1 1 1 1 1
                                        1 1 1 1 1 1 2 1 2 1   2 1 2 1 2 1 2 1 2 1   2 1 2 1 2 1 2 1 2 1   2 1 2 1 2 1 2 1 2 1
                                        2 1 2 1 2 3 1 2 3 1   2 3 1 1 1 1 1 1 1 1   1 1 1 1 1 2 1 2
 EXTRA SYMMETRY OF AOS IN SYMMETRY 3:   1 1 1 1 1 1 1 1 1 1   1 1 1 1 1 1 1 1 1 1   1 1 1 1 1 1 1 1 1 1   1 1 1 1 1 1 1 1 1 1
                                        1 1 1 1 1 1 2 1 2 1   2 1 2 1 2 1 2 1 2 1   2 1 2 1 2 1 2 1 2 1   2 1 2 1 2 1 2 1 2 1
                                        2 1 2 1 2 3 1 2 3 1   2 3 1 1 1 1 1 1 1 1   1 1 1 1 1 2 1 2
 EXTRA SYMMETRY OF AOS IN SYMMETRY 4:   1 1 1 1 1 1 1 1 1 1   1 1 1 1 1 1 1 1 1 1   1 1 1 1 1 1 1 1 1 1   1 1 2 1 2 1 2 1 2 1
                                        2 1 2 2 1 2 1 2 1 1   1 1 1 1 1

 Eigenvalues of metric

         1 0.831E-05 0.121E-04 0.390E-04 0.485E-04 0.683E-04 0.762E-04 0.107E-03 0.198E-03
         2 0.122E-04 0.180E-04 0.106E-03 0.491E-03 0.648E-03 0.157E-02 0.220E-02 0.336E-02
         3 0.122E-04 0.180E-04 0.106E-03 0.491E-03 0.648E-03 0.157E-02 0.220E-02 0.336E-02
         4 0.702E-03 0.220E-02 0.838E-02 0.144E-01 0.215E-01 0.328E-01 0.344E-01 0.521E-01


 Contracted 2-electron integrals neglected if value below      1.0D-15
 AO integral compression algorithm  1   Integral accuracy      1.0D-15

     3509.322 MB (compressed) written to integral file ( 31.9%)

     Node minimum: 244.842 MB, node maximum: 414.188 MB


 NUMBER OF SORTED TWO-ELECTRON INTEGRALS:  120332494.     BUFFER LENGTH:  32768
 NUMBER OF SEGMENTS:   4  SEGMENT LENGTH:   31980394      RECORD LENGTH: 524288

 Memory used in sort:      32.54 MW

 SORT1 READ  1374547738. AND WROTE    39721565. INTEGRALS IN    115 RECORDS. CPU TIME:    22.45 SEC, REAL TIME:    33.79 SEC
 SORT2 READ   439978466. AND WROTE  1323827515. INTEGRALS IN  11869 RECORDS. CPU TIME:     1.71 SEC, REAL TIME:     2.72 SEC

 Node minimum:   120327112.  Node maximum:   120451591. integrals

 OPERATOR DM      FOR CENTER  0  COORDINATES:    0.000000    0.000000    0.000000


 **********************************************************************************************************************************
 DATASETS  * FILE   NREC   LENGTH (MB)   RECORD NAMES
              1      19       22.40       500      610      700      900      950      970     1000      129      960     1100
                                          VAR    BASINP    GEOM    SYMINP    ZMAT    AOBASIS   BASIS     P2S    ABASIS      S
                                         1400     1410     1420     1200     1210     1080     1600     1650     1700
                                           T        V       ECP      H0       H01     AOSYM     SMH    MOLCAS    OPER

 PROGRAMS   *        TOTAL       INT
 CPU TIMES  *        84.75     84.33
 REAL TIME  *        98.62 SEC
 DISK USED  *         8.72 GB
 GA USED    *         0.00 MB       (max)       0.00 MB       (current)
 **********************************************************************************************************************************


 PROGRAM * RHF-SCF (CLOSED SHELL)       Authors: W. Meyer, H.-J. Werner


 NUMBER OF ELECTRONS:       8+    8-    SPACE SYMMETRY=1    SPIN SYMMETRY: Singlet
 CONVERGENCE THRESHOLDS:    1.00E-05 (Density)    1.00E-07 (Energy)
 MAX. NUMBER OF ITERATIONS:      200
 INTERPOLATION TYPE:            DIIS
 INTERPOLATION STEPS:              2 (START)      1 (STEP)
 LEVEL SHIFTS:                  0.00 (CLOSED)  0.00 (OPEN)

 Number of closed-shell orbitals:    8 (   4   2   2   0 )


 Orbital guess generated from atomic densities. Full valence occupancy:    7   3   3   1

 Molecular orbital dump at record        2202.2

 ITERATION    DDIFF          GRAD             ENERGY        2-EL.EN.            DIPOLE MOMENTS         DIIS   ORB.
    1      0.000D+00      0.000D+00       -56.50528465    101.244808    0.00000    0.00000   -8.18419    0    start
    2      0.000D+00      0.153D-01       -49.93938401     96.353842    0.00000    0.00000   24.58171    1    diag
    3      0.187D-01      0.462D-01       -56.77461684     99.140865    0.00000    0.00000   -6.76600    2    diag
    4      0.178D-01      0.715D-02       -56.85158898     98.433713    0.00000    0.00000   -5.34752    3    diag
    5      0.316D-02      0.361D-02       -56.87065404     97.883414    0.00000    0.00000   -4.49814    4    diag
    6      0.149D-02      0.944D-03       -56.87405338     97.641845    0.00000    0.00000   -4.14537    5    diag
    7      0.109D-02      0.475D-03       -56.87593077     97.526693    0.00000    0.00000   -3.97100    6    diag
    8      0.711D-03      0.455D-03       -56.87826896     97.397042    0.00000    0.00000   -3.76968    7    diag
    9      0.796D-03      0.476D-03       -56.88482577     96.863930    0.00000    0.00000   -2.85133    8    diag
   10      0.279D-02      0.597D-03       -56.88292015     97.225288    0.00000    0.00000   -3.46109    9    orth
   11      0.140D-02      0.554D-03       -56.88610553     96.643592    0.00000    0.00000   -2.44458    9    diag
   12      0.277D-02      0.165D-03       -56.88615655     96.786039    0.00000    0.00000   -2.70665    9    diag
   13      0.601D-03      0.829D-04       -56.88623072     96.715454    0.00000    0.00000   -2.59513    9    diag
   14      0.301D-03      0.198D-04       -56.88623524     96.708161    0.00000    0.00000   -2.59693    9    diag
   15      0.523D-04      0.138D-04       -56.88623672     96.692647    0.00000    0.00000   -2.57176    9    diag
   16      0.628D-04      0.500D-05       -56.88623689     96.695910    0.00000    0.00000   -2.57714    9    diag
   17      0.147D-04      0.799D-06       -56.88623689     96.696229    0.00000    0.00000   -2.57777    9    diag
   18      0.178D-05      0.518D-07       -56.88623689     96.696261    0.00000    0.00000   -2.57780    0    orth

 Final occupancy:   4   2   2   0

 !RHF STATE 1.1 Energy                -56.886236891781
   --><property name="Energy" method="RHF" principal="true" stateSymmetry="1" stateNumber="1"
     value="-56.8862368917813"/><!--
 Nuclear energy                        14.55237330
 One-electron energy                 -119.78674078
 Two-electron energy                   48.34813058
 Virial quotient                       -2.23436398
 !RHF STATE 1.1 Dipole moment           0.00000000     0.00000000    -2.57780228
 Dipole moment /Debye                   0.00000000     0.00000000    -6.55169071
   --><property name="Dipole moment" method="RHF" principal="true" stateSymmetry="1"
     stateNumber="1" value="0.0 0.0 -2.57780227619453"/><!--

 ELECTRON ORBITALS
 =================


   Orb  Occ    Energy  Couls-En    Coefficients

                                   1 1s      1 1s      1 1s      1 1s      1 1s      1 1s      1 1s      1 1s      1 1s      1 1s
                                   1 1s      1 1s      1 1s      1 1s      1 1s      1 1s      1 1s      1 1s      1 1s      1 1s
                                   1 1s      1 1s      1 1s      1 1s      1 1s      1 1s      1 1s      1 1s      1 1s      1 1s
                                   1 1s      1 2pz     1 2pz     1 2pz     1 2pz     1 2pz     1 2pz     1 2pz     1 2pz     1 2pz
                                   1 2pz     1 2pz     1 2pz     1 2pz     1 2pz     1 2pz     1 2pz     1 2pz     1 2pz     1 2pz
                                   1 2pz     1 2pz     1 2pz     1 2pz     1 2pz     1 2pz     1 2pz     1 2pz     1 3d0     1 3d2+
                                   1 3d0     1 3d2+    1 3d0     1 3d2+    1 3d0     1 3d2+    1 3d0     1 3d2+    1 3d0     1 3d2+
                                   1 3d0     1 3d2+    1 3d0     1 3d2+    1 3d0     1 3d2+    1 3d0     1 3d2+    1 3d0     1 3d2+
                                   1 3d0     1 3d2+    1 3d0     1 3d2+    1 3d0     1 3d2+    1 3d0     1 3d2+    1 3d0     1 3d2+
                                   1 3d0     1 3d2+    1 3d0     1 3d2+    1 4f0     1 4f2+    1 4f0     1 4f2+    1 4f0     1 4f2+
                                   1 4f0     1 4f2+    1 4f0     1 4f2+    1 4f0     1 4f2+    1 4f0     1 4f2+    1 4f0     1 4f2+
                                   1 4f0     1 4f2+    1 4f0     1 4f2+    1 4f0     1 4f2+    1 4f0     1 4f2+    1 4f0     1 4f2+
                                   1 5g0     1 5g4+    1 5g2+    1 5g0     1 5g4+    1 5g2+    1 5g0     1 5g4+    1 5g2+    1 5g0
                                   1 5g4+    1 5g2+    1 5g0     1 5g4+    1 5g2+    1 5g0     1 5g4+    1 5g2+    1 6h2+    1 6h4+
                                   1 6h0     1 6h2+    1 6h4+    1 6h0     1 6h2+    1 6h4+    1 6h0     2 1s      2 1s      2 1s
                                   2 1s      2 1s      2 1s      2 1s      2 1s      2 1s      2 1s      2 1s      2 1s      2 1s
                                   2 2pz     2 2pz     2 2pz     2 2pz     2 2pz     2 2pz     2 2pz     2 2pz     2 3d0     2 3d2+
                                   2 3d0     2 3d2+    2 3d0     2 3d2+    2 3d0     2 3d2+    2 4f0     2 4f2+    2 4f0     2 4f2+


   1.1   2    -2.9917  -12.4973  0.000000 -0.000000  0.000000 -0.000000  0.000000 -0.000000  0.000000 -0.000001  0.000002 -0.000004
                                 0.000011 -0.000027  0.000062 -0.000142  0.000311 -0.000669  0.001369 -0.002527  0.003708 -0.044507
                                 0.302779 -0.412078 -0.402682  0.293045  0.743980  0.328007 -0.005241  0.014336 -0.009700  0.006665
                                -0.001905 -0.000000  0.000000 -0.000000  0.000000 -0.000000  0.000000 -0.000000  0.000000 -0.000000
                                 0.000000 -0.000001  0.000004 -0.000010  0.000027 -0.000086  0.000805 -0.002212  0.002254  0.001542
                                -0.001800 -0.005589 -0.001715 -0.007851 -0.006462 -0.001411  0.000180  0.006337 -0.000000 -0.000000
                                 0.000000  0.000000 -0.000000 -0.000000  0.000001  0.000000 -0.000002 -0.000000  0.000007 -0.000000
                                -0.000019  0.000000  0.000045 -0.000000 -0.000097  0.000000  0.000164 -0.000000  0.000166  0.000000
                                -0.000048 -0.000000 -0.005292  0.000000 -0.003510  0.000000  0.001350  0.000000 -0.002275 -0.000000
                                 0.002354  0.000000 -0.000609 -0.000000  0.000000 -0.000000 -0.000000  0.000000  0.000001 -0.000000
                                -0.000002  0.000000  0.000005 -0.000000 -0.000010  0.000000  0.000000 -0.000000 -0.000096  0.000000
                                -0.000212 -0.000000 -0.000158  0.000000  0.000142 -0.000000 -0.000047  0.000000  0.000081 -0.000000
                                 0.000002 -0.000000  0.000000 -0.000005 -0.000000 -0.000000  0.000052  0.000000  0.000000  0.000213
                                 0.000000  0.000000 -0.000010 -0.000000 -0.000000  0.000053  0.000000  0.000000 -0.000000  0.000000
                                 0.000002  0.000000 -0.000000 -0.000013  0.000000  0.000000  0.000066 -0.000000  0.000000 -0.000000
                                 0.000001 -0.000005  0.000141 -0.000150  0.000469  0.000794  0.000910  0.000723 -0.000206 -0.000236
                                -0.000016 -0.000139 -0.000394 -0.000670 -0.000933 -0.000474 -0.000001  0.000004  0.000025  0.000000
                                 0.000291  0.000000  0.000488  0.000000  0.000005  0.000000  0.000002 -0.000000 -0.000281 -0.000000

   2.1   2    -1.8229  -10.1313  0.000000 -0.000000  0.000000 -0.000000  0.000000 -0.000000  0.000000 -0.000000  0.000000 -0.000000
                                 0.000000 -0.000000  0.000000 -0.000001  0.000002 -0.000005  0.000012 -0.000028  0.000052 -0.000896
                                 0.006523 -0.009086 -0.009864  0.008696  0.025044 -0.002113 -0.010848  0.002398 -0.011127 -0.005582
                                 0.003483  0.000000 -0.000000  0.000000 -0.000000  0.000000 -0.000000  0.000000 -0.000001  0.000004
                                -0.000013  0.000038 -0.000104  0.000276 -0.000758  0.002377 -0.039524  0.137876 -0.158648 -0.160467
                                 0.274318  0.523793  0.015560  0.337094 -0.008150  0.052165 -0.011983  0.008649 -0.000000 -0.000000
                                 0.000000 -0.000000 -0.000000 -0.000000  0.000001 -0.000000 -0.000003  0.000000  0.000009 -0.000000
                                -0.000024  0.000000  0.000057 -0.000000 -0.000124  0.000000  0.000193 -0.000000  0.000446  0.000000
                                -0.000559 -0.000000 -0.006698 -0.000000 -0.010139 -0.000000 -0.002408 -0.000000 -0.003277  0.000000
                                -0.002722 -0.000000  0.002090  0.000000  0.000000 -0.000000 -0.000000  0.000000  0.000000 -0.000000
                                -0.000001  0.000000  0.000004 -0.000000  0.000000  0.000000 -0.000111 -0.000000 -0.000025 -0.000000
                                -0.002830  0.000000 -0.001056  0.000000 -0.000099  0.000000 -0.001894 -0.000000  0.000623 -0.000000
                                -0.000002 -0.000000 -0.000000  0.000009  0.000000  0.000000 -0.000039  0.000000 -0.000000  0.000198
                                 0.000000  0.000000 -0.000698 -0.000000  0.000000  0.000229  0.000000 -0.000000  0.000000  0.000000
                                 0.000004 -0.000000  0.000000 -0.000134  0.000000 -0.000000  0.000305 -0.000000  0.000000 -0.000001
                                 0.000006 -0.000058  0.002273 -0.004691  0.007662  0.022248  0.016620  0.014850 -0.001929 -0.003633
                                -0.000189 -0.001613 -0.004774 -0.008392 -0.008764 -0.004933 -0.000035  0.000051  0.000255 -0.000000
                                 0.001979  0.000000  0.002026 -0.000000  0.000019  0.000000 -0.000193 -0.000000 -0.000960 -0.000000

   3.1   2    -1.3344   -8.5677 -0.000000  0.000000 -0.000000  0.000000 -0.000000  0.000000 -0.000000  0.000000 -0.000000  0.000000
                                -0.000000  0.000001 -0.000003  0.000006 -0.000013  0.000027 -0.000055  0.000098 -0.000136  0.001502
                                -0.010365  0.014953  0.012588 -0.009265 -0.034238 -0.027839  0.043961 -0.005523 -0.021141  0.005698
                                 0.003176 -0.000000  0.000000 -0.000000  0.000000 -0.000000  0.000000 -0.000000  0.000000 -0.000000
                                 0.000000 -0.000001  0.000002 -0.000007  0.000017 -0.000055  0.002537 -0.010365  0.012610  0.014748
                                -0.026566 -0.033993 -0.031732 -0.004417  0.093238 -0.003801 -0.022155 -0.084992 -0.000000 -0.000000
                                 0.000000  0.000000 -0.000000 -0.000000  0.000001  0.000000 -0.000002 -0.000000  0.000007  0.000000
                                -0.000019 -0.000000  0.000040  0.000000 -0.000067 -0.000000  0.000200  0.000000 -0.001762 -0.000000
                                 0.002751  0.000000  0.008022  0.000000  0.017262  0.000000 -0.001397  0.000000 -0.024036 -0.000000
                                 0.022114  0.000000 -0.002240 -0.000000  0.000000 -0.000000 -0.000000  0.000000  0.000002 -0.000000
                                -0.000006  0.000000  0.000013 -0.000000 -0.000053  0.000000  0.000311 -0.000000  0.000385  0.000000
                                 0.001820 -0.000000  0.003148 -0.000000 -0.008512  0.000000  0.002129  0.000000  0.002062  0.000000
                                 0.000005 -0.000000 -0.000000 -0.000022 -0.000000  0.000000  0.000247 -0.000000 -0.000000  0.000378
                                -0.000000  0.000000 -0.004088  0.000000 -0.000000  0.003092 -0.000000  0.000000  0.000000  0.000000
                                 0.000019 -0.000000 -0.000000 -0.000122  0.000000  0.000000  0.000581 -0.000000  0.000004 -0.000026
                                 0.000165 -0.001429  0.054576 -0.102545  0.190296  0.555673  0.405069  0.032148 -0.052992 -0.088590
                                -0.000137 -0.000901 -0.004606 -0.006512 -0.038127 -0.012927 -0.000363  0.000033 -0.000738  0.000000
                                 0.001448 -0.000000  0.008163  0.000000 -0.000378 -0.000000  0.000105 -0.000000 -0.002430 -0.000000

   4.1   2    -0.4971   -6.0712  0.000000 -0.000000  0.000000 -0.000000  0.000000 -0.000000  0.000000 -0.000000  0.000000 -0.000001
                                 0.000003 -0.000007  0.000017 -0.000039  0.000085 -0.000183  0.000373 -0.000684  0.000999 -0.012375
                                 0.087690 -0.127637 -0.112213  0.086961  0.311295  0.311827 -0.094033 -0.502466 -0.364455  0.129814
                                -0.069642  0.000000 -0.000000  0.000000 -0.000000  0.000000 -0.000000  0.000000 -0.000000  0.000000
                                -0.000000  0.000001 -0.000002  0.000006 -0.000015  0.000044 -0.001258  0.004984 -0.006117 -0.006826
                                 0.013873  0.010730  0.034763 -0.012163  0.395404 -0.022651  0.071372 -0.385144  0.000000  0.000000
                                -0.000000  0.000000  0.000000 -0.000000 -0.000002  0.000000  0.000006 -0.000000 -0.000017  0.000000
                                 0.000042 -0.000000 -0.000075  0.000000  0.000027 -0.000000 -0.000624  0.000000  0.012756 -0.000000
                                -0.020560  0.000000 -0.075315  0.000000 -0.128630  0.000000 -0.086432  0.000000  0.068807  0.000000
                                -0.043329 -0.000000  0.003464  0.000000  0.000000 -0.000000 -0.000000  0.000000  0.000000 -0.000000
                                -0.000002  0.000000  0.000009 -0.000000  0.000011  0.000000 -0.000356  0.000000 -0.001079  0.000000
                                -0.001484  0.000000 -0.009113  0.000000  0.004392  0.000000  0.011386 -0.000000 -0.004706  0.000000
                                 0.000001 -0.000000 -0.000000 -0.000010 -0.000000  0.000000 -0.000149 -0.000000  0.000000 -0.003061
                                -0.000000  0.000000  0.005967  0.000000 -0.000000 -0.002317 -0.000000  0.000000 -0.000000  0.000000
                                -0.000051  0.000000 -0.000000  0.000455 -0.000000  0.000000 -0.001778 -0.000000  0.000001 -0.000004
                                 0.000025 -0.000214  0.008349 -0.015464  0.031055  0.099800  0.094314 -0.030835 -0.008514 -0.013742
                                 0.005449  0.046538  0.151368  0.247365  0.215743  0.058033  0.002923 -0.001438 -0.002411  0.000000
                                -0.010838 -0.000000 -0.015565  0.000000 -0.000282 -0.000000  0.002472  0.000000  0.004789  0.000000

   5.1   0    -0.2492   -5.1367 -0.000000  0.000000 -0.000000  0.000000 -0.000000  0.000000 -0.000000  0.000000 -0.000000  0.000001
                                -0.000001  0.000003 -0.000008  0.000017 -0.000038  0.000083 -0.000173  0.000330 -0.000509  0.006943
                                -0.049799  0.071890  0.066894 -0.053048 -0.173910 -0.161119 -0.052006  0.262404  0.415506  0.045989
                                 0.118482  0.000000 -0.000000  0.000000 -0.000000  0.000000 -0.000000  0.000000 -0.000000  0.000002
                                -0.000005  0.000015 -0.000040  0.000106 -0.000292  0.000904 -0.009619  0.029166 -0.032601 -0.024256
                                 0.046823  0.114546 -0.007613  0.109002 -0.083720 -0.125599 -0.278370  0.023472  0.000000 -0.000000
                                -0.000000  0.000000  0.000001 -0.000000 -0.000003  0.000000  0.000009 -0.000000 -0.000027  0.000000
                                 0.000068 -0.000000 -0.000132  0.000000  0.000129 -0.000000 -0.000903 -0.000000  0.014806  0.000000
                                -0.023943 -0.000000 -0.082429 -0.000000 -0.144692 -0.000000 -0.146690 -0.000000  0.027034 -0.000000
                                -0.080017 -0.000000  0.022367  0.000000 -0.000000  0.000000  0.000000 -0.000000 -0.000002  0.000000
                                 0.000006 -0.000000 -0.000011  0.000000  0.000065 -0.000000 -0.000514  0.000000 -0.000894 -0.000000
                                -0.002887 -0.000000 -0.007368  0.000000  0.010513  0.000000  0.000229  0.000000  0.000732  0.000000
                                 0.000002  0.000000  0.000000 -0.000013  0.000000 -0.000000 -0.000081  0.000000  0.000000 -0.000943
                                 0.000000  0.000000  0.004108 -0.000000 -0.000000 -0.002893  0.000000  0.000000 -0.000000 -0.000000
                                -0.000044 -0.000000  0.000000  0.000359 -0.000000 -0.000000 -0.001518 -0.000000  0.000000 -0.000001
                                 0.000004 -0.000039  0.001824 -0.004388  0.007088  0.028487  0.027246  0.047363 -0.001297 -0.002946
                                 0.005121  0.043716  0.143443  0.233204  0.216249  0.065444  0.002906 -0.001349 -0.001499  0.000000
                                -0.006731 -0.000000 -0.010886  0.000000 -0.000162 -0.000000  0.002183  0.000000  0.004526  0.000000

   6.1   0    -0.1751   -5.3858 -0.000000  0.000000 -0.000000  0.000000 -0.000000  0.000000 -0.000000  0.000000 -0.000000  0.000000
                                -0.000000  0.000000 -0.000000  0.000000 -0.000000 -0.000000  0.000000 -0.000000  0.000000 -0.000000
                                 0.000000 -0.000000 -0.000000  0.000000  0.000000  0.000000 -0.000000  0.000000 -0.000000  0.000000
                                -0.000000 -0.000000  0.000000  0.000000 -0.000000  0.000000 -0.000000  0.000000 -0.000000  0.000000
                                -0.000000  0.000000 -0.000000  0.000000 -0.000000  0.000000 -0.000000  0.000000 -0.000000 -0.000000
                                 0.000000  0.000000 -0.000000  0.000000 -0.000001 -0.000000 -0.000000  0.000001 -0.000000 -0.000000
                                 0.000000  0.000000 -0.000000 -0.000001  0.000000  0.000002 -0.000000 -0.000008  0.000000  0.000023
                                -0.000000 -0.000050  0.000000  0.000050  0.000000  0.000282  0.000000  0.001254 -0.000000 -0.038273
                                 0.000000  0.061761  0.000000  0.235323  0.000000  0.387386  0.000000  0.408353  0.000000  0.082356
                                -0.000000  0.097186  0.000000  0.057781  0.000000  0.000000 -0.000000 -0.000001  0.000000  0.000003
                                -0.000000 -0.000011  0.000000  0.000037 -0.000000 -0.000042 -0.000000 -0.000347 -0.000000 -0.001494
                                -0.000000 -0.002264 -0.000000 -0.014268 -0.000000 -0.030928 -0.000000 -0.011860 -0.000000 -0.011528
                                -0.000000  0.000000 -0.000017  0.000000 -0.000000  0.000083 -0.000000  0.000000 -0.000576 -0.000000
                                -0.000000 -0.008345 -0.000000 -0.000000 -0.006425 -0.000000  0.000000 -0.000550  0.000004  0.000000
                                -0.000000 -0.000026  0.000000  0.000000 -0.000035 -0.000000 -0.000000  0.000000 -0.000000  0.000000
                                -0.000000 -0.000000  0.000000 -0.000000  0.000000  0.000000  0.000000  0.000000  0.000000 -0.000000
                                 0.000000  0.000000  0.000000  0.000000  0.000000  0.000000  0.000000 -0.000000  0.000000  0.000430
                                 0.000000  0.001963  0.000000  0.002318  0.000000  0.000038  0.000000 -0.000149 -0.000000 -0.000848

                                   1 2px     1 2px     1 2px     1 2px     1 2px     1 2px     1 2px     1 2px     1 2px     1 2px
                                   1 2px     1 2px     1 2px     1 2px     1 2px     1 2px     1 2px     1 2px     1 2px     1 2px
                                   1 2px     1 2px     1 2px     1 2px     1 2px     1 2px     1 2px     1 3d1+    1 3d1+    1 3d1+
                                   1 3d1+    1 3d1+    1 3d1+    1 3d1+    1 3d1+    1 3d1+    1 3d1+    1 3d1+    1 3d1+    1 3d1+
                                   1 3d1+    1 3d1+    1 3d1+    1 3d1+    1 3d1+    1 4f1+    1 4f3+    1 4f1+    1 4f3+    1 4f1+
                                   1 4f3+    1 4f1+    1 4f3+    1 4f1+    1 4f3+    1 4f1+    1 4f3+    1 4f1+    1 4f3+    1 4f1+
                                   1 4f3+    1 4f1+    1 4f3+    1 4f1+    1 4f3+    1 4f1+    1 4f3+    1 4f1+    1 4f3+    1 4f1+
                                   1 4f3+    1 5g1+    1 5g3+    1 5g1+    1 5g3+    1 5g1+    1 5g3+    1 5g1+    1 5g3+    1 5g1+
                                   1 5g3+    1 5g1+    1 5g3+    1 6h1+    1 6h3+    1 6h5+    1 6h1+    1 6h3+    1 6h5+    1 6h1+
                                   1 6h3+    1 6h5+    2 2px     2 2px     2 2px     2 2px     2 2px     2 2px     2 2px     2 2px
                                   2 3d1+    2 3d1+    2 3d1+    2 3d1+    2 4f1+    2 4f3+    2 4f1+    2 4f3+

   1.2   2    -1.8371  -10.0777  0.000000 -0.000000  0.000000 -0.000000  0.000000 -0.000000  0.000000 -0.000001  0.000004 -0.000014
                                 0.000039 -0.000108  0.000285 -0.000782  0.002451 -0.040113  0.139358 -0.160156 -0.160913  0.274915
                                 0.525093  0.023857  0.336705  0.046288  0.044852 -0.005285 -0.044372 -0.000000  0.000000 -0.000000
                                 0.000001 -0.000002  0.000005 -0.000014  0.000032 -0.000072  0.000104  0.000410 -0.000524 -0.004678
                                -0.008752 -0.000926 -0.000480  0.000473 -0.000299 -0.000000  0.000000  0.000000 -0.000000 -0.000001
                                 0.000000  0.000002 -0.000000 -0.000004  0.000000  0.000029 -0.000000 -0.000246  0.000000 -0.000222
                                -0.000000 -0.003182  0.000000 -0.001896 -0.000000  0.000396  0.000000 -0.000446 -0.000000  0.000046
                                 0.000000 -0.000002 -0.000000  0.000012  0.000000 -0.000072  0.000000 -0.000073 -0.000000 -0.000053
                                 0.000000 -0.000071 -0.000000 -0.000000  0.000000 -0.000000 -0.000073  0.000000 -0.000000  0.000113
                                 0.000000  0.000000  0.000050  0.000436  0.001303  0.002150  0.001565  0.000410  0.000005 -0.000013
                                -0.000082 -0.000567 -0.000503 -0.000011  0.000046  0.000000  0.000373 -0.000000

   2.2   2    -0.6125   -7.0078 -0.000000  0.000000 -0.000000  0.000000 -0.000000  0.000000 -0.000000  0.000000 -0.000000  0.000001
                                -0.000002  0.000006 -0.000015  0.000041 -0.000126  0.001775 -0.005989  0.006964  0.006248 -0.011790
                                -0.024181 -0.000548 -0.024510 -0.016960  0.032924  0.030964  0.013059 -0.000000  0.000000 -0.000000
                                 0.000001 -0.000004  0.000012 -0.000031  0.000063 -0.000082  0.000377 -0.005076  0.008104  0.027153
                                 0.047843  0.058672 -0.038635  0.066886 -0.028146 -0.000000 -0.000000  0.000002  0.000000 -0.000008
                                -0.000000  0.000026  0.000000 -0.000078 -0.000000  0.000145  0.000000  0.000087 -0.000000  0.001977
                                 0.000000  0.000718 -0.000000  0.013628  0.000000  0.006242  0.000000  0.003372  0.000000 -0.000812
                                -0.000000  0.000004  0.000000 -0.000014 -0.000000  0.000330 -0.000000  0.005536  0.000000 -0.005008
                                 0.000000  0.003618 -0.000000  0.000069 -0.000000  0.000000 -0.000560 -0.000000 -0.000000  0.001865
                                -0.000000  0.000000  0.010069  0.086742  0.284657  0.444502  0.359152  0.041590  0.005402 -0.002652
                                -0.002203 -0.009215 -0.022970 -0.000228  0.002995  0.000000  0.007532 -0.000000

   3.2   0    -0.1753   -4.3124  0.000000 -0.000000  0.000000 -0.000000  0.000000 -0.000000  0.000000 -0.000000  0.000002 -0.000005
                                 0.000014 -0.000038  0.000100 -0.000275  0.000853 -0.009663  0.030123 -0.034122 -0.026347  0.050298
                                 0.128922 -0.024423  0.133237 -0.078517 -0.124175 -0.433115 -0.167079 -0.000000  0.000000 -0.000000
                                 0.000002 -0.000006  0.000016 -0.000034  0.000035  0.000184  0.000844 -0.025556  0.041251  0.157277
                                 0.253790  0.277964  0.132232  0.008408  0.100974  0.000000  0.000000 -0.000000 -0.000000  0.000001
                                 0.000000 -0.000006 -0.000000  0.000021  0.000000 -0.000000 -0.000000 -0.000487  0.000000 -0.001375
                                -0.000000 -0.003749  0.000000 -0.012823 -0.000000 -0.016452 -0.000000 -0.002440  0.000000 -0.004818
                                -0.000000 -0.000016 -0.000000  0.000081  0.000000 -0.000545  0.000000 -0.008098 -0.000000 -0.005549
                                -0.000000 -0.000133  0.000000 -0.000000  0.000000 -0.000000 -0.000019  0.000000  0.000000 -0.000051
                                 0.000000 -0.000000 -0.000596 -0.005123 -0.017260 -0.026580 -0.025588 -0.019582 -0.000386  0.000156
                                -0.000299 -0.002318  0.000596 -0.000039  0.000006 -0.000000  0.000963  0.000000

   4.2   0    -0.1251   -4.6751 -0.000000  0.000000 -0.000000  0.000000 -0.000000  0.000000 -0.000000  0.000000 -0.000000  0.000001
                                -0.000003  0.000007 -0.000019  0.000050 -0.000157  0.004214 -0.016421  0.020139  0.020896 -0.039973
                                -0.066990 -0.024260 -0.063624 -2.250082  0.045481  0.384372  2.653131 -0.000000  0.000000 -0.000000
                                 0.000002 -0.000005  0.000015 -0.000031  0.000018  0.000266  0.000897 -0.030007  0.048608  0.186615
                                 0.306852  0.304201 -0.078498  0.228900 -0.088239  0.000000  0.000000 -0.000001 -0.000000  0.000006
                                 0.000000 -0.000021 -0.000000  0.000067  0.000000 -0.000095 -0.000000 -0.000414  0.000000 -0.002339
                                 0.000000 -0.002241 -0.000000 -0.019919  0.000000 -0.059818  0.000000 -0.032888 -0.000000 -0.038152
                                 0.000000 -0.000019  0.000000  0.000096  0.000000 -0.000682 -0.000000 -0.010212 -0.000000 -0.010072
                                -0.000000 -0.000497 -0.000000  0.000002  0.000000  0.000000 -0.000011  0.000000 -0.000000 -0.000097
                                 0.000000  0.000000 -0.002457 -0.021165 -0.071188 -0.109622 -0.104797 -0.064887 -0.001553  0.000643
                                -0.001153 -0.006424 -0.003550 -0.000106 -0.000345 -0.000000  0.000892  0.000000

                                   1 2py     1 2py     1 2py     1 2py     1 2py     1 2py     1 2py     1 2py     1 2py     1 2py
                                   1 2py     1 2py     1 2py     1 2py     1 2py     1 2py     1 2py     1 2py     1 2py     1 2py
                                   1 2py     1 2py     1 2py     1 2py     1 2py     1 2py     1 2py     1 3d1-    1 3d1-    1 3d1-
                                   1 3d1-    1 3d1-    1 3d1-    1 3d1-    1 3d1-    1 3d1-    1 3d1-    1 3d1-    1 3d1-    1 3d1-
                                   1 3d1-    1 3d1-    1 3d1-    1 3d1-    1 3d1-    1 4f1-    1 4f3-    1 4f1-    1 4f3-    1 4f1-
                                   1 4f3-    1 4f1-    1 4f3-    1 4f1-    1 4f3-    1 4f1-    1 4f3-    1 4f1-    1 4f3-    1 4f1-
                                   1 4f3-    1 4f1-    1 4f3-    1 4f1-    1 4f3-    1 4f1-    1 4f3-    1 4f1-    1 4f3-    1 4f1-
                                   1 4f3-    1 5g1-    1 5g3-    1 5g1-    1 5g3-    1 5g1-    1 5g3-    1 5g1-    1 5g3-    1 5g1-
                                   1 5g3-    1 5g1-    1 5g3-    1 6h1-    1 6h3-    1 6h5-    1 6h1-    1 6h3-    1 6h5-    1 6h1-
                                   1 6h3-    1 6h5-    2 2py     2 2py     2 2py     2 2py     2 2py     2 2py     2 2py     2 2py
                                   2 3d1-    2 3d1-    2 3d1-    2 3d1-    2 4f1-    2 4f3-    2 4f1-    2 4f3-

   1.3   2    -1.8371  -10.0777  0.000000 -0.000000  0.000000 -0.000000  0.000000 -0.000000  0.000000 -0.000001  0.000004 -0.000014
                                 0.000039 -0.000108  0.000285 -0.000782  0.002451 -0.040113  0.139358 -0.160156 -0.160913  0.274915
                                 0.525093  0.023857  0.336705  0.046288  0.044852 -0.005285 -0.044372 -0.000000  0.000000 -0.000000
                                 0.000001 -0.000002  0.000005 -0.000014  0.000032 -0.000072  0.000104  0.000410 -0.000524 -0.004678
                                -0.008752 -0.000926 -0.000480  0.000473 -0.000299 -0.000000  0.000000  0.000000 -0.000000 -0.000001
                                 0.000000  0.000002 -0.000000 -0.000004  0.000000  0.000029 -0.000000 -0.000246  0.000000 -0.000222
                                -0.000000 -0.003182  0.000000 -0.001896  0.000000  0.000396 -0.000000 -0.000446  0.000000  0.000046
                                 0.000000 -0.000002 -0.000000  0.000012  0.000000 -0.000072 -0.000000 -0.000073 -0.000000 -0.000053
                                 0.000000 -0.000071 -0.000000 -0.000000  0.000000  0.000000 -0.000073  0.000000 -0.000000  0.000113
                                 0.000000  0.000000  0.000050  0.000436  0.001303  0.002150  0.001565  0.000410  0.000005 -0.000013
                                -0.000082 -0.000567 -0.000503 -0.000011  0.000046  0.000000  0.000373  0.000000

   2.3   2    -0.6125   -7.0078 -0.000000  0.000000 -0.000000  0.000000 -0.000000  0.000000 -0.000000  0.000000 -0.000000  0.000001
                                -0.000002  0.000006 -0.000015  0.000041 -0.000126  0.001775 -0.005989  0.006964  0.006248 -0.011790
                                -0.024181 -0.000548 -0.024510 -0.016960  0.032924  0.030964  0.013059 -0.000000  0.000000 -0.000000
                                 0.000001 -0.000004  0.000012 -0.000031  0.000063 -0.000082  0.000377 -0.005076  0.008104  0.027153
                                 0.047843  0.058672 -0.038635  0.066886 -0.028146 -0.000000  0.000000  0.000002  0.000000 -0.000008
                                -0.000000  0.000026  0.000000 -0.000078  0.000000  0.000145  0.000000  0.000087 -0.000000  0.001977
                                 0.000000  0.000718 -0.000000  0.013628  0.000000  0.006242  0.000000  0.003372  0.000000 -0.000812
                                -0.000000  0.000004  0.000000 -0.000014  0.000000  0.000330 -0.000000  0.005536  0.000000 -0.005008
                                 0.000000  0.003618 -0.000000  0.000069  0.000000  0.000000 -0.000560 -0.000000 -0.000000  0.001865
                                 0.000000  0.000000  0.010069  0.086742  0.284657  0.444502  0.359152  0.041590  0.005402 -0.002652
                                -0.002203 -0.009215 -0.022970 -0.000228  0.002995  0.000000  0.007532  0.000000

   3.3   0    -0.1753   -4.3124  0.000000 -0.000000  0.000000 -0.000000  0.000000 -0.000000  0.000000 -0.000000  0.000002 -0.000005
                                 0.000014 -0.000038  0.000100 -0.000275  0.000853 -0.009663  0.030123 -0.034122 -0.026347  0.050298
                                 0.128922 -0.024423  0.133237 -0.078516 -0.124175 -0.433115 -0.167080 -0.000000  0.000000 -0.000000
                                 0.000002 -0.000006  0.000016 -0.000034  0.000035  0.000184  0.000844 -0.025556  0.041251  0.157277
                                 0.253790  0.277964  0.132232  0.008408  0.100974  0.000000 -0.000000 -0.000000  0.000000  0.000001
                                -0.000000 -0.000006  0.000000  0.000021 -0.000000 -0.000000  0.000000 -0.000487 -0.000000 -0.001375
                                 0.000000 -0.003749  0.000000 -0.012823  0.000000 -0.016452  0.000000 -0.002440 -0.000000 -0.004818
                                 0.000000 -0.000016 -0.000000  0.000081  0.000000 -0.000545  0.000000 -0.008098 -0.000000 -0.005549
                                -0.000000 -0.000133  0.000000 -0.000000  0.000000 -0.000000 -0.000019  0.000000  0.000000 -0.000051
                                 0.000000 -0.000000 -0.000596 -0.005123 -0.017260 -0.026580 -0.025588 -0.019582 -0.000386  0.000156
                                -0.000299 -0.002318  0.000596 -0.000039  0.000006 -0.000000  0.000963 -0.000000

   4.3   0    -0.1251   -4.6751 -0.000000  0.000000 -0.000000  0.000000 -0.000000  0.000000 -0.000000  0.000000 -0.000000  0.000001
                                -0.000003  0.000007 -0.000019  0.000050 -0.000157  0.004214 -0.016421  0.020139  0.020896 -0.039973
                                -0.066990 -0.024260 -0.063624 -2.250081  0.045481  0.384372  2.653131 -0.000000  0.000000 -0.000000
                                 0.000002 -0.000005  0.000015 -0.000031  0.000018  0.000266  0.000897 -0.030007  0.048608  0.186615
                                 0.306852  0.304201 -0.078498  0.228900 -0.088239  0.000000  0.000000 -0.000001  0.000000  0.000006
                                -0.000000 -0.000021  0.000000  0.000067 -0.000000 -0.000095  0.000000 -0.000414 -0.000000 -0.002339
                                -0.000000 -0.002241  0.000000 -0.019919 -0.000000 -0.059818 -0.000000 -0.032888  0.000000 -0.038152
                                -0.000000 -0.000019  0.000000  0.000096 -0.000000 -0.000682  0.000000 -0.010212 -0.000000 -0.010072
                                 0.000000 -0.000497 -0.000000  0.000002  0.000000  0.000000 -0.000011  0.000000 -0.000000 -0.000097
                                 0.000000  0.000000 -0.002457 -0.021165 -0.071188 -0.109622 -0.104797 -0.064887 -0.001553  0.000643
                                -0.001153 -0.006424 -0.003550 -0.000106 -0.000345 -0.000000  0.000892  0.000000

                                   1 3d2-    1 3d2-    1 3d2-    1 3d2-    1 3d2-    1 3d2-    1 3d2-    1 3d2-    1 3d2-    1 3d2-
                                   1 3d2-    1 3d2-    1 3d2-    1 3d2-    1 3d2-    1 3d2-    1 3d2-    1 3d2-    1 4f2-    1 4f2-
                                   1 4f2-    1 4f2-    1 4f2-    1 4f2-    1 4f2-    1 4f2-    1 4f2-    1 4f2-    1 4f2-    1 4f2-
                                   1 4f2-    1 5g2-    1 5g4-    1 5g2-    1 5g4-    1 5g2-    1 5g4-    1 5g2-    1 5g4-    1 5g2-
                                   1 5g4-    1 5g2-    1 5g4-    1 6h4-    1 6h2-    1 6h4-    1 6h2-    1 6h4-    1 6h2-    2 3d2-
                                   2 3d2-    2 3d2-    2 3d2-    2 4f2-    2 4f2-

   1.4   0    -0.1751   -5.3858 -0.000000  0.000000 -0.000001  0.000002 -0.000008  0.000023 -0.000050  0.000050  0.000282  0.001254
                                -0.038273  0.061761  0.235323  0.387386  0.408353  0.082356  0.097186  0.057781  0.000000 -0.000001
                                 0.000003 -0.000011  0.000037 -0.000042 -0.000347 -0.001494 -0.002264 -0.014268 -0.030928 -0.011860
                                -0.011528 -0.000017  0.000000  0.000083 -0.000000 -0.000576  0.000000 -0.008345 -0.000000 -0.006425
                                -0.000000 -0.000550  0.000000  0.000000  0.000004  0.000000 -0.000026  0.000000 -0.000035  0.000430
                                 0.001963  0.002318  0.000038 -0.000149 -0.000848

   2.4   0    -0.0452   -2.2020 -0.000000  0.000000 -0.000002  0.000007 -0.000025  0.000073 -0.000195  0.000472 -0.001108  0.001395
                                 0.011503 -0.018402 -0.104008 -0.121303 -0.351651  2.263609 -4.550290  3.404346 -0.000000  0.000002
                                -0.000009  0.000031 -0.000087  0.000206 -0.000406  0.001120 -0.001901  0.009192 -0.031573  0.051292
                                -0.262343  0.000007 -0.000000 -0.000036  0.000000  0.000249 -0.000000  0.003305  0.000000 -0.002438
                                 0.000000 -0.002560 -0.000000 -0.000000  0.000004 -0.000000 -0.000036 -0.000000  0.000144  0.000031
                                 0.000185  0.000055  0.000003  0.000086 -0.000137

 HOMO      4.1    -0.497106 =     -13.5269eV
 LUMO      5.1    -0.249243 =      -6.7823eV
 LUMO-HOMO         0.247862 =       6.7447eV


 **********************************************************************************************************************************
 DATASETS  * FILE   NREC   LENGTH (MB)   RECORD NAMES
              1      19       22.47       500      610      700      900      950      970     1000      129      960     1100
                                          VAR    BASINP    GEOM    SYMINP    ZMAT    AOBASIS   BASIS     P2S    ABASIS      S
                                         1400     1410     1420     1200     1210     1080     1600     1650     1700
                                           T        V       ECP      H0       H01     AOSYM     SMH    MOLCAS    OPER

              2       4        4.02       700     1000      520     2202
                                         GEOM     BASIS   MCVARS     RHF

 PROGRAMS   *        TOTAL       RHF       INT
 CPU TIMES  *        94.67      9.92     84.33
 REAL TIME  *       109.16 SEC
 DISK USED  *         9.06 GB
 SF USED    *         0.24 MB
 GA USED    *         0.00 MB       (max)       0.00 MB       (current)
 **********************************************************************************************************************************
   -->
   <time start="20:05:35" end="20:07:24" cpu="94.67" system="13.99" real="109.16"/>
   <storage units="megabyte" memory="8001.84" sf="0.24" df="339.45" eaf="8722.12" ga="0.0"/>
  </jobstep><!--
  --><jobstep command="RHF-SCF" commandset="SCFPRO">
   <!--


 PROGRAM * RHF-SCF (OPEN SHELL)       Authors: W. Meyer, H.-J. Werner


 NUMBER OF ELECTRONS:       9+    8-    SPACE SYMMETRY=1    SPIN SYMMETRY: Doublet
 CONVERGENCE THRESHOLDS:    1.00E-05 (Density)    1.00E-07 (Energy)
 MAX. NUMBER OF ITERATIONS:      200
 INTERPOLATION TYPE:            DIIS
 INTERPOLATION STEPS:              2 (START)      1 (STEP)
 LEVEL SHIFTS:                 -0.60 (CLOSED) -0.30 (OPEN)

 Number of closed-shell orbitals:    8 (   4   2   2   0 )
 Number of open-shell orbitals:      1 (   1   0   0   0 )


 Molecular orbitals read from record     2202.2  Type=RHF/CANONICAL (state 1.1)

 Molecular orbital dump at record        3202.2

 ITERATION    DDIFF          GRAD             ENERGY        2-EL.EN.            DIPOLE MOMENTS         DIIS   ORB.
    1      0.000D+00      0.000D+00       -57.13548036    105.972767    0.00000    0.00000   -3.14835    0    start
    2      0.000D+00      0.286D-02       -57.15150424    104.670797    0.00000    0.00000   -2.81470    1    diag,B
    3      0.180D-02      0.143D-02       -57.15760538    104.633892    0.00000    0.00000   -2.86314    2    diag,B
    4      0.775D-03      0.887D-03       -57.16725415    104.239627    0.00000    0.00000   -2.68840    3    diag,B
    5      0.111D-02      0.792D-03       -57.17713217    103.967569    0.00000    0.00000   -2.46208    4    diag,B
    6      0.130D-02      0.807D-03       -57.17119874    104.111518    0.00000    0.00000   -2.62068    5    diag,B
    7      0.744D-03      0.781D-03       -57.15226015    104.604886    0.00000    0.00000   -3.25517    6    diag,B
    8      0.203D-02      0.872D-03       -57.15018492    104.588880    0.00000    0.00000   -3.23044    7    orth
    9      0.696D-03      0.114D-02       -57.14951445    104.698141    0.00000    0.00000   -3.55631    8    diag,B
   10      0.316D-02      0.855D-03       -57.14479962    104.765043    0.00000    0.00000   -3.68867    9    diag,B
   11      0.100D-02      0.138D-02       -57.14877683    104.799659    0.00000    0.00000   -3.73336    9    diag,B
   12      0.139D-02      0.764D-03       -57.14994268    104.900499    0.00000    0.00000   -3.94340    9    diag,B
   13      0.939D-03      0.375D-03       -57.14967718    104.951984    0.00000    0.00000   -4.08977    9    diag,B
   14      0.205D-02      0.387D-03       -57.14893106    104.948379    0.00000    0.00000   -4.15677    9    diag,B
   15      0.174D-02      0.662D-03       -57.14887536    104.924611    0.00000    0.00000   -4.14159    9    diag,B
   16      0.115D-02      0.706D-03       -57.14888686    104.922908    0.00000    0.00000   -4.14132    9    diag,B
   17      0.391D-04      0.707D-03       -57.14984757    104.910774    0.00000    0.00000   -4.12175    9    diag,B
   18      0.406D-03      0.481D-03       -57.15066409    104.868786    0.00000    0.00000   -4.02557    9    orth
   19      0.479D-03      0.173D-03       -57.15057036    104.840242    0.00000    0.00000   -4.00112    9    diag,B
   20      0.408D-03      0.220D-03       -57.15070514    104.847721    0.00000    0.00000   -3.99789    9    diag,B
   21      0.276D-03      0.136D-03       -57.15068994    104.859099    0.00000    0.00000   -4.02733    9    diag,B
   22      0.718D-03      0.111D-03       -57.15075234    104.856926    0.00000    0.00000   -4.02676    9    diag,B
   23      0.619D-04      0.103D-03       -57.15075862    104.855579    0.00000    0.00000   -4.02292    9    diag,B
   24      0.256D-04      0.104D-03       -57.15051179    104.914347    0.00000    0.00000   -4.11627    9    diag,B
   25      0.440D-03      0.756D-04       -57.15038363    104.943832    0.00000    0.00000   -4.15824    9    diag,B
   26      0.310D-03      0.700D-04       -57.15032898    104.957510    0.00000    0.00000   -4.17790    9    diag,B
   27      0.450D-03      0.650D-04       -57.15029544    104.955217    0.00000    0.00000   -4.17898    9    diag,B
   28      0.772D-04      0.689D-04       -57.15030647    104.956576    0.00000    0.00000   -4.17973    9    orth
   29      0.650D-04      0.677D-04       -57.15029726    104.958989    0.00000    0.00000   -4.18349    9    diag,B
   30      0.292D-04      0.681D-04       -57.15032306    104.953700    0.00000    0.00000   -4.17355    9    diag,B
   31      0.636D-04      0.676D-04       -57.15033014    104.952850    0.00000    0.00000   -4.17113    9    diag,B
   32      0.302D-04      0.676D-04       -57.15034207    104.952179    0.00000    0.00000   -4.17360    9    diag,B
   33      0.906D-04      0.684D-04       -57.15037504    104.949686    0.00000    0.00000   -4.16088    9    diag,B
   34      0.529D-04      0.652D-04       -57.15043856    104.941094    0.00000    0.00000   -4.14535    9    diag,B
   35      0.520D-04      0.670D-04       -57.14996325    104.982201    0.00000    0.00000   -4.23817    9    diag,B
   36      0.414D-03      0.823D-04       -57.15013525    104.975891    0.00000    0.00000   -4.21363    9    diag,B
   37      0.256D-03      0.717D-04       -57.15008923    104.978050    0.00000    0.00000   -4.21862    9    diag,B
   38      0.620D-04      0.718D-04       -57.15013102    104.974609    0.00000    0.00000   -4.21134    9    orth
   39      0.364D-04      0.714D-04       -57.15042977    104.944383    0.00000    0.00000   -4.15395    9    diag,B
   40      0.247D-03      0.820D-04       -57.14785141    104.924844    0.00000    0.00000   -4.27057    9    diag,B
   41      0.127D-02      0.450D-03       -57.15238324    104.712479    0.00000    0.00000   -3.80881    9    diag,B
   42      0.216D-02      0.335D-03       -57.15122654    104.835845    0.00000    0.00000   -3.99433    9    diag,B
   43      0.710D-03      0.173D-03       -57.14877349    104.955788    0.00000    0.00000   -4.27618    9    diag,B
   44      0.142D-02      0.293D-03       -57.14919575    104.965221    0.00000    0.00000   -4.27091    9    diag,B
   45      0.196D-03      0.232D-03       -57.15006728    104.958211    0.00000    0.00000   -4.20579    9    diag,B
   46      0.688D-03      0.115D-03       -57.15079710    104.879056    0.00000    0.00000   -4.06363    9    diag,B
   47      0.760D-03      0.170D-03       -57.14811201    104.920462    0.00000    0.00000   -4.25653    9    diag,B
   48      0.169D-02      0.440D-03       -57.15260032    104.699944    0.00000    0.00000   -3.78779    9    orth
   49      0.241D-02      0.356D-03       -57.15056027    104.915105    0.00000    0.00000   -4.12235    9    diag,B
   50      0.131D-02      0.106D-03       -57.15011080    104.954771    0.00000    0.00000   -4.20054    9    diag,B
   51      0.308D-03      0.110D-03       -57.14788997    104.910925    0.00000    0.00000   -4.24744    9    diag,B
   52      0.105D-02      0.475D-03       -57.15020532    104.945000    0.00000    0.00000   -4.18413    9    diag,B
   53      0.136D-02      0.127D-03       -57.15080124    104.880723    0.00000    0.00000   -4.07059    9    diag,B
   54      0.597D-03      0.172D-03       -57.14871013    104.945207    0.00000    0.00000   -4.26608    9    diag,B
   55      0.148D-02      0.344D-03       -57.15186430    104.774876    0.00000    0.00000   -3.89999    9    diag,B
   56      0.180D-02      0.259D-03       -57.14977806    104.971376    0.00000    0.00000   -4.24197    9    diag,B
   57      0.153D-02      0.129D-03       -57.14866858    104.942083    0.00000    0.00000   -4.26305    9    fixocc
   58      0.525D-03      0.341D-03       -57.14932733    104.966590    0.00000    0.00000   -4.26675    9    orth
   59      0.432D-03      0.215D-03       -57.14974848    104.973063    0.00000    0.00000   -4.25433    9    diag,B
   60      0.667D-03      0.151D-03       -57.15054189    104.923201    0.00000    0.00000   -4.13776    9    diag,B
   61      0.558D-03      0.117D-03       -57.14983551    104.991636    0.00000    0.00000   -4.25196    9    diag,B
   62      0.910D-03      0.861D-04       -57.15080696    104.896442    0.00000    0.00000   -4.08127    9    diag,B
   63      0.720D-03      0.120D-03       -57.14865948    104.950497    0.00000    0.00000   -4.27309    9    diag,B
   64      0.137D-02      0.309D-03       -57.15060492    104.909077    0.00000    0.00000   -4.11268    9    diag,B
   65      0.118D-02      0.113D-03       -57.15117830    104.843333    0.00000    0.00000   -4.00690    9    diag,B
   66      0.395D-03      0.176D-03       -57.15008369    104.949483    0.00000    0.00000   -4.19837    9    diag,B
   67      0.663D-03      0.134D-03       -57.14852392    104.925526    0.00000    0.00000   -4.25134    9    diag,B
   68      0.780D-03      0.404D-03       -57.15040807    104.925810    0.00000    0.00000   -4.14539    9    orth
   69      0.117D-02      0.139D-03       -57.15164168    104.792986    0.00000    0.00000   -3.92827    9    diag,B
   70      0.762D-03      0.261D-03       -57.14945259    104.952602    0.00000    0.00000   -4.24181    9    diag,B
   71      0.137D-02      0.262D-03       -57.14868323    104.937523    0.00000    0.00000   -4.25643    9    diag,B
   72      0.854D-03      0.350D-03       -57.15089856    104.864672    0.00000    0.00000   -4.04374    9    diag,B
   73      0.170D-02      0.196D-03       -57.15177784    104.785579    0.00000    0.00000   -3.91447    9    diag,B
   74      0.367D-03      0.247D-03       -57.14955875    104.947802    0.00000    0.00000   -4.22679    9    diag,B
   75      0.124D-02      0.260D-03       -57.14865069    104.927606    0.00000    0.00000   -4.24623    9    diag,B
   76      0.757D-03      0.384D-03       -57.15086542    104.868476    0.00000    0.00000   -4.04855    9    diag,B
   77      0.152D-02      0.190D-03       -57.15153389    104.813507    0.00000    0.00000   -3.95517    9    diag,B
   78      0.288D-03      0.211D-03       -57.14939235    104.947672    0.00000    0.00000   -4.23549    9    orth
   79      0.131D-02      0.274D-03       -57.14861032    104.929397    0.00000    0.00000   -4.24918    9    diag,B
   80      0.579D-03      0.375D-03       -57.15084407    104.868930    0.00000    0.00000   -4.05017    9    diag,B
   81      0.151D-02      0.187D-03       -57.15166384    104.796917    0.00000    0.00000   -3.93141    9    diag,B
   82      0.376D-03      0.234D-03       -57.14948433    104.946053    0.00000    0.00000   -4.22874    9    diag,B
   83      0.131D-02      0.266D-03       -57.14862348    104.928317    0.00000    0.00000   -4.24744    9    diag,B
   84      0.555D-03      0.380D-03       -57.15081697    104.871992    0.00000    0.00000   -4.05508    9    diag,B
   85      0.143D-02      0.184D-03       -57.15159416    104.804381    0.00000    0.00000   -3.94251    9    diag,B
   86      0.375D-03      0.224D-03       -57.14944539    104.945886    0.00000    0.00000   -4.23077    9    diag,B
   87      0.131D-02      0.269D-03       -57.14863094    104.930247    0.00000    0.00000   -4.24913    9    diag,B
   88      0.509D-03      0.373D-03       -57.15082253    104.870630    0.00000    0.00000   -4.05329    9    orth
   89      0.143D-02      0.184D-03       -57.15160131    104.802802    0.00000    0.00000   -3.94056    9    diag,B
   90      0.384D-03      0.226D-03       -57.14945503    104.945542    0.00000    0.00000   -4.22995    9    diag,B
   91      0.131D-02      0.268D-03       -57.14862168    104.929796    0.00000    0.00000   -4.24886    9    diag,B
   92      0.503D-03      0.376D-03       -57.15080413    104.872527    0.00000    0.00000   -4.05661    9    diag,B
   93      0.141D-02      0.181D-03       -57.15159439    104.802953    0.00000    0.00000   -3.94108    9    diag,B
   94      0.399D-03      0.225D-03       -57.14945454    104.945232    0.00000    0.00000   -4.22974    9    diag,B
   95      0.131D-02      0.268D-03       -57.14862582    104.930469    0.00000    0.00000   -4.24931    9    diag,B
   96      0.498D-03      0.374D-03       -57.15080338    104.872327    0.00000    0.00000   -4.05653    9    diag,B
   97      0.141D-02      0.181D-03       -57.15158522    104.803575    0.00000    0.00000   -3.94225    9    diag,B
   98      0.397D-03      0.224D-03       -57.14945165    104.945129    0.00000    0.00000   -4.22985    9    orth
   99      0.131D-02      0.268D-03       -57.14862317    104.930700    0.00000    0.00000   -4.24953    9    diag,B
  100      0.497D-03      0.374D-03       -57.15079765    104.872763    0.00000    0.00000   -4.05747    9    diag,B
  101      0.140D-02      0.180D-03       -57.15158246    104.803443    0.00000    0.00000   -3.94230    9    diag,B
  102      0.401D-03      0.224D-03       -57.14945240    104.944983    0.00000    0.00000   -4.22972    9    diag,B
  103      0.131D-02      0.268D-03       -57.14862199    104.930920    0.00000    0.00000   -4.24970    9    diag,B
  104      0.498D-03      0.374D-03       -57.15079364    104.873042    0.00000    0.00000   -4.05812    9    diag,B
  105      0.140D-02      0.179D-03       -57.15157760    104.803635    0.00000    0.00000   -3.94280    9    diag,B
  106      0.401D-03      0.224D-03       -57.14945127    104.944894    0.00000    0.00000   -4.22974    9    diag,B
  107      0.131D-02      0.268D-03       -57.14862141    104.931192    0.00000    0.00000   -4.24991    9    diag,B
  108      0.499D-03      0.374D-03       -57.15079105    104.873168    0.00000    0.00000   -4.05849    9    orth
  109      0.140D-02      0.179D-03       -57.15157421    104.803705    0.00000    0.00000   -3.94309    9    diag,B
  110      0.401D-03      0.224D-03       -57.14945076    104.944825    0.00000    0.00000   -4.22973    9    diag,B
  111      0.131D-02      0.268D-03       -57.14862022    104.931381    0.00000    0.00000   -4.25006    9    diag,B
  112      0.501D-03      0.374D-03       -57.15078823    104.873346    0.00000    0.00000   -4.05893    9    diag,B
  113      0.141D-02      0.179D-03       -57.15157130    104.803749    0.00000    0.00000   -3.94332    9    diag,B
  114      0.401D-03      0.223D-03       -57.14945030    104.944765    0.00000    0.00000   -4.22973    9    diag,B
  115      0.131D-02      0.268D-03       -57.14861955    104.931577    0.00000    0.00000   -4.25021    9    diag,B
  116      0.502D-03      0.374D-03       -57.15078616    104.873451    0.00000    0.00000   -4.05923    9    diag,B
  117      0.141D-02      0.178D-03       -57.15156863    104.803804    0.00000    0.00000   -3.94354    9    diag,B
  118      0.401D-03      0.223D-03       -57.14944977    104.944720    0.00000    0.00000   -4.22973    9    orth
  119      0.131D-02      0.268D-03       -57.14861886    104.931750    0.00000    0.00000   -4.25034    9    diag,B
  120      0.503D-03      0.374D-03       -57.15078432    104.873543    0.00000    0.00000   -4.05950    9    diag,B
  121      0.141D-02      0.178D-03       -57.15156640    104.803835    0.00000    0.00000   -3.94371    9    diag,B
  122      0.401D-03      0.223D-03       -57.14944935    104.944681    0.00000    0.00000   -4.22974    9    diag,B
  123      0.131D-02      0.268D-03       -57.14861826    104.931904    0.00000    0.00000   -4.25046    9    diag,B
  124      0.505D-03      0.374D-03       -57.15078273    104.873619    0.00000    0.00000   -4.05972    9    diag,B
  125      0.141D-02      0.178D-03       -57.15156440    104.803865    0.00000    0.00000   -3.94387    9    diag,B
  126      0.401D-03      0.223D-03       -57.14944894    104.944648    0.00000    0.00000   -4.22974    9    diag,B
  127      0.131D-02      0.268D-03       -57.14861778    104.932046    0.00000    0.00000   -4.25057    9    diag,B
  128      0.505D-03      0.374D-03       -57.15078137    104.873679    0.00000    0.00000   -4.05990    9    orth
  129      0.141D-02      0.177D-03       -57.15156265    104.803889    0.00000    0.00000   -3.94400    9    diag,B
  130      0.401D-03      0.223D-03       -57.14944857    104.944621    0.00000    0.00000   -4.22974    9    diag,B
  131      0.131D-02      0.268D-03       -57.14861735    104.932173    0.00000    0.00000   -4.25067    9    diag,B
  132      0.506D-03      0.374D-03       -57.15078019    104.873728    0.00000    0.00000   -4.06006    9    diag,B
  133      0.141D-02      0.177D-03       -57.15156109    104.803910    0.00000    0.00000   -3.94411    9    diag,B
  134      0.401D-03      0.222D-03       -57.14944824    104.944597    0.00000    0.00000   -4.22975    9    diag,B
  135      0.131D-02      0.268D-03       -57.14861698    104.932288    0.00000    0.00000   -4.25076    9    diag,B
  136      0.507D-03      0.374D-03       -57.15077915    104.873770    0.00000    0.00000   -4.06019    9    diag,B
  137      0.141D-02      0.177D-03       -57.15155970    104.803928    0.00000    0.00000   -3.94422    9    diag,B
  138      0.401D-03      0.222D-03       -57.14944793    104.944577    0.00000    0.00000   -4.22975    9    orth
  139      0.131D-02      0.268D-03       -57.14861667    104.932391    0.00000    0.00000   -4.25084    9    diag,B
  140      0.507D-03      0.374D-03       -57.15077825    104.873803    0.00000    0.00000   -4.06030    9    diag,B
  141      0.141D-02      0.177D-03       -57.15155847    104.803944    0.00000    0.00000   -3.94430    9    diag,B
  142      0.401D-03      0.222D-03       -57.14944766    104.944559    0.00000    0.00000   -4.22976    9    diag,B
  143      0.131D-02      0.268D-03       -57.14861640    104.932483    0.00000    0.00000   -4.25091    9    diag,B
  144      0.508D-03      0.374D-03       -57.15077745    104.873833    0.00000    0.00000   -4.06040    9    diag,B
  145      0.141D-02      0.177D-03       -57.15155737    104.803958    0.00000    0.00000   -3.94438    9    diag,B
  146      0.401D-03      0.222D-03       -57.14944740    104.944543    0.00000    0.00000   -4.22976    9    diag,B
  147      0.131D-02      0.268D-03       -57.14861617    104.932566    0.00000    0.00000   -4.25098    9    diag,B
  148      0.508D-03      0.374D-03       -57.15077676    104.873857    0.00000    0.00000   -4.06048    9    orth
  149      0.141D-02      0.177D-03       -57.15155639    104.803972    0.00000    0.00000   -3.94445    9    diag,B
  150      0.401D-03      0.222D-03       -57.14944717    104.944530    0.00000    0.00000   -4.22976    9    diag,B
  151      0.131D-02      0.268D-03       -57.14861597    104.932641    0.00000    0.00000   -4.25104    9    diag,B
  152      0.509D-03      0.374D-03       -57.15077614    104.873878    0.00000    0.00000   -4.06056    9    diag,B
  153      0.141D-02      0.177D-03       -57.15155551    104.803984    0.00000    0.00000   -3.94452    9    diag,B
  154      0.401D-03      0.222D-03       -57.14944696    104.944517    0.00000    0.00000   -4.22976    9    diag,B
  155      0.131D-02      0.268D-03       -57.14861579    104.932708    0.00000    0.00000   -4.25109    9    diag,B
  156      0.509D-03      0.374D-03       -57.15077560    104.873896    0.00000    0.00000   -4.06062    9    diag,B
  157      0.141D-02      0.176D-03       -57.15155472    104.803996    0.00000    0.00000   -3.94457    9    diag,B
  158      0.401D-03      0.222D-03       -57.14944677    104.944507    0.00000    0.00000   -4.22977    9    orth
  159      0.131D-02      0.268D-03       -57.14861564    104.932767    0.00000    0.00000   -4.25114    9    diag,B
  160      0.509D-03      0.374D-03       -57.15077512    104.873911    0.00000    0.00000   -4.06068    9    diag,B
  161      0.141D-02      0.176D-03       -57.15155401    104.804006    0.00000    0.00000   -3.94463    9    diag,B
  162      0.401D-03      0.222D-03       -57.14944660    104.944497    0.00000    0.00000   -4.22977    9    diag,B
  163      0.131D-02      0.268D-03       -57.14861550    104.932821    0.00000    0.00000   -4.25118    9    diag,B
  164      0.509D-03      0.374D-03       -57.15077469    104.873925    0.00000    0.00000   -4.06073    9    diag,B
  165      0.141D-02      0.176D-03       -57.15155338    104.804016    0.00000    0.00000   -3.94467    9    diag,B
  166      0.401D-03      0.222D-03       -57.14944644    104.944489    0.00000    0.00000   -4.22977    9    diag,B
  167      0.131D-02      0.268D-03       -57.14861539    104.932869    0.00000    0.00000   -4.25122    9    diag,B
  168      0.510D-03      0.374D-03       -57.15077431    104.873937    0.00000    0.00000   -4.06077    9    orth
  169      0.141D-02      0.176D-03       -57.15155281    104.804025    0.00000    0.00000   -3.94471    9    diag,B
  170      0.401D-03      0.222D-03       -57.14944630    104.944481    0.00000    0.00000   -4.22977    9    diag,B
  171      0.131D-02      0.268D-03       -57.14861528    104.932911    0.00000    0.00000   -4.25126    9    diag,B
  172      0.510D-03      0.374D-03       -57.15077398    104.873947    0.00000    0.00000   -4.06081    9    diag,B
  173      0.141D-02      0.176D-03       -57.15155230    104.804034    0.00000    0.00000   -3.94475    9    diag,B
  174      0.401D-03      0.222D-03       -57.14944617    104.944475    0.00000    0.00000   -4.22978    9    diag,B
  175      0.131D-02      0.268D-03       -57.14861519    104.932950    0.00000    0.00000   -4.25129    9    diag,B
  176      0.510D-03      0.374D-03       -57.15077368    104.873956    0.00000    0.00000   -4.06084    9    diag,B
  177      0.141D-02      0.176D-03       -57.15155185    104.804041    0.00000    0.00000   -3.94478    9    diag,B
  178      0.401D-03      0.222D-03       -57.14944606    104.944469    0.00000    0.00000   -4.22978    9    orth
  179      0.131D-02      0.268D-03       -57.14861511    104.932984    0.00000    0.00000   -4.25131    9    diag,B
  180      0.510D-03      0.374D-03       -57.15077341    104.873964    0.00000    0.00000   -4.06087    9    diag,B
  181      0.141D-02      0.176D-03       -57.15155144    104.804048    0.00000    0.00000   -3.94481    9    diag,B
  182      0.401D-03      0.222D-03       -57.14944595    104.944463    0.00000    0.00000   -4.22978    9    diag,B
  183      0.131D-02      0.268D-03       -57.14861504    104.933015    0.00000    0.00000   -4.25134    9    diag,B
  184      0.510D-03      0.374D-03       -57.15077317    104.873971    0.00000    0.00000   -4.06090    9    diag,B
  185      0.141D-02      0.176D-03       -57.15155108    104.804055    0.00000    0.00000   -3.94484    9    diag,B
  186      0.401D-03      0.222D-03       -57.14944586    104.944459    0.00000    0.00000   -4.22978    9    diag,B
  187      0.131D-02      0.268D-03       -57.14861498    104.933042    0.00000    0.00000   -4.25136    9    diag,B
  188      0.510D-03      0.374D-03       -57.15077296    104.873977    0.00000    0.00000   -4.06092    9    orth
  189      0.141D-02      0.176D-03       -57.15155075    104.804061    0.00000    0.00000   -3.94486    9    diag,B
  190      0.401D-03      0.222D-03       -57.14944578    104.944454    0.00000    0.00000   -4.22978    9    diag,B
  191      0.131D-02      0.268D-03       -57.14861493    104.933066    0.00000    0.00000   -4.25138    9    diag,B
  192      0.510D-03      0.374D-03       -57.15077278    104.873982    0.00000    0.00000   -4.06094    9    diag,B
  193      0.141D-02      0.176D-03       -57.15155045    104.804067    0.00000    0.00000   -3.94488    9    diag,B
  194      0.401D-03      0.221D-03       -57.14944570    104.944451    0.00000    0.00000   -4.22978    9    diag,B
  195      0.131D-02      0.268D-03       -57.14861487    104.933088    0.00000    0.00000   -4.25140    9    diag,B
  196      0.510D-03      0.374D-03       -57.15077261    104.873988    0.00000    0.00000   -4.06096    9    diag,B
  197      0.141D-02      0.176D-03       -57.15155019    104.804072    0.00000    0.00000   -3.94490    9    diag,B
  198      0.401D-03      0.221D-03       -57.14944563    104.944447    0.00000    0.00000   -4.22978    9    orth
  199      0.131D-02      0.268D-03       -57.14856323    104.939563    0.00000    0.00000   -4.25626    9    orth
  200      0.511D-03      0.365D-03       -57.14895967    105.031787    0.00000    0.00000   -4.29790    0    orth

 Final alpha occupancy:   5   2   2   0
 Final beta  occupancy:   4   2   2   0

 !RHF STATE 1.1 Energy                -57.148959674022
   --><property name="Energy" method="RHF" principal="true" stateSymmetry="1" stateNumber="1"
     value="-57.1489596740219"/><!--
 Nuclear energy                        14.55237330
 One-electron energy                 -124.21722646
 Two-electron energy                   52.51589348
 Virial quotient                       -2.22238901
 !RHF STATE 1.1 Dipole moment           0.00000000     0.00000000    -4.29790262
 Dipole moment /Debye                   0.00000000     0.00000000   -10.92346335
   --><property name="Dipole moment" method="RHF" principal="true" stateSymmetry="1"
     stateNumber="1" value="0.0 0.0 -4.29790262192909"/><!--

 ELECTRON ORBITALS
 =================


   Orb  Occ    Energy  Couls-En    Coefficients

                                   1 1s      1 1s      1 1s      1 1s      1 1s      1 1s      1 1s      1 1s      1 1s      1 1s
                                   1 1s      1 1s      1 1s      1 1s      1 1s      1 1s      1 1s      1 1s      1 1s      1 1s
                                   1 1s      1 1s      1 1s      1 1s      1 1s      1 1s      1 1s      1 1s      1 1s      1 1s
                                   1 1s      1 2pz     1 2pz     1 2pz     1 2pz     1 2pz     1 2pz     1 2pz     1 2pz     1 2pz
                                   1 2pz     1 2pz     1 2pz     1 2pz     1 2pz     1 2pz     1 2pz     1 2pz     1 2pz     1 2pz
                                   1 2pz     1 2pz     1 2pz     1 2pz     1 2pz     1 2pz     1 2pz     1 2pz     1 3d0     1 3d2+
                                   1 3d0     1 3d2+    1 3d0     1 3d2+    1 3d0     1 3d2+    1 3d0     1 3d2+    1 3d0     1 3d2+
                                   1 3d0     1 3d2+    1 3d0     1 3d2+    1 3d0     1 3d2+    1 3d0     1 3d2+    1 3d0     1 3d2+
                                   1 3d0     1 3d2+    1 3d0     1 3d2+    1 3d0     1 3d2+    1 3d0     1 3d2+    1 3d0     1 3d2+
                                   1 3d0     1 3d2+    1 3d0     1 3d2+    1 4f0     1 4f2+    1 4f0     1 4f2+    1 4f0     1 4f2+
                                   1 4f0     1 4f2+    1 4f0     1 4f2+    1 4f0     1 4f2+    1 4f0     1 4f2+    1 4f0     1 4f2+
                                   1 4f0     1 4f2+    1 4f0     1 4f2+    1 4f0     1 4f2+    1 4f0     1 4f2+    1 4f0     1 4f2+
                                   1 5g0     1 5g4+    1 5g2+    1 5g0     1 5g4+    1 5g2+    1 5g0     1 5g4+    1 5g2+    1 5g0
                                   1 5g4+    1 5g2+    1 5g0     1 5g4+    1 5g2+    1 5g0     1 5g4+    1 5g2+    1 6h2+    1 6h4+
                                   1 6h0     1 6h2+    1 6h4+    1 6h0     1 6h2+    1 6h4+    1 6h0     2 1s      2 1s      2 1s
                                   2 1s      2 1s      2 1s      2 1s      2 1s      2 1s      2 1s      2 1s      2 1s      2 1s
                                   2 2pz     2 2pz     2 2pz     2 2pz     2 2pz     2 2pz     2 2pz     2 2pz     2 3d0     2 3d2+
                                   2 3d0     2 3d2+    2 3d0     2 3d2+    2 3d0     2 3d2+    2 4f0     2 4f2+    2 4f0     2 4f2+


   1.1   2    -2.7423  -12.2428  0.000000 -0.000000  0.000000 -0.000000  0.000000 -0.000000  0.000000 -0.000001  0.000002 -0.000004
                                 0.000011 -0.000027  0.000063 -0.000142  0.000312 -0.000671  0.001372 -0.002532  0.003711 -0.044433
                                 0.302119 -0.411160 -0.401220  0.291325  0.740057  0.329891 -0.002613  0.013807 -0.008481  0.006187
                                -0.001720 -0.000000  0.000000 -0.000000  0.000000 -0.000000  0.000000 -0.000000  0.000000 -0.000000
                                 0.000000 -0.000001  0.000003 -0.000009  0.000025 -0.000078  0.000766 -0.002172  0.002248  0.001580
                                -0.001375 -0.004873 -0.004146 -0.008663 -0.007275 -0.002033  0.000004  0.007024 -0.000000  0.000000
                                 0.000000 -0.000000 -0.000000  0.000000  0.000001 -0.000000 -0.000002  0.000000  0.000006 -0.000000
                                -0.000015  0.000000  0.000035 -0.000000 -0.000076  0.000000  0.000117 -0.000000  0.000215 -0.000000
                                -0.000130  0.000000 -0.004294  0.000000 -0.004379  0.000000  0.000393 -0.000000 -0.001154  0.000000
                                 0.001209 -0.000000 -0.000296  0.000000  0.000000 -0.000000 -0.000000  0.000000  0.000000 -0.000000
                                -0.000001 -0.000000  0.000004  0.000000 -0.000005  0.000000 -0.000050 -0.000000 -0.000140 -0.000000
                                -0.000788 -0.000000 -0.000376 -0.000000  0.000132  0.000000  0.000002 -0.000000  0.000049  0.000000
                                -0.000000 -0.000000  0.000000  0.000002  0.000000 -0.000000 -0.000007 -0.000000  0.000000  0.000024
                                -0.000000  0.000000  0.000047  0.000000 -0.000000  0.000020  0.000000  0.000000  0.000000 -0.000000
                                 0.000001 -0.000000  0.000000 -0.000007  0.000000 -0.000000  0.000023 -0.000000  0.000000 -0.000000
                                 0.000001 -0.000005  0.000159 -0.000162  0.000521  0.000838  0.001329  0.000965 -0.000233 -0.000266
                                -0.000021 -0.000182 -0.000513 -0.000883 -0.001323 -0.000441  0.000000  0.000006  0.000039  0.000000
                                 0.000341  0.000000  0.000557  0.000000  0.000007  0.000000 -0.000007 -0.000000 -0.000243 -0.000000

   2.1   2    -1.5760   -9.8839  0.000000 -0.000000  0.000000 -0.000000  0.000000 -0.000000  0.000000 -0.000000  0.000000 -0.000000
                                 0.000000 -0.000000  0.000001 -0.000001  0.000003 -0.000008  0.000017 -0.000037  0.000065 -0.001059
                                 0.007627 -0.010484 -0.011852  0.009835  0.031249 -0.004457 -0.011864 -0.000041 -0.007667 -0.007273
                                 0.003821  0.000000 -0.000000  0.000000 -0.000000  0.000000 -0.000000  0.000000 -0.000001  0.000004
                                -0.000013  0.000039 -0.000106  0.000280 -0.000767  0.002407 -0.039754  0.138458 -0.159295 -0.160458
                                 0.274824  0.524148  0.018912  0.334227 -0.006163  0.048061 -0.010452  0.006746 -0.000000 -0.000000
                                 0.000000  0.000000 -0.000000 -0.000000  0.000001  0.000000 -0.000004 -0.000000  0.000013  0.000000
                                -0.000034 -0.000000  0.000081  0.000000 -0.000177 -0.000000  0.000287  0.000000  0.000499  0.000000
                                -0.000516 -0.000000 -0.008672 -0.000000 -0.015891 -0.000000 -0.003938  0.000000 -0.001300 -0.000000
                                -0.003825  0.000000  0.002228  0.000000 -0.000000 -0.000000  0.000000  0.000000 -0.000001 -0.000000
                                 0.000002  0.000000 -0.000001 -0.000000  0.000030 -0.000000 -0.000301  0.000000 -0.000571  0.000000
                                -0.003572  0.000000 -0.003251  0.000000 -0.000562  0.000000 -0.001291 -0.000000  0.000461 -0.000000
                                -0.000008  0.000000 -0.000000  0.000041 -0.000000  0.000000 -0.000172 -0.000000 -0.000000 -0.000598
                                 0.000000 -0.000000 -0.000264 -0.000000  0.000000  0.000082  0.000000 -0.000000 -0.000000  0.000000
[...]
                                 0.000000  0.000033  0.000000 -0.000000 -0.000250 -0.000000 -0.000000  0.000000 -0.000000  0.000000
                                -0.000000  0.000000 -0.000000 -0.000000 -0.000000  0.000000 -0.000000  0.000004  0.000000  0.000000
                                 0.000000  0.000000  0.000000  0.000000  0.000001 -0.000001  0.000000 -0.000000 -0.000000  0.000407
                                 0.000000  0.001714 -0.000000  0.003152  0.000000  0.000033 -0.000000 -0.000086  0.000000 -0.000857

                                   1 2px     1 2px     1 2px     1 2px     1 2px     1 2px     1 2px     1 2px     1 2px     1 2px
                                   1 2px     1 2px     1 2px     1 2px     1 2px     1 2px     1 2px     1 2px     1 2px     1 2px
                                   1 2px     1 2px     1 2px     1 2px     1 2px     1 2px     1 2px     1 3d1+    1 3d1+    1 3d1+
                                   1 3d1+    1 3d1+    1 3d1+    1 3d1+    1 3d1+    1 3d1+    1 3d1+    1 3d1+    1 3d1+    1 3d1+
                                   1 3d1+    1 3d1+    1 3d1+    1 3d1+    1 3d1+    1 4f1+    1 4f3+    1 4f1+    1 4f3+    1 4f1+
                                   1 4f3+    1 4f1+    1 4f3+    1 4f1+    1 4f3+    1 4f1+    1 4f3+    1 4f1+    1 4f3+    1 4f1+
                                   1 4f3+    1 4f1+    1 4f3+    1 4f1+    1 4f3+    1 4f1+    1 4f3+    1 4f1+    1 4f3+    1 4f1+
                                   1 4f3+    1 5g1+    1 5g3+    1 5g1+    1 5g3+    1 5g1+    1 5g3+    1 5g1+    1 5g3+    1 5g1+
                                   1 5g3+    1 5g1+    1 5g3+    1 6h1+    1 6h3+    1 6h5+    1 6h1+    1 6h3+    1 6h5+    1 6h1+
                                   1 6h3+    1 6h5+    2 2px     2 2px     2 2px     2 2px     2 2px     2 2px     2 2px     2 2px
                                   2 3d1+    2 3d1+    2 3d1+    2 3d1+    2 4f1+    2 4f3+    2 4f1+    2 4f3+

   1.2   2    -1.5926   -9.8236  0.000000 -0.000000  0.000000 -0.000000  0.000000 -0.000000  0.000000 -0.000001  0.000004 -0.000014
                                 0.000040 -0.000108  0.000286 -0.000786  0.002465 -0.040076  0.138961 -0.159550 -0.160096  0.273238
                                 0.522315  0.021183  0.339817  0.047611  0.049691 -0.004744 -0.045687 -0.000000  0.000000 -0.000000
                                 0.000001 -0.000002  0.000007 -0.000018  0.000041 -0.000090  0.000144  0.000232 -0.000075 -0.004181
                                -0.011094 -0.002850  0.000611 -0.000825  0.000018 -0.000000 -0.000000  0.000000  0.000000 -0.000001
                                -0.000000  0.000004  0.000000 -0.000009 -0.000000  0.000049 -0.000000 -0.000341  0.000000 -0.000529
                                 0.000000 -0.003361  0.000000 -0.003027  0.000000  0.000225 -0.000000 -0.000318  0.000000 -0.000021
                                -0.000000 -0.000007 -0.000000  0.000036  0.000000 -0.000172 -0.000000 -0.000503 -0.000000  0.000168
                                 0.000000 -0.000185 -0.000000 -0.000001 -0.000000  0.000000 -0.000046 -0.000000 -0.000000 -0.000001
                                 0.000000  0.000000  0.000059  0.000512  0.001576  0.002565  0.002314  0.000753  0.000015 -0.000016
                                -0.000087 -0.000581 -0.000775 -0.000012  0.000025 -0.000000  0.000409  0.000000

   2.2   2    -0.2938   -6.4248 -0.000000  0.000000 -0.000000  0.000000 -0.000000  0.000000 -0.000000  0.000000 -0.000000  0.000001
                                -0.000003  0.000009 -0.000023  0.000063 -0.000195  0.002585 -0.008562  0.009907  0.008578 -0.016324
                                -0.034898  0.001059 -0.035166 -0.063286  0.034702  0.079168  0.068823 -0.000000  0.000000 -0.000000
                                 0.000001 -0.000004  0.000013 -0.000030  0.000055 -0.000025  0.000457 -0.008997  0.014406  0.052120
                                 0.087501  0.099287  0.004636  0.046743 -0.018863 -0.000000 -0.000000  0.000001  0.000000 -0.000006
                                -0.000000  0.000021  0.000000 -0.000063 -0.000000  0.000102  0.000000  0.000241  0.000000  0.002001
                                 0.000000  0.001628  0.000000  0.012336  0.000000  0.011957  0.000000  0.008516 -0.000000 -0.003936
                                -0.000000  0.000002  0.000000 -0.000006 -0.000000  0.000204  0.000000  0.003888  0.000000  0.000003
                                 0.000000  0.000907  0.000000  0.000057  0.000000 -0.000000 -0.000447  0.000000  0.000000  0.001496
                                -0.000000 -0.000000  0.008893  0.076306  0.251958  0.393502  0.346330  0.101317  0.005159 -0.002338
                                -0.002427 -0.009696 -0.018982 -0.000253  0.000273  0.000000  0.004742  0.000000

   3.2   0    -0.0269   -3.2224  0.000000 -0.000000  0.000000 -0.000000  0.000000 -0.000000  0.000000 -0.000000  0.000000 -0.000000
                                 0.000001 -0.000002  0.000006 -0.000014  0.000048 -0.004961  0.021361 -0.026847 -0.030671  0.057878
                                 0.084960  0.049624  0.071536  6.888836 -0.055536 -0.502969 -7.301827 -0.000000  0.000000 -0.000000
                                 0.000002 -0.000007  0.000020 -0.000049  0.000091 -0.000067  0.000689 -0.012458  0.020082  0.071114
                                 0.115690  0.139538  0.410327 -0.523177  0.490214 -0.000000 -0.000000  0.000000  0.000000 -0.000000
                                -0.000000  0.000000  0.000000  0.000001 -0.000000  0.000012  0.000000 -0.000176  0.000000 -0.000330
                                 0.000000 -0.001281  0.000000 -0.004485  0.000000 -0.008737  0.000000  0.002516  0.000000 -0.011595
                                 0.000000 -0.000011 -0.000000  0.000053  0.000000 -0.000452  0.000000 -0.005429 -0.000000 -0.004192
                                -0.000000 -0.001417 -0.000000 -0.000003 -0.000000  0.000000  0.000028  0.000000 -0.000000 -0.000205
                                -0.000000  0.000000  0.000080  0.000698  0.002221  0.003550  0.001752 -0.015399  0.000029 -0.000021
                                -0.000069 -0.001119  0.001208 -0.000021  0.000037  0.000000  0.000774 -0.000000

   4.2   0     0.0463   -2.2389 -0.000000  0.000000 -0.000000  0.000000 -0.000000  0.000000 -0.000001  0.000004 -0.000013  0.000041
                                -0.000118  0.000322 -0.000852  0.002371 -0.007326  0.044211 -0.085760  0.073317 -0.029762  0.053746
                                -0.415543  0.680994 -0.611718 63.499316  0.491677 -0.826247-63.249229 -0.000000  0.000000 -0.000001
                                 0.000002 -0.000009  0.000026 -0.000072  0.000191 -0.000531  0.000316  0.013107 -0.021006 -0.094260
                                -0.126621 -0.257981  0.810622 -1.779294  1.143662 -0.000000 -0.000000  0.000001  0.000000 -0.000003
                                -0.000000  0.000010  0.000000 -0.000033 -0.000000  0.000043  0.000000  0.000248 -0.000000  0.001199
                                 0.000000  0.001602 -0.000000  0.011515  0.000000  0.026578 -0.000000  0.035005  0.000000  0.139965
                                -0.000000  0.000013 -0.000000 -0.000061  0.000000  0.000552 -0.000000  0.006866  0.000000  0.007046
                                -0.000000  0.036079  0.000000  0.000008  0.000000 -0.000000 -0.000084 -0.000000  0.000000  0.000406
                                 0.000000 -0.000000  0.001063  0.008931  0.032941  0.047443  0.057105 -0.153426  0.001230 -0.000271
                                 0.000250  0.000419  0.003683 -0.000001 -0.000119  0.000000 -0.000484  0.000000

                                   1 2py     1 2py     1 2py     1 2py     1 2py     1 2py     1 2py     1 2py     1 2py     1 2py
                                   1 2py     1 2py     1 2py     1 2py     1 2py     1 2py     1 2py     1 2py     1 2py     1 2py
                                   1 2py     1 2py     1 2py     1 2py     1 2py     1 2py     1 2py     1 3d1-    1 3d1-    1 3d1-
                                   1 3d1-    1 3d1-    1 3d1-    1 3d1-    1 3d1-    1 3d1-    1 3d1-    1 3d1-    1 3d1-    1 3d1-
                                   1 3d1-    1 3d1-    1 3d1-    1 3d1-    1 3d1-    1 4f1-    1 4f3-    1 4f1-    1 4f3-    1 4f1-
                                   1 4f3-    1 4f1-    1 4f3-    1 4f1-    1 4f3-    1 4f1-    1 4f3-    1 4f1-    1 4f3-    1 4f1-
                                   1 4f3-    1 4f1-    1 4f3-    1 4f1-    1 4f3-    1 4f1-    1 4f3-    1 4f1-    1 4f3-    1 4f1-
                                   1 4f3-    1 5g1-    1 5g3-    1 5g1-    1 5g3-    1 5g1-    1 5g3-    1 5g1-    1 5g3-    1 5g1-
                                   1 5g3-    1 5g1-    1 5g3-    1 6h1-    1 6h3-    1 6h5-    1 6h1-    1 6h3-    1 6h5-    1 6h1-
                                   1 6h3-    1 6h5-    2 2py     2 2py     2 2py     2 2py     2 2py     2 2py     2 2py     2 2py
                                   2 3d1-    2 3d1-    2 3d1-    2 3d1-    2 4f1-    2 4f3-    2 4f1-    2 4f3-

   1.3   2    -1.5926   -9.8236  0.000000 -0.000000  0.000000 -0.000000  0.000000 -0.000000  0.000000 -0.000001  0.000004 -0.000014
                                 0.000040 -0.000108  0.000286 -0.000786  0.002465 -0.040076  0.138961 -0.159550 -0.160096  0.273238
                                 0.522315  0.021183  0.339817  0.047611  0.049691 -0.004744 -0.045687 -0.000000  0.000000 -0.000000
                                 0.000001 -0.000002  0.000007 -0.000018  0.000041 -0.000090  0.000144  0.000232 -0.000075 -0.004181
                                -0.011094 -0.002850  0.000611 -0.000825  0.000018 -0.000000 -0.000000  0.000000  0.000000 -0.000001
                                -0.000000  0.000004  0.000000 -0.000009 -0.000000  0.000049 -0.000000 -0.000341  0.000000 -0.000529
                                 0.000000 -0.003361  0.000000 -0.003027  0.000000  0.000225 -0.000000 -0.000318  0.000000 -0.000021
                                -0.000000 -0.000007 -0.000000  0.000036  0.000000 -0.000172 -0.000000 -0.000503 -0.000000  0.000168
                                 0.000000 -0.000185 -0.000000 -0.000001 -0.000000  0.000000 -0.000046 -0.000000 -0.000000 -0.000001
                                 0.000000  0.000000  0.000059  0.000512  0.001576  0.002565  0.002314  0.000753  0.000015 -0.000016
                                -0.000087 -0.000581 -0.000775 -0.000012  0.000025 -0.000000  0.000409  0.000000

   2.3   2    -0.2938   -6.4248 -0.000000  0.000000 -0.000000  0.000000 -0.000000  0.000000 -0.000000  0.000000 -0.000000  0.000001
                                -0.000003  0.000009 -0.000023  0.000063 -0.000195  0.002585 -0.008562  0.009907  0.008578 -0.016324
                                -0.034898  0.001059 -0.035166 -0.063284  0.034702  0.079168  0.068821 -0.000000  0.000000 -0.000000
                                 0.000001 -0.000004  0.000013 -0.000030  0.000055 -0.000025  0.000457 -0.008997  0.014406  0.052120
                                 0.087501  0.099286  0.004636  0.046742 -0.018863 -0.000000 -0.000000  0.000001 -0.000000 -0.000006
                                 0.000000  0.000021 -0.000000 -0.000063  0.000000  0.000102  0.000000  0.000241  0.000000  0.002001
                                 0.000000  0.001628  0.000000  0.012336  0.000000  0.011957  0.000000  0.008516 -0.000000 -0.003936
                                 0.000000  0.000002  0.000000 -0.000006 -0.000000  0.000204  0.000000  0.003888  0.000000  0.000003
                                 0.000000  0.000907  0.000000  0.000057  0.000000 -0.000000 -0.000447  0.000000  0.000000  0.001496
                                -0.000000 -0.000000  0.008893  0.076306  0.251958  0.393502  0.346330  0.101317  0.005159 -0.002338
                                -0.002427 -0.009696 -0.018982 -0.000253  0.000273  0.000000  0.004742  0.000000

   3.3   0    -0.0269   -3.2224  0.000000 -0.000000  0.000000 -0.000000  0.000000 -0.000000  0.000000 -0.000000  0.000000 -0.000000
                                 0.000001 -0.000002  0.000006 -0.000014  0.000048 -0.004961  0.021361 -0.026847 -0.030671  0.057878
                                 0.084960  0.049624  0.071536  6.888823 -0.055536 -0.502969 -7.301814 -0.000000  0.000000 -0.000000
                                 0.000002 -0.000007  0.000020 -0.000049  0.000091 -0.000067  0.000689 -0.012458  0.020082  0.071114
                                 0.115690  0.139538  0.410327 -0.523176  0.490213 -0.000000 -0.000000  0.000000  0.000000 -0.000000
                                -0.000000  0.000000  0.000000  0.000001 -0.000000  0.000012  0.000000 -0.000176  0.000000 -0.000330
                                 0.000000 -0.001281  0.000000 -0.004485  0.000000 -0.008737  0.000000  0.002516  0.000000 -0.011595
                                 0.000000 -0.000011 -0.000000  0.000053  0.000000 -0.000452  0.000000 -0.005429 -0.000000 -0.004192
                                 0.000000 -0.001417 -0.000000 -0.000003 -0.000000 -0.000000  0.000028  0.000000  0.000000 -0.000205
                                -0.000000 -0.000000  0.000080  0.000698  0.002221  0.003550  0.001752 -0.015399  0.000029 -0.000021
                                -0.000069 -0.001119  0.001208 -0.000021  0.000037 -0.000000  0.000774  0.000000

   4.3   0     0.0463   -2.2389 -0.000000  0.000000 -0.000000  0.000000 -0.000000  0.000000 -0.000001  0.000004 -0.000013  0.000041
                                -0.000118  0.000322 -0.000852  0.002371 -0.007326  0.044211 -0.085760  0.073317 -0.029762  0.053746
                                -0.415543  0.680994 -0.611718 63.499319  0.491677 -0.826248-63.249233 -0.000000  0.000000 -0.000001
                                 0.000002 -0.000009  0.000026 -0.000072  0.000191 -0.000531  0.000316  0.013107 -0.021006 -0.094260
                                -0.126621 -0.257981  0.810622 -1.779295  1.143662 -0.000000 -0.000000  0.000001  0.000000 -0.000003
                                -0.000000  0.000010  0.000000 -0.000033 -0.000000  0.000043  0.000000  0.000248 -0.000000  0.001199
                                -0.000000  0.001602 -0.000000  0.011515 -0.000000  0.026578 -0.000000  0.035005  0.000000  0.139965
                                -0.000000  0.000013 -0.000000 -0.000061  0.000000  0.000552 -0.000000  0.006866  0.000000  0.007046
                                -0.000000  0.036079  0.000000  0.000008  0.000000  0.000000 -0.000084 -0.000000 -0.000000  0.000406
                                 0.000000  0.000000  0.001063  0.008931  0.032941  0.047443  0.057105 -0.153426  0.001230 -0.000271
                                 0.000250  0.000419  0.003683 -0.000001 -0.000119  0.000000 -0.000484  0.000000

                                   1 3d2-    1 3d2-    1 3d2-    1 3d2-    1 3d2-    1 3d2-    1 3d2-    1 3d2-    1 3d2-    1 3d2-
                                   1 3d2-    1 3d2-    1 3d2-    1 3d2-    1 3d2-    1 3d2-    1 3d2-    1 3d2-    1 4f2-    1 4f2-
                                   1 4f2-    1 4f2-    1 4f2-    1 4f2-    1 4f2-    1 4f2-    1 4f2-    1 4f2-    1 4f2-    1 4f2-
                                   1 4f2-    1 5g2-    1 5g4-    1 5g2-    1 5g4-    1 5g2-    1 5g4-    1 5g2-    1 5g4-    1 5g2-
                                   1 5g4-    1 5g2-    1 5g4-    1 6h4-    1 6h2-    1 6h4-    1 6h2-    1 6h4-    1 6h2-    2 3d2-
                                   2 3d2-    2 3d2-    2 3d2-    2 4f2-    2 4f2-

   1.4   0     0.0213   -4.1169 -0.000000  0.000000 -0.000001  0.000005 -0.000017  0.000050 -0.000122  0.000231 -0.000187  0.001677
                                -0.029615  0.047783  0.168420  0.294781  0.258223  0.886287 -1.454030  1.209114  0.000000 -0.000000
                                 0.000001 -0.000003  0.000013  0.000010 -0.000415 -0.001082 -0.002133 -0.013093 -0.058471  0.005230
                                -0.119117 -0.000015  0.000000  0.000073 -0.000000 -0.000665  0.000000 -0.008286  0.000000 -0.008326
                                -0.000000 -0.002692  0.000000 -0.000000 -0.000001  0.000000  0.000033 -0.000000 -0.000250  0.000407
                                 0.001714  0.003152  0.000033 -0.000086 -0.000857

   2.4   0     0.0724   -2.4488 -0.000000  0.000001 -0.000003  0.000012 -0.000040  0.000120 -0.000316  0.000760 -0.001745  0.002316
                                 0.015089 -0.023742 -0.144532 -0.151411 -0.553085  3.453452 -7.095801  4.579441 -0.000001  0.000006
                                -0.000024  0.000082 -0.000231  0.000537 -0.000981  0.003122 -0.004818  0.024348 -0.055633  0.208062
                                -0.395776  0.000010 -0.000000 -0.000049  0.000000  0.000469 -0.000000  0.006608 -0.000000  0.002502
                                -0.000000  0.007271  0.000000  0.000000  0.000004 -0.000000 -0.000058  0.000000  0.000287 -0.000225
                                -0.000555 -0.002543 -0.000011  0.000199 -0.000259

 HOMO      2.2    -0.293772 =      -7.9940eV
 LUMO      3.3    -0.026931 =      -0.7328eV
 LUMO-HOMO         0.266841 =       7.2611eV

 No convergence



 **********************************************************************************************************************************
 DATASETS  * FILE   NREC   LENGTH (MB)   RECORD NAMES
              1      19       22.47       500      610      700      900      950      970     1000      129      960     1100
                                          VAR    BASINP    GEOM    SYMINP    ZMAT    AOBASIS   BASIS     P2S    ABASIS      S
                                         1400     1410     1420     1200     1210     1080     1600     1650     1700
                                           T        V       ECP      H0       H01     AOSYM     SMH    MOLCAS    OPER

              2       5        9.36       700     1000      520     2202     3202
                                         GEOM     BASIS   MCVARS     RHF      RHF

 PROGRAMS   *        TOTAL       RHF       RHF       INT
 CPU TIMES  *       201.03    106.36      9.92     84.33
 REAL TIME  *       222.61 SEC
 DISK USED  *         9.17 GB
 SF USED    *         0.24 MB
 GA USED    *         0.00 MB       (max)       0.00 MB       (current)
 **********************************************************************************************************************************
   -->
   <time start="20:07:24" end="20:09:17" cpu="106.36" system="6.54" real="113.45"/>
   <storage units="megabyte" memory="8001.84" sf="0.24" df="445.09" eaf="8722.12" ga="0.0"/>
  </jobstep><!--
 SETTING SCF            =       -57.14895967  AU
 SETTING _CC_NORM_MAX   =         2.00000000
  --><jobstep command="RCCSD(T)" commandset="CCSD">
   <!--


 PROGRAM * CCSD (Restricted open-shell coupled cluster)     Authors: C. Hampel, H.-J. Werner, 1991, M. Deegan, P.J. Knowles, 1992


 Convergence thresholds:  THRVAR = 1.00D-08  THRDEN = 1.00D-06

 CCSD(T)     terms to be evaluated (factor= 1.000)


 Number of closed-shell orbitals:   8 (   4   2   2   0 )
 Number of active  orbitals:        1 (   1   0   0   0 )
 Number of external orbitals:     442 ( 175 106 106  55 )

 Memory could be reduced to 357.68 Mwords without degradation in triples

 Number of N-1 electron functions:              17
 Number of N-2 electron functions:             136
 Number of singly external CSFs:              2432
 Number of doubly external CSFs:           5288016
 Total number of CSFs:                     5290448

 Molecular orbitals read from record     3202.2  Type=RHF/CANONICAL (state 1.1)

 ?Error: RHF not converged. This error exit can be avoided using the IGNORE_ERROR option on the ORBITAL directive
   --><error/><!--
  --></jobstep><!--
  -->
  <input>
  <!--
 --></job><!--
--></molpro>
