
 Primary working directories    : /global/cscratch1/sd/haihan
 Secondary working directories  : /global/cscratch1/sd/haihan
 Wavefunction directory         : /global/homes/h/haihan/Research/ECP/f_group_element_ecps/Gd/Molpro/atom/AE/dkh/wfu/
 Main file repository           : /global/cscratch1/sd/haihan/

 SHA1      : 19cd028119e0e09f93f0674bd8af7968d9b3eff6
 NAME      : 2015.1.36
 ARCHNAME  : linux/x86_64
 FC        : /opt/cray/pe/craype/2.5.14/bin/ftn
 BLASLIB   : -L/opt/intel/compilers_and_libraries_2018.1.163/linux/mkl/lib/intel64 -Wl,-_start-group -lmkl_intel_ilp64 -lmkl_intel_thread -lmkl_core -Wl,-_end-group -liomp5
 id        : lbl

 Nodes     nprocs
 nid12876     5
 Number of processes for MPI-2 version of Molpro:   nprocs(total)=    6   nprocs(compute)=    5   nprocs(helper)=    1

 Using customized tuning parameters: mindgm=7; mindgv=16; mindgc=1; mindgr=1; noblas=0; minvec=7
 default implementation of scratch files=sf  

 ***,Calculation for Gd atom, singlet and triplet
 memory,2,g
 
 gthresh,twoint=1.e-15
 gthresh,oneint=1.e-15
 
 set,dkroll=1,dkho=10,dkhp=4
 
 geometry={
 1
 Gd
 Gd  0.0 0.0 0.0
 }
 
 basis={
 Including file /global/u2/h/haihan/Research/ECP/f_group_element_ecps/Gd/Molpro/atom/AE/dkh/7/../aug-cc-pwCVTZ.basis
 }
 
 
 
 Including file /global/u2/h/haihan/Research/ECP/f_group_element_ecps/Gd/Molpro/atom/AE/dkh/7/../Gd_states_ae.proc
 
 
 do i=7,7
     if (i.eq.1) then
         Id1f7s2
     else if (i.eq.2) then
         Id2f7s1
     else if (i.eq.3) then
 Ip1f7s2
     else if (i.eq.4) then
         EAd2f7s2
     else if (i.eq.5) then
         IId1f7s1
     else if (i.eq.6) then
         IIdf7s2
     else if (i.eq.7) then
         IIId1f7
     else if (i.eq.8) then
 IIIp1f7
     else if (i.eq.9) then
         IVdf7
     else if (i.eq.10) then
         Vdf6
     else if (i.eq.11) then
         VIdf5
     else if (i.eq.12) then
         VIIdf4
     endif
     scf(i)=energy
     _CC_NORM_MAX=2.0
     {rccsd(t),shifts=0.5,shiftp=0.5,thrdis=1.0;diis,1,1,15,1;maxit,100;core}
     ccsd(i)=energy
 enddo
 
 table,scf,ccsd
 type,csv
 save

 Variables initialized (889), CPU time= 0.01 sec
 Commands  initialized (702), CPU time= 0.01 sec, 572 directives.
 Default parameters read. Elapsed time= 0.10 sec

 Checking input...
 Passed
1


                                         ***  PROGRAM SYSTEM MOLPRO  ***
                                       Copyright, TTI GmbH Stuttgart, 2015
                                    Version 2015.1 linked Dec 29 2018 15:55:43


 **********************************************************************************************************************************
 LABEL *   Calculation for Gd atom, singlet and triplet                                  
  64 bit mpp version                                                                     DATE: 12-Nov-22          TIME: 08:38:11  
 **********************************************************************************************************************************

 SHA1:             19cd028119e0e09f93f0674bd8af7968d9b3eff6
 **********************************************************************************************************************************

 THRESHOLDS:

 ZERO    =  1.00D-12  ONEINT  =  1.00D-12  TWOINT  =  1.00D-15  PREFAC  =  1.00D-14  LOCALI  =  1.00D-09  EORDER  =  1.00D-04
 ENERGY  =  0.00D+00  ETEST   =  0.00D+00  EDENS   =  0.00D+00  THRDEDEF=  1.00D-06  GRADIENT=  1.00D-02  STEP    =  1.00D-03
 ORBITAL =  1.00D-05  CIVEC   =  1.00D-05  COEFF   =  1.00D-04  PRINTCI =  5.00D-02  PUNCHCI =  9.90D+01  OPTGRAD =  3.00D-04
 OPTENERG=  1.00D-06  OPTSTEP =  3.00D-04  THRGRAD =  1.00D-10  COMPRESS=  1.00D-11  VARMIN  =  1.00D-07  VARMAX  =  1.00D-03
 THRDOUB =  0.00D+00  THRDIV  =  1.00D-05  THRRED  =  1.00D-07  THRPSP  =  1.00D+00  THRDC   =  1.00D-10  THRCS   =  1.00D-10
 THRNRM  =  1.00D-08  THREQ   =  0.00D+00  THRDE   =  1.00D+00  THRREF  =  1.00D-05  SPARFAC =  1.00D+00  THRDLP  =  1.00D-07
 THRDIA  =  1.00D-10  THRDLS  =  1.00D-07  THRGPS  =  0.00D+00  THRKEX  =  0.00D+00  THRDIS  =  2.00D-01  THRVAR  =  1.00D-10
 THRLOC  =  1.00D-06  THRGAP  =  1.00D-06  THRLOCT = -1.00D+00  THRGAPT = -1.00D+00  THRORB  =  1.00D-06  THRMLTP =  0.00D+00
 THRCPQCI=  1.00D-10  KEXTA   =  0.00D+00  THRCOARS=  0.00D+00  SYMTOL  =  1.00D-06  GRADTOL =  1.00D-06  THROVL  =  1.00D-08
 THRORTH =  1.00D-08  GRID    =  1.00D-06  GRIDMAX =  1.00D-03  DTMAX   =  0.00D+00  THROCCDE=  1.00D-01  THROCCDE=  1.00D-01



 THRESHOLDS:

 ZERO    =  1.00D-12  ONEINT  =  1.00D-15  TWOINT  =  1.00D-15  PREFAC  =  1.00D-14  LOCALI  =  1.00D-09  EORDER  =  1.00D-04
 ENERGY  =  0.00D+00  ETEST   =  0.00D+00  EDENS   =  0.00D+00  THRDEDEF=  1.00D-06  GRADIENT=  1.00D-02  STEP    =  1.00D-03
 ORBITAL =  1.00D-05  CIVEC   =  1.00D-05  COEFF   =  1.00D-04  PRINTCI =  5.00D-02  PUNCHCI =  9.90D+01  OPTGRAD =  3.00D-04
 OPTENERG=  1.00D-06  OPTSTEP =  3.00D-04  THRGRAD =  1.00D-10  COMPRESS=  1.00D-11  VARMIN  =  1.00D-07  VARMAX  =  1.00D-03
 THRDOUB =  0.00D+00  THRDIV  =  1.00D-05  THRRED  =  1.00D-07  THRPSP  =  1.00D+00  THRDC   =  1.00D-10  THRCS   =  1.00D-10
 THRNRM  =  1.00D-08  THREQ   =  0.00D+00  THRDE   =  1.00D+00  THRREF  =  1.00D-05  SPARFAC =  1.00D+00  THRDLP  =  1.00D-07
 THRDIA  =  1.00D-10  THRDLS  =  1.00D-07  THRGPS  =  0.00D+00  THRKEX  =  0.00D+00  THRDIS  =  2.00D-01  THRVAR  =  1.00D-10
 THRLOC  =  1.00D-06  THRGAP  =  1.00D-06  THRLOCT = -1.00D+00  THRGAPT = -1.00D+00  THRORB  =  1.00D-06  THRMLTP =  0.00D+00
 THRCPQCI=  1.00D-10  KEXTA   =  0.00D+00  THRCOARS=  0.00D+00  SYMTOL  =  1.00D-06  GRADTOL =  1.00D-06  THROVL  =  1.00D-08
 THRORTH =  1.00D-08  GRID    =  1.00D-06  GRIDMAX =  1.00D-03  DTMAX   =  0.00D+00  THROCCDE=  1.00D-01  THROCCDE=  1.00D-01


 SETTING DKROLL         =         1.00000000                                  
 SETTING DKHO           =        10.00000000                                  
 SETTING DKHP           =         4.00000000                                  

Geometry recognized as XYZ


 Variable memory set to 2000000000 words,  buffer space   230000 words

 SETTING BASIS          =    USERDEF

 DO I                   =         7.00000000   

 Running procedure=IIID1F7


 Recomputing integrals since basis changed


 Using spherical harmonics



 PROGRAM * SEWARD (Integral evaluation for generally contracted gaussian basis sets)     Author: Roland Lindh, 1990

 Geometry written to block  1 of record 700

 Orientation using atomic masses  
 Molecule type: Atom
 Symmetry elements: X,Y,Z
 Rotational constants:       0.0000000      0.0000000      0.0000000 GHz  (calculated with average atomic masses)

 Point group  D2h 



 ATOMIC COORDINATES

 NR  ATOM    CHARGE       X              Y              Z

   1  GD     64.00    0.000000000    0.000000000    0.000000000

 NUCLEAR CHARGE:                   64
 NUMBER OF PRIMITIVE AOS:         631
 NUMBER OF SYMMETRY AOS:          481
 NUMBER OF CONTRACTIONS:          481   ( 113Ag  +  74B3u +  74B2u +  42B1g +  74B1u +  42B2g +  42B3g +  20Au  )
 NUMBER OF CORE ORBITALS:          23   (   8Ag  +   3B3u +   3B2u +   2B1g +   3B1u +   2B2g +   2B3g +   0Au  )
 NUMBER OF VALENCE ORBITALS:       17   (   4Ag  +   3B3u +   3B2u +   1B1g +   3B1u +   1B2g +   1B3g +   1Au  )


 NUCLEAR REPULSION ENERGY    0.00000000

 One-electron integrals computed with SEWARD

 10nd-order Douglas-Kroll-Hess method activated. McWeeny DKH parametrization is used.

 Computing Douglas-Kroll / X2C integrals

 AO integral compression algorithm  1   Integral accuracy      1.0D-15

     5087.166 MB (compressed) written to integral file ( 43.1%)

     Node minimum: 440.140 MB, node maximum: 1514.668 MB


 NUMBER OF SORTED TWO-ELECTRON INTEGRALS:  171778298.     BUFFER LENGTH:  32768
 NUMBER OF SEGMENTS:   6  SEGMENT LENGTH:   31998348      RECORD LENGTH: 524288

 Memory used in sort:      32.56 MW

 SORT1 READ  1474683826. AND WROTE    98537690. INTEGRALS IN    285 RECORDS. CPU TIME:    33.89 SEC, REAL TIME:    39.43 SEC
 SORT2 READ   489175435. AND WROTE   859050309. INTEGRALS IN  22525 RECORDS. CPU TIME:     2.97 SEC, REAL TIME:     5.52 SEC

 Node minimum:   171650191.  Node maximum:   171905998. integrals

 OPERATOR DM      FOR CENTER  0  COORDINATES:    0.000000    0.000000    0.000000

 EXTRA SYMMETRY OF AOS IN SYMMETRY 1:   1 1 1 1 1 1 1 1 1 1   1 1 1 1 1 1 1 1 1 1   1 1 1 1 1 1 1 1 1 1   1 1 1 1 1 1 1 1 2 3
                                        2 3 2 3 2 3 2 3 2 3   2 3 2 3 2 3 2 3 2 3   2 3 2 3 2 3 2 3 2 3   2 3 2 3 2 3 2 3 2 3
                                        2 3 2 3 2 3 4 5 6 4   5 6 4 5 6 4 5 6 4 5   6 4 5 6 4 5 6 4 5 6   4 5 6
 EXTRA SYMMETRY OF AOS IN SYMMETRY 2:   1 1 1 1 1 1 1 1 1 1   1 1 1 1 1 1 1 1 1 1   1 1 1 1 1 1 1 1 1 1   1 1 1 1 1 1 1 2 3 2
                                        3 2 3 2 3 2 3 2 3 2   3 2 3 2 3 2 3 2 3 2   3 2 3 2 3 4 5 6 4 5   6 4 5 6
 EXTRA SYMMETRY OF AOS IN SYMMETRY 3:   1 1 1 1 1 1 1 1 1 1   1 1 1 1 1 1 1 1 1 1   1 1 1 1 1 1 1 1 1 1   1 1 1 1 1 1 1 2 3 2
                                        3 2 3 2 3 2 3 2 3 2   3 2 3 2 3 2 3 2 3 2   3 2 3 2 3 4 5 6 4 5   6 4 5 6
 EXTRA SYMMETRY OF AOS IN SYMMETRY 4:   1 1 1 1 1 1 1 1 1 1   1 1 1 1 1 1 1 1 1 1   1 1 1 1 2 3 2 3 2 3   2 3 2 3 2 3 2 3 2 3
                                        2 3
 EXTRA SYMMETRY OF AOS IN SYMMETRY 5:   1 1 1 1 1 1 1 1 1 1   1 1 1 1 1 1 1 1 1 1   1 1 1 1 1 1 1 1 1 1   1 1 1 1 1 1 1 2 3 2
                                        3 2 3 2 3 2 3 2 3 2   3 2 3 2 3 2 3 2 3 2   3 2 3 2 3 4 5 6 4 5   6 4 5 6
 EXTRA SYMMETRY OF AOS IN SYMMETRY 6:   1 1 1 1 1 1 1 1 1 1   1 1 1 1 1 1 1 1 1 1   1 1 1 1 2 3 2 3 2 3   2 3 2 3 2 3 2 3 2 3
                                        2 3
 EXTRA SYMMETRY OF AOS IN SYMMETRY 7:   1 1 1 1 1 1 1 1 1 1   1 1 1 1 1 1 1 1 1 1   1 1 1 1 2 3 2 3 2 3   2 3 2 3 2 3 2 3 2 3
                                        2 3
 EXTRA SYMMETRY OF AOS IN SYMMETRY 8:   1 1 1 1 1 1 1 1 1 1   1 1 1 1 2 3 2 3 2 3

 Eigenvalues of metric

         1 0.117E-06 0.313E-06 0.724E-06 0.724E-06 0.728E-06 0.135E-05 0.447E-05 0.619E-05
         2 0.616E-06 0.439E-05 0.139E-04 0.449E-04 0.885E-04 0.303E-03 0.501E-03 0.668E-03
         3 0.616E-06 0.439E-05 0.139E-04 0.449E-04 0.885E-04 0.303E-03 0.501E-03 0.668E-03
         4 0.724E-06 0.237E-04 0.148E-03 0.537E-03 0.925E-03 0.419E-02 0.877E-02 0.166E-01
         5 0.616E-06 0.439E-05 0.139E-04 0.449E-04 0.885E-04 0.303E-03 0.501E-03 0.668E-03
         6 0.724E-06 0.237E-04 0.148E-03 0.537E-03 0.925E-03 0.419E-02 0.877E-02 0.166E-01
         7 0.724E-06 0.237E-04 0.148E-03 0.537E-03 0.925E-03 0.419E-02 0.877E-02 0.166E-01
         8 0.826E-03 0.126E-01 0.208E-01 0.681E-01 0.138E+00 0.253E+00 0.351E+00 0.351E+00


 **********************************************************************************************************************************
 DATASETS  * FILE   NREC   LENGTH (MB)   RECORD NAMES
              1      22       22.40       500      610      700      900      950      970     1000      129      960     1700   
                                          VAR    BASINP    GEOM    SYMINP    ZMAT    AOBASIS   BASIS     P2S    ABASIS    OPER   
                                         1101     1401     1411     1412     1650     1100     1400     1410     1200     1210   
                                          SR      EKINR    POTR     PVPR    MOLCAS      S      EKIN      POT      H0       H01  
                                         1080     1600   
                                         AOSYM     SMH  

 PROGRAMS   *        TOTAL       INT
 CPU TIMES  *       331.52    331.29
 REAL TIME  *       343.37 SEC
 DISK USED  *        11.09 GB      
 GA USED    *         0.00 MB       (max)       0.00 MB       (current)
 **********************************************************************************************************************************

 Density functional group PBE0=PBEX+PBEC
 Functional: PBEX(Automatically generated (new) PBEX)                          Gradient terms: 1
 Functional: PBEC(Automatically generated (new) PBEC)                          Gradient terms: 1
 Use grid at  1800.2
 

 Exact exchange will be calculated, factor:  0.2500

 Functional: PBEX                      Factor:  0.7500
 Functional: PBEC                      Factor:  1.0000
 
 Generated new metagrid on record  1800.2 with target accuracy 1.0D-06 and 780 points in CPU time    0.0
 Computed new grid on record 1800.1 in CPU time    0.0
  384156 words reserved for DFT integration

 PROGRAM * RKS-SCF (Restricted open shell Kohn-Sham)     Authors: W. Meyer, H.-J. Werner, P.J. Knowles, 1993

 NUMBER OF ELECTRONS:      35+   27-    SPACE SYMMETRY=8    SPIN SYMMETRY: Nonet   
 CONVERGENCE THRESHOLDS:    1.00E-05 (Density)    1.28E-06 (Energy)
 MAX. NUMBER OF ITERATIONS:       60
 INTERPOLATION TYPE:            DIIS
 INTERPOLATION STEPS:              2 (START)      1 (STEP)
 LEVEL SHIFTS:                 -0.60 (CLOSED) -0.30 (OPEN) 

 Number of closed-shell orbitals:   27 (   9   4   4   2   4   2   2   0 )
 Number of open-shell orbitals:      8 (   1   2   2   0   2   0   0   1 )


 
 Extra symmetries of mos in symmetry 1:   1   1   1   3   2   1   3   2   1   3   2
 Extra symmetries of mos in symmetry 2:   1   1   1   1   3   2
 Extra symmetries of mos in symmetry 3:   1   1   1   1   3   2
 Extra symmetries of mos in symmetry 5:   1   1   1   1   3   2
 Use fine grid record 1800.2 for energy threshold  1.0D-06
 Orbital guess generated from atomic densities. Full valence occupancy:   12   6   6   3   6   3   3   1


 Molecular orbital dump at record        3202.2

 ITERATION    DDIFF          GRAD             ENERGY        2-EL.EN.            DIPOLE MOMENTS         DIIS   ORB.
    1      0.000D+00      0.000D+00    -11269.53404580   8622.524624    0.00000    0.00000    0.00000    0    start
    2      0.000D+00      0.256D-01    -11270.17628052   8499.621751    0.00000    0.00000    0.00000    1    diag,B
    3      0.607D-01      0.289D-01    -11270.47064089   8590.159446    0.00000    0.00000    0.00000    2    diag,B
    4      0.612D-02      0.128D-02    -11270.47447914   8583.801263    0.00000    0.00000    0.00000    3    diag,B
    5      0.163D-02      0.526D-03    -11270.47479880   8586.300641    0.00000    0.00000    0.00000    4    diag,B
    6      0.630D-03      0.216D-03    -11270.47486191   8585.082897    0.00000    0.00000    0.00000    5    diag,B
    7      0.224D-03      0.515D-04    -11270.47486590   8585.346874    0.00000    0.00000    0.00000    6    fixocc
    8      0.410D-04      0.786D-05    -11270.47486629   8585.309306    0.00000    0.00000    0.00000    7    diag,B
    9      0.127D-04      0.125D-05    -11270.47486631   8585.308750    0.00000    0.00000    0.00000    8    diag,B
   10      0.346D-05      0.310D-06    -11270.47486631   8585.309428    0.00000    0.00000    0.00000    0    orth

 Final alpha occupancy:  10   6   6   2   6   2   2   1
 Final beta  occupancy:   9   4   4   2   4   2   2   0

 !RKS STATE 1.8 Energy               -11270.4748663126    
 Nuclear energy                         0.00000000
 One-electron energy               -15372.96130598
 Two-electron energy                 4292.65471390
 Density functional                  -190.16827423     PBEX=-248.84515950 PBEC=  -3.53440461
 Virial quotient                       -0.78335014
 !RKS STATE 1.8 Dipole moment           0.00000000     0.00000000     0.00000000
 Dipole moment /Debye                   0.00000000     0.00000000     0.00000000

 ELECTRON ORBITALS
 =================


   Orb  Occ    Energy  Couls-En    Coefficients

                                   1 1s      1 1s      1 1s      1 1s      1 1s      1 1s      1 1s      1 1s      1 1s      1 1s   
                                   1 1s      1 1s      1 1s      1 1s      1 1s      1 1s      1 1s      1 1s      1 1s      1 1s   
                                   1 1s      1 1s      1 1s      1 1s      1 1s      1 1s      1 1s      1 1s      1 1s      1 1s   
                                   1 1s      1 1s      1 1s      1 1s      1 1s      1 1s      1 1s      1 1s      1 3d0     1 3d2+ 
                                   1 3d0     1 3d2+    1 3d0     1 3d2+    1 3d0     1 3d2+    1 3d0     1 3d2+    1 3d0     1 3d2+ 
                                   1 3d0     1 3d2+    1 3d0     1 3d2+    1 3d0     1 3d2+    1 3d0     1 3d2+    1 3d0     1 3d2+ 
                                   1 3d0     1 3d2+    1 3d0     1 3d2+    1 3d0     1 3d2+    1 3d0     1 3d2+    1 3d0     1 3d2+ 
                                   1 3d0     1 3d2+    1 3d0     1 3d2+    1 3d0     1 3d2+    1 3d0     1 3d2+    1 3d0     1 3d2+ 
                                   1 3d0     1 3d2+    1 3d0     1 3d2+    1 3d0     1 3d2+    1 5g0     1 5g4+    1 5g2+    1 5g0  
                                   1 5g4+    1 5g2+    1 5g0     1 5g4+    1 5g2+    1 5g0     1 5g4+    1 5g2+    1 5g0     1 5g4+ 
                                   1 5g2+    1 5g0     1 5g4+    1 5g2+    1 5g0     1 5g4+    1 5g2+    1 5g0     1 5g4+    1 5g2+ 
                                   1 5g0     1 5g4+    1 5g2+ 

   1.1   2 -1841.7569-4015.2884  0.000378  0.000163  0.001378  0.003964  0.007291  0.013589  0.025815  0.050396  0.101628  0.199272
                                 0.334906  0.343596  0.145782  0.063576 -0.008691  0.007303 -0.028455 -0.032044 -0.019277  0.016220
                                 0.018620 -0.002225 -0.006004 -0.003866 -0.001473  0.015910  0.015378 -0.036720 -0.081850  0.031936
                                 0.035776 -0.026498  0.003080  0.007009  0.002209  0.000066 -0.000023  0.000005  0.000000 -0.000000
                                 0.000000  0.000000  0.000000  0.000000  0.000000  0.000000 -0.000000 -0.000000  0.000000  0.000000
                                -0.000000 -0.000000 -0.000000 -0.000000  0.000000  0.000000 -0.000000 -0.000000 -0.000000 -0.000000
                                -0.000000 -0.000000  0.000000  0.000000  0.000000  0.000000 -0.000000 -0.000000  0.000000  0.000000
                                 0.000000  0.000000  0.000000  0.000000 -0.000000 -0.000000  0.000000  0.000000 -0.000000 -0.000000
                                 0.000000  0.000000 -0.000000 -0.000000  0.000000  0.000000  0.000000  0.000000 -0.000000 -0.000000
                                -0.000000  0.000000  0.000000  0.000000 -0.000000 -0.000000 -0.000000  0.000000  0.000000  0.000000
                                -0.000000 -0.000000 -0.000000  0.000000  0.000000  0.000000 -0.000000 -0.000000 -0.000000  0.000000
                                 0.000000  0.000000 -0.000000

   2.1   2  -305.6104 -854.1140 -0.000137 -0.000059 -0.000501 -0.001444 -0.002675 -0.005019 -0.009704 -0.019255 -0.040887 -0.080422
                                -0.145255 -0.152181  0.142638  0.605850  0.424137  0.031215  0.014382  0.050453  0.036082 -0.032314
                                -0.038491  0.004726  0.012947  0.008366  0.003195 -0.016578 -0.051527 -0.082317 -0.007807 -0.028999
                                -0.061272  0.054342 -0.006612 -0.015145 -0.004791 -0.000144  0.000050 -0.000011  0.000000 -0.000000
                                 0.000000  0.000000  0.000000  0.000000  0.000001  0.000000  0.000003  0.000000  0.000002 -0.000000
                                 0.000001  0.000000  0.000001  0.000000 -0.000001 -0.000000  0.000000  0.000000  0.000000  0.000000
                                -0.000000  0.000000 -0.000000 -0.000000 -0.000001 -0.000000  0.000001  0.000000 -0.000000 -0.000000
                                -0.000000 -0.000000  0.000000 -0.000000 -0.000000  0.000000  0.000000 -0.000000 -0.000000 -0.000000
                                 0.000000  0.000000 -0.000000 -0.000000  0.000000  0.000000 -0.000000 -0.000000 -0.000000  0.000000
                                 0.000000  0.000000 -0.000000 -0.000000 -0.000000  0.000000  0.000000  0.000000 -0.000000 -0.000000
                                -0.000000  0.000000  0.000000  0.000000 -0.000000 -0.000000 -0.000000  0.000000  0.000000  0.000000
                                -0.000000 -0.000000 -0.000000

   3.1   2   -68.6004 -300.2010  0.000064  0.000027  0.000232  0.000670  0.001243  0.002329  0.004536  0.008953  0.019464  0.034566
                                 0.055068  0.027913 -0.211109 -0.822734 -0.326035  0.909427  0.036604 -0.534369 -0.383673  0.345684
                                 0.416927 -0.052080 -0.144824 -0.094026 -0.036040  0.014447  0.054553  0.132765  0.289222  0.521135
                                 0.655259 -0.586523  0.073603  0.169866  0.054019  0.001626 -0.000571  0.000123  0.000000 -0.000000
                                 0.000000  0.000000  0.000001  0.000000  0.000003  0.000000  0.000011  0.000000  0.000028  0.000000
                                 0.000039 -0.000000  0.000003 -0.000000  0.000039  0.000000 -0.000004 -0.000000 -0.000003 -0.000000
                                -0.000000 -0.000000  0.000025  0.000000  0.000057  0.000000 -0.000058 -0.000000  0.000004  0.000000
                                 0.000001  0.000000  0.000000  0.000000 -0.000000 -0.000000  0.000000  0.000000 -0.000000 -0.000000
                                 0.000000  0.000000 -0.000000 -0.000000  0.000000  0.000000 -0.000001 -0.000007 -0.000000  0.000001
                                 0.000007  0.000000 -0.000001 -0.000006 -0.000000  0.000001  0.000003  0.000000 -0.000000 -0.000002
                                -0.000000  0.000000  0.000001  0.000000 -0.000000 -0.000001 -0.000000  0.000000  0.000000  0.000000
                                -0.000000 -0.000000 -0.000000

   4.1   2   -44.2816 -259.5445  0.000000  0.000000  0.000000  0.000000 -0.000000  0.000000 -0.000000  0.000000 -0.000000  0.000000
                                 0.000000  0.000000  0.000000  0.000000 -0.000000  0.000000 -0.000000  0.000000  0.000000 -0.000000
                                -0.000000  0.000000  0.000000  0.000000  0.000000 -0.000000 -0.000000 -0.000000 -0.000000  0.000000
                                -0.000000  0.000000 -0.000000 -0.000000 -0.000000 -0.000000  0.000000 -0.000000 -0.000000  0.000109
                                -0.000000  0.001353 -0.000000  0.008392 -0.000000  0.038357 -0.000000  0.140343 -0.000000  0.327398
                                -0.000000  0.480852 -0.000000  0.431561  0.000000 -0.091258 -0.000000  0.011104 -0.000000  0.006748
                                -0.000000  0.000845  0.000000 -0.090969  0.000000 -0.263598 -0.000000  0.235541  0.000000 -0.009389
                                 0.000000 -0.002425  0.000000 -0.000595 -0.000000  0.000556  0.000000 -0.000343 -0.000000  0.000198
                                 0.000000 -0.000072 -0.000000  0.000031  0.000000 -0.000009 -0.000000  0.000000  0.000024  0.000000
                                 0.000000 -0.000015 -0.000000 -0.000000  0.000014  0.000000  0.000000 -0.000009 -0.000000 -0.000000
                                 0.000006  0.000000 -0.000000 -0.000004 -0.000000 -0.000000  0.000002  0.000000 -0.000000 -0.000001
                                -0.000000 -0.000000  0.000000

   5.1   2   -44.2852 -259.5432 -0.000000 -0.000000 -0.000000 -0.000000 -0.000000 -0.000000 -0.000001 -0.000001 -0.000002 -0.000003
                                -0.000003  0.000008  0.000048  0.000149  0.000033 -0.000148  0.000019  0.000111  0.000080 -0.000071
                                -0.000087  0.000011  0.000030  0.000019  0.000007 -0.000003 -0.000013 -0.000035 -0.000083 -0.000070
                                -0.000125  0.000124 -0.000015 -0.000035 -0.000011 -0.000000  0.000000 -0.000000  0.000109  0.000000
                                 0.001353  0.000000  0.008391  0.000000  0.038354  0.000000  0.140330  0.000000  0.327367  0.000000
                                 0.480812  0.000000  0.431489  0.000000 -0.091134 -0.000000  0.011119  0.000000  0.006743  0.000000
                                 0.000775  0.000000 -0.090916 -0.000000 -0.263438 -0.000000  0.235389  0.000000 -0.009394 -0.000000
                                -0.002471 -0.000000 -0.000641 -0.000000  0.000538  0.000000 -0.000349 -0.000000  0.000199  0.000000
                                -0.000072 -0.000000  0.000031  0.000000 -0.000009 -0.000000  0.000032  0.000007  0.000000 -0.000019
                                -0.000005 -0.000000  0.000017  0.000005  0.000000 -0.000011 -0.000003 -0.000000  0.000008  0.000002
                                 0.000000 -0.000005 -0.000001 -0.000000  0.000003  0.000001  0.000000 -0.000001 -0.000000 -0.000000
                                 0.000000  0.000000  0.000000

   6.1   2   -14.4166 -129.1011 -0.000031 -0.000013 -0.000113 -0.000326 -0.000605 -0.001133 -0.002211 -0.004353 -0.009534 -0.016260
                                -0.024309 -0.004981  0.130217  0.511663  0.181247 -0.890948 -0.644587  1.106131  0.694835 -0.311784
                                -0.444484  0.059453  0.174597  0.115437  0.044887 -0.008207 -0.032028 -0.082627 -0.205557  0.203839
                                -0.243939  0.617538 -0.087114 -0.206855 -0.067126 -0.002044  0.000720 -0.000155 -0.000000 -0.000000
                                -0.000000 -0.000000 -0.000003 -0.000000 -0.000012 -0.000000 -0.000046 -0.000000 -0.000111 -0.000000
                                -0.000172 -0.000000 -0.000304 -0.000000  0.000614  0.000000  0.000328  0.000000  0.000031  0.000000
                                 0.000001  0.000000  0.000074  0.000000  0.000553  0.000000 -0.000536 -0.000000  0.000109  0.000000
                                -0.000006 -0.000000 -0.000002  0.000000  0.000001  0.000000 -0.000001  0.000000  0.000000 -0.000000
                                -0.000000  0.000000  0.000000 -0.000000 -0.000000 -0.000000 -0.000001 -0.000005 -0.000000 -0.000004
                                -0.000025 -0.000000 -0.000012 -0.000071 -0.000000  0.000000  0.000003  0.000000 -0.000000 -0.000000
                                -0.000000  0.000001  0.000003  0.000000 -0.000000 -0.000001 -0.000000  0.000000  0.000001  0.000000
                                -0.000000 -0.000000 -0.000000

   7.1   2    -6.0914 -104.4879  0.000000  0.000000  0.000000  0.000000  0.000000  0.000000  0.000000 -0.000000  0.000000 -0.000000
                                -0.000000 -0.000000 -0.000000 -0.000000 -0.000000  0.000000  0.000000 -0.000000 -0.000000  0.000000
                                -0.000000  0.000000  0.000000  0.000000  0.000000  0.000000  0.000000  0.000000  0.000000 -0.000000
                                -0.000000  0.000000 -0.000000 -0.000000 -0.000000 -0.000000  0.000000 -0.000000 -0.000000 -0.000053
                                -0.000000 -0.000649 -0.000000 -0.004068 -0.000000 -0.018692 -0.000000 -0.069903 -0.000000 -0.163539
                                -0.000000 -0.236719 -0.000000 -0.249108  0.000000  0.897861  0.000000  0.390935  0.000000  0.089446
                                 0.000000  0.007303  0.000000  0.100341  0.000000  0.559472 -0.000000 -0.658792  0.000000  0.059008
                                -0.000000 -0.003601 -0.000000 -0.005389  0.000000  0.004971 -0.000000 -0.003229  0.000000  0.001886
                                -0.000000 -0.000693  0.000000  0.000297 -0.000000 -0.000085  0.000000  0.000000  0.000048  0.000000
                                 0.000000  0.000076  0.000000  0.000000  0.000238  0.000000  0.000000  0.000191  0.000000 -0.000000
                                -0.000004  0.000000 -0.000000 -0.000004 -0.000000 -0.000000 -0.000003  0.000000  0.000000  0.000000
                                -0.000000 -0.000000 -0.000000

   8.1   2    -6.1004 -104.4634  0.000000  0.000000  0.000000  0.000000  0.000001  0.000002  0.000003  0.000006  0.000013  0.000023
                                 0.000035  0.000013 -0.000167 -0.000685 -0.000270  0.001415  0.000719 -0.001899 -0.001419  0.001467
                                 0.000487 -0.000022 -0.000130 -0.000101 -0.000043  0.000010  0.000040  0.000104  0.000255 -0.000078
                                -0.000307  0.000505  0.000041  0.000169  0.000063  0.000002 -0.000001  0.000000 -0.000052  0.000000
                                -0.000649  0.000000 -0.004066  0.000000 -0.018680  0.000000 -0.069856  0.000000 -0.163429  0.000000
                                -0.236594  0.000000 -0.249273  0.000000  0.897059 -0.000000  0.390880 -0.000000  0.090006 -0.000000
                                 0.006941 -0.000000  0.100325 -0.000000  0.559422 -0.000000 -0.658457  0.000000  0.059529 -0.000000
                                -0.003702  0.000000 -0.005622  0.000000  0.004875 -0.000000 -0.003253  0.000000  0.001889 -0.000000
                                -0.000694  0.000000  0.000297 -0.000000 -0.000085  0.000000  0.000065  0.000012 -0.000000  0.000099
                                 0.000021 -0.000000  0.000263  0.000126 -0.000000  0.000235  0.000074 -0.000000  0.000013 -0.000034
                                 0.000000  0.000004 -0.000004  0.000000 -0.000003 -0.000003  0.000000  0.000001  0.000001 -0.000000
                                -0.000000 -0.000000  0.000000

   9.1   2    -2.4255  -55.2205  0.000013  0.000005  0.000046  0.000132  0.000246  0.000461  0.000900  0.001771  0.003883  0.006580
                                 0.009733  0.001459 -0.055044 -0.217786 -0.077099  0.428493  0.372065 -0.802714 -0.727286  0.676877
                                 1.580015  0.330384  0.095751  0.050727  0.016903  0.003417  0.013403  0.034890  0.088601 -0.168235
                                 0.103533 -0.967665 -0.048470 -0.100196 -0.025848 -0.000711  0.000244 -0.000052  0.000000  0.000000
                                 0.000003  0.000000  0.000017  0.000000  0.000078  0.000000  0.000293  0.000000  0.000684  0.000000
                                 0.001019  0.000000  0.001345  0.000000 -0.004838 -0.000000 -0.001562 -0.000000  0.001838  0.000000
                                 0.001437  0.000000 -0.000509 -0.000000 -0.003155 -0.000000  0.003891  0.000000 -0.000686  0.000000
                                 0.004875  0.000000 -0.000220  0.000000  0.000109  0.000000 -0.000067  0.000000  0.000036  0.000000
                                -0.000012 -0.000000  0.000005  0.000000 -0.000001 -0.000000 -0.000001  0.000002  0.000000 -0.000005
                                -0.000051 -0.000000 -0.000006  0.000051  0.000000 -0.000105 -0.000878 -0.000000 -0.000026  0.000323
                                 0.000000  0.000135  0.000637  0.000000 -0.000036 -0.000068 -0.000000  0.000022  0.000072  0.000000
                                -0.000007 -0.000025 -0.000000

  10.1   +    -0.6314  -32.5605 -0.000000 -0.000000 -0.000000 -0.000000 -0.000000 -0.000000 -0.000000 -0.000000 -0.000000  0.000000
                                 0.000000  0.000000  0.000000  0.000000  0.000000 -0.000000 -0.000000  0.000000  0.000000 -0.000000
                                 0.000000 -0.000000  0.000000  0.000000  0.000000 -0.000000 -0.000000 -0.000000 -0.000000  0.000000
                                -0.000000 -0.000000  0.000000 -0.000000 -0.000000 -0.000000  0.000000 -0.000000  0.000000  0.000014
                                 0.000000  0.000168  0.000000  0.001054  0.000000  0.004856  0.000000  0.018179  0.000000  0.042717
                                 0.000000  0.058746  0.000000  0.038531 -0.000000 -0.218632 -0.000000 -0.129548  0.000000 -0.015118
                                 0.000000  0.423408 -0.000000 -0.021653 -0.000000 -0.114141  0.000000  0.117963  0.000000  0.083384
                                 0.000000  0.299273  0.000000  0.288535  0.000000  0.107958  0.000000  0.034742 -0.000000 -0.006406
                                 0.000000  0.002153 -0.000000 -0.000871  0.000000  0.000244 -0.000000 -0.000000 -0.000016  0.000000
                                -0.000000  0.000037 -0.000000  0.000000 -0.000126  0.000000  0.000000  0.000496 -0.000000  0.000000
                                 0.000674 -0.000000 -0.000000 -0.003343 -0.000000  0.000000  0.000021 -0.000000 -0.000000 -0.001038
                                 0.000000 -0.000000  0.000233

  11.1   0    -0.5370  -31.8344  0.000001  0.000000  0.000002  0.000007  0.000012  0.000023  0.000045  0.000088  0.000194  0.000328
                                 0.000482  0.000062 -0.002777 -0.010977 -0.003864  0.021821  0.021721 -0.033651 -0.028382  0.034394
                                 0.196370  0.042657 -0.107712 -0.042658 -0.001687  0.000172  0.000676  0.001763  0.004492 -0.012479
                                -0.013127 -0.112176 -0.030160 -0.023221 -0.000180  0.000163 -0.000065  0.000015  0.000013 -0.000000
                                 0.000164 -0.000000  0.001026 -0.000000  0.004723 -0.000000  0.017695 -0.000000  0.041514 -0.000000
                                 0.058018 -0.000000  0.045222 -0.000000 -0.228178  0.000000 -0.120298  0.000000 -0.004409  0.000000
                                 0.402632 -0.000000 -0.023075  0.000000 -0.125578  0.000000  0.136670 -0.000000  0.069490 -0.000000
                                 0.289799 -0.000000  0.294467 -0.000000  0.110797 -0.000000  0.051118 -0.000000 -0.009758  0.000000
                                 0.003837 -0.000000 -0.001615  0.000000  0.000462 -0.000000 -0.000024 -0.000035  0.000000  0.000082
                                 0.000083 -0.000000 -0.000188 -0.000375  0.000000  0.000981  0.000499 -0.000000  0.001176 -0.002130
                                 0.000000  0.001584 -0.006994  0.000000  0.000153 -0.005896 -0.000000 -0.001287 -0.003669  0.000000
                                 0.000247  0.000330 -0.000000

  12.1   0    -0.5243  -22.6156 -0.000005 -0.000002 -0.000017 -0.000049 -0.000092 -0.000172 -0.000335 -0.000660 -0.001447 -0.002470
                                -0.003700 -0.000760  0.020109  0.080540  0.029421 -0.164788 -0.140388  0.340780  0.346419 -0.389023
                                -1.126934 -0.438094  0.291428  0.022914 -0.107811 -0.001246 -0.004876 -0.012656 -0.032070  0.059816
                                -0.049712  0.673990  0.458805  0.586200  0.176371  0.005010 -0.001818  0.000400  0.000002 -0.000000
                                 0.000025 -0.000000  0.000155 -0.000000  0.000713 -0.000000  0.002676 -0.000000  0.006260 -0.000000
                                 0.008988 -0.000000  0.008755 -0.000000 -0.038014  0.000000 -0.017103  0.000000 -0.002120 -0.000000
                                 0.058625 -0.000000 -0.004013  0.000000 -0.022541  0.000000  0.025754 -0.000000  0.009587 -0.000000
                                 0.046309 -0.000000  0.057915 -0.000000  0.004361 -0.000000  0.009161  0.000000 -0.003041 -0.000000
                                 0.001183  0.000000 -0.000514 -0.000000  0.000149  0.000000 -0.000009  0.000048  0.000000  0.000044
                                -0.000106 -0.000000 -0.000093  0.000435  0.000000  0.000432 -0.000355 -0.000000 -0.000482  0.000679
                                 0.000000  0.002672  0.004578  0.000000 -0.000558  0.009861  0.000000 -0.000580  0.007558  0.000000
                                 0.000078 -0.000552 -0.000000

                                   1 2px     1 2px     1 2px     1 2px     1 2px     1 2px     1 2px     1 2px     1 2px     1 2px  
                                   1 2px     1 2px     1 2px     1 2px     1 2px     1 2px     1 2px     1 2px     1 2px     1 2px  
                                   1 2px     1 2px     1 2px     1 2px     1 2px     1 2px     1 2px     1 2px     1 2px     1 2px  
                                   1 2px     1 2px     1 2px     1 2px     1 2px     1 2px     1 2px     1 4f1+    1 4f3+    1 4f1+ 
                                   1 4f3+    1 4f1+    1 4f3+    1 4f1+    1 4f3+    1 4f1+    1 4f3+    1 4f1+    1 4f3+    1 4f1+ 
                                   1 4f3+    1 4f1+    1 4f3+    1 4f1+    1 4f3+    1 4f1+    1 4f3+    1 4f1+    1 4f3+    1 4f1+ 
                                   1 4f3+    1 4f1+    1 4f3+    1 4f1+    1 4f3+    1 6h1+    1 6h3+    1 6h5+    1 6h1+    1 6h3+ 
                                   1 6h5+    1 6h1+    1 6h3+    1 6h5+ 

   1.2   2  -272.4061 -797.8895  0.000012  0.000002  0.000028  0.000033  0.000094  0.000160  0.000334  0.000654  0.001194  0.004172
                                 0.001986  0.014675  0.043394  0.124480  0.297005  0.417766  0.253826  0.025919 -0.014744 -0.040183
                                -0.014945 -0.006353 -0.001018  0.000510 -0.000342  0.000338  0.003087  0.014915  0.038437  0.020731
                                 0.004957  0.003933 -0.000114 -0.000408  0.000297  0.000030 -0.000005  0.000001  0.000000  0.000002
                                 0.000001  0.000001 -0.000000 -0.000000 -0.000000 -0.000000 -0.000000 -0.000000  0.000000 -0.000000
                                 0.000000  0.000000 -0.000000  0.000000 -0.000000 -0.000000  0.000000  0.000000  0.000000 -0.000000
                                -0.000000  0.000000  0.000000 -0.000000 -0.000000 -0.000000  0.000000 -0.000000  0.000000 -0.000000
                                 0.000000 -0.000000  0.000000 -0.000000

   2.2   2   -58.2173 -280.9748 -0.000006 -0.000001 -0.000014 -0.000016 -0.000046 -0.000078 -0.000165 -0.000322 -0.000596 -0.002063
                                -0.001035 -0.007328 -0.022271 -0.065590 -0.166580 -0.239496 -0.050935  0.339065  0.388953 -0.020069
                                 0.013685  0.009098  0.001594 -0.000824  0.000560 -0.000560  0.130382  0.185919  0.111440 -0.013081
                                -0.006583 -0.005856  0.000190  0.000679 -0.000496 -0.000051  0.000009 -0.000000 -0.000000  0.000002
                                 0.000000  0.000019 -0.000007  0.000030 -0.000009  0.000018 -0.000008  0.000003 -0.000004 -0.000000
                                -0.000002 -0.000017  0.000008 -0.000009  0.000004  0.000000 -0.000000 -0.000000 -0.000000  0.000000
                                 0.000000 -0.000000 -0.000000  0.000000  0.000000 -0.000000  0.000000 -0.000003  0.000000 -0.000000
                                 0.000001 -0.000000  0.000000 -0.000000

   3.2   2   -10.9573 -119.0813  0.000003  0.000001  0.000007  0.000008  0.000022  0.000037  0.000079  0.000153  0.000288  0.000980
                                 0.000517  0.003491  0.010765  0.031754  0.082151  0.117850  0.016532 -0.169110 -0.146618  0.435015
                                 0.182887 -0.151986 -0.022809  0.011634 -0.007940  0.007996 -0.123195 -0.270709  0.078297  0.401721
                                 0.180202  0.091003 -0.002741 -0.009743  0.007131  0.000731 -0.000130  0.000000 -0.000000  0.000004
                                -0.000003  0.000022 -0.000011  0.000080 -0.000027  0.000086 -0.000007  0.000192 -0.000108  0.000018
                                -0.000011  0.000077 -0.000012  0.000166 -0.000112 -0.000006  0.000003  0.000005 -0.000004 -0.000003
                                 0.000002  0.000002 -0.000001 -0.000001  0.000000 -0.000001  0.000001 -0.000008 -0.000009  0.000009
                                -0.000066 -0.000002  0.000003 -0.000016

   4.2   2    -1.5570  -47.5840 -0.000001 -0.000000 -0.000002 -0.000003 -0.000008 -0.000014 -0.000029 -0.000056 -0.000106 -0.000360
                                -0.000190 -0.001282 -0.003960 -0.011692 -0.030343 -0.043562 -0.005044  0.065849  0.047788 -0.220243
                                -0.055797  0.212030  0.341311  0.058801  0.006627 -0.005978  0.049114  0.114408 -0.069308 -0.271095
                                 0.183166  0.380666  0.002449  0.007989 -0.006128 -0.000673  0.000122  0.000008 -0.000006  0.000133
                                -0.000101  0.000804 -0.000619  0.002446 -0.001850  0.004988 -0.003476  0.005333 -0.003261  0.005756
                                -0.000954 -0.000497  0.000240 -0.001796  0.000933 -0.000702  0.002799  0.001010 -0.000266 -0.000759
                                 0.000475  0.000415 -0.000266 -0.000142  0.000092  0.000001  0.000000  0.000015  0.000001 -0.000003
                                -0.000054 -0.000074  0.000099 -0.000409

   5.2   +    -1.0020  -79.2642 -0.000000 -0.000000 -0.000000 -0.000000 -0.000000 -0.000000 -0.000000 -0.000000 -0.000000 -0.000000
                                -0.000000 -0.000000 -0.000001 -0.000003 -0.000009 -0.000009 -0.000023 -0.000103 -0.000095 -0.001094
                                -0.003445 -0.006977  0.004056  0.002918  0.001848 -0.000739  0.000077  0.000140  0.000784  0.002963
                                 0.002198  0.003971  0.000237  0.000877 -0.000626 -0.000063  0.000011  0.000024  0.000982  0.000376
                                 0.015292  0.002357  0.095896  0.006496  0.264086  0.009638  0.392572  0.009536  0.387414  0.004356
                                 0.216979  0.000428  0.018680  0.000513  0.018187 -0.001552 -0.009221  0.000824  0.046734 -0.000745
                                -0.029436  0.000416  0.016317 -0.000144 -0.005612  0.000011  0.000022 -0.000023 -0.000038  0.000147
                                 0.000065  0.000136  0.000421 -0.000312

   6.2   +    -1.0100  -79.3143  0.000000  0.000000  0.000000  0.000000  0.000000  0.000000  0.000000  0.000000  0.000001  0.000003
                                 0.000001  0.000010  0.000030  0.000088  0.000229  0.000327  0.000042 -0.000509 -0.000412  0.001582
                                 0.001297  0.001294 -0.005327 -0.002621 -0.000882  0.000268 -0.000378 -0.000822  0.000702  0.001411
                                -0.002505 -0.004116 -0.000101 -0.000343  0.000258  0.000027 -0.000005  0.000982 -0.000022  0.015294
                                -0.000349  0.095898 -0.002185  0.264194 -0.006014  0.393203 -0.008967  0.388469 -0.008841  0.216706
                                -0.005975  0.018437 -0.000452  0.017631 -0.000338 -0.011447 -0.001127  0.045961 -0.001401 -0.029502
                                 0.000655  0.016346 -0.000360 -0.005622  0.000123  0.000049  0.000027 -0.000017  0.000206 -0.000140
                                 0.000115  0.000858  0.000329 -0.000188

   7.2   0    -0.3724  -18.1942 -0.000000 -0.000000 -0.000001 -0.000001 -0.000003 -0.000005 -0.000010 -0.000020 -0.000037 -0.000127
                                -0.000067 -0.000451 -0.001394 -0.004115 -0.010687 -0.015336 -0.001802  0.021947  0.014498 -0.090170
                                -0.022211  0.061791  0.184164 -0.108388 -0.613079 -0.456812  0.017832  0.043186 -0.018238 -0.098953
                                 0.105612  0.231467  0.029928  0.078800 -0.087408 -0.007800  0.001382 -0.000004  0.000012 -0.000062
                                 0.000181 -0.000393  0.001134 -0.001046  0.003111 -0.001302  0.004503 -0.000878  0.003754  0.000339
                                 0.000703 -0.000178  0.000227 -0.000460  0.000344  0.000556 -0.008334  0.001272 -0.026702  0.007359
                                -0.020243 -0.001704  0.000735  0.000660 -0.000723 -0.000001  0.000000 -0.000005 -0.000001  0.000003
                                 0.000009 -0.000024  0.000022 -0.000189

   8.2   0    -0.1707   -9.3628 -0.000000 -0.000000 -0.000000 -0.000001 -0.000002 -0.000003 -0.000006 -0.000011 -0.000021 -0.000070
                                -0.000037 -0.000249 -0.000770 -0.002274 -0.005902 -0.008478 -0.000931  0.012786  0.008871 -0.044024
                                -0.004813  0.056456  0.133408 -0.110568 -0.618837 -0.334086  0.009625  0.022989 -0.015041 -0.062848
                                 0.052731  0.116963  0.299362  0.493747  0.581681  0.002095  0.000581 -0.000001  0.000006 -0.000010
                                 0.000090 -0.000065  0.000568 -0.000181  0.001541 -0.000240  0.002135 -0.000040  0.001672  0.000372
                                 0.000076 -0.000016  0.000155 -0.000081  0.000293 -0.001124 -0.005866  0.001620 -0.022474 -0.010782
                                 0.013127 -0.006553  0.016823  0.000282  0.002772 -0.000000  0.000000 -0.000004  0.000000  0.000002
                                 0.000009 -0.000016  0.000010 -0.000127

                                   1 2py     1 2py     1 2py     1 2py     1 2py     1 2py     1 2py     1 2py     1 2py     1 2py  
                                   1 2py     1 2py     1 2py     1 2py     1 2py     1 2py     1 2py     1 2py     1 2py     1 2py  
                                   1 2py     1 2py     1 2py     1 2py     1 2py     1 2py     1 2py     1 2py     1 2py     1 2py  
                                   1 2py     1 2py     1 2py     1 2py     1 2py     1 2py     1 2py     1 4f1-    1 4f3-    1 4f1- 
                                   1 4f3-    1 4f1-    1 4f3-    1 4f1-    1 4f3-    1 4f1-    1 4f3-    1 4f1-    1 4f3-    1 4f1- 
                                   1 4f3-    1 4f1-    1 4f3-    1 4f1-    1 4f3-    1 4f1-    1 4f3-    1 4f1-    1 4f3-    1 4f1- 
                                   1 4f3-    1 4f1-    1 4f3-    1 4f1-    1 4f3-    1 6h1-    1 6h3-    1 6h5-    1 6h1-    1 6h3- 
                                   1 6h5-    1 6h1-    1 6h3-    1 6h5- 

   1.3   2  -272.4061 -797.8895  0.000012  0.000002  0.000028  0.000033  0.000094  0.000160  0.000334  0.000654  0.001194  0.004172
                                 0.001986  0.014675  0.043394  0.124480  0.297005  0.417766  0.253826  0.025919 -0.014744 -0.040183
                                -0.014945 -0.006353 -0.001018  0.000510 -0.000342  0.000338  0.003087  0.014915  0.038437  0.020731
                                 0.004957  0.003933 -0.000114 -0.000408  0.000297  0.000030 -0.000005  0.000001 -0.000000  0.000002
                                -0.000001  0.000001  0.000000 -0.000000  0.000000 -0.000000  0.000000 -0.000000 -0.000000 -0.000000
                                -0.000000  0.000000  0.000000  0.000000  0.000000 -0.000000 -0.000000  0.000000 -0.000000 -0.000000
                                 0.000000  0.000000 -0.000000 -0.000000  0.000000 -0.000000 -0.000000 -0.000000  0.000000  0.000000
                                 0.000000 -0.000000 -0.000000 -0.000000

   2.3   2   -58.2173 -280.9748 -0.000006 -0.000001 -0.000014 -0.000016 -0.000046 -0.000078 -0.000165 -0.000322 -0.000596 -0.002063
                                -0.001035 -0.007328 -0.022271 -0.065590 -0.166580 -0.239496 -0.050935  0.339065  0.388953 -0.020069
                                 0.013685  0.009098  0.001594 -0.000824  0.000560 -0.000560  0.130382  0.185919  0.111439 -0.013081
                                -0.006583 -0.005856  0.000190  0.000679 -0.000496 -0.000051  0.000009 -0.000000  0.000000  0.000002
                                -0.000000  0.000019  0.000007  0.000030  0.000009  0.000018  0.000008  0.000003  0.000004 -0.000000
                                 0.000002 -0.000017 -0.000008 -0.000009 -0.000004  0.000000  0.000000 -0.000000  0.000000  0.000000
                                -0.000000 -0.000000  0.000000  0.000000 -0.000000 -0.000000 -0.000000 -0.000003  0.000000  0.000000
                                 0.000001 -0.000000 -0.000000 -0.000000

   3.3   2   -10.9573 -119.0813  0.000003  0.000001  0.000007  0.000008  0.000022  0.000037  0.000079  0.000153  0.000288  0.000980
                                 0.000517  0.003491  0.010765  0.031754  0.082151  0.117850  0.016532 -0.169110 -0.146618  0.435015
                                 0.182887 -0.151986 -0.022809  0.011634 -0.007940  0.007996 -0.123195 -0.270709  0.078297  0.401721
                                 0.180202  0.091003 -0.002741 -0.009743  0.007131  0.000731 -0.000130  0.000000  0.000000  0.000004
                                 0.000003  0.000022  0.000011  0.000080  0.000027  0.000086  0.000007  0.000192  0.000108  0.000018
                                 0.000011  0.000077  0.000012  0.000166  0.000112 -0.000006 -0.000003  0.000005  0.000004 -0.000003
                                -0.000002  0.000002  0.000001 -0.000001 -0.000000 -0.000001 -0.000001 -0.000008 -0.000009 -0.000009
                                -0.000066 -0.000002 -0.000003 -0.000016

   4.3   2    -1.5570  -47.5840 -0.000001 -0.000000 -0.000002 -0.000003 -0.000008 -0.000014 -0.000029 -0.000056 -0.000106 -0.000360
                                -0.000190 -0.001282 -0.003960 -0.011692 -0.030343 -0.043562 -0.005044  0.065849  0.047788 -0.220243
                                -0.055797  0.212030  0.341311  0.058801  0.006627 -0.005978  0.049114  0.114408 -0.069308 -0.271095
                                 0.183166  0.380666  0.002449  0.007989 -0.006128 -0.000673  0.000122  0.000008  0.000006  0.000133
                                 0.000101  0.000804  0.000619  0.002446  0.001850  0.004988  0.003476  0.005333  0.003261  0.005756
                                 0.000954 -0.000497 -0.000240 -0.001796 -0.000933 -0.000702 -0.002799  0.001010  0.000266 -0.000759
                                -0.000475  0.000415  0.000266 -0.000142 -0.000092  0.000001 -0.000000  0.000015  0.000001  0.000003
                                -0.000054 -0.000074 -0.000099 -0.000409

   5.3   +    -1.0020  -79.2642  0.000000  0.000000  0.000000  0.000000  0.000000  0.000000  0.000000  0.000000  0.000000  0.000000
                                 0.000000  0.000000  0.000001  0.000003  0.000009  0.000009  0.000023  0.000103  0.000095  0.001094
                                 0.003445  0.006977 -0.004056 -0.002918 -0.001848  0.000739 -0.000077 -0.000140 -0.000784 -0.002963
                                -0.002198 -0.003971 -0.000237 -0.000877  0.000626  0.000063 -0.000011 -0.000024  0.000982 -0.000376
                                 0.015292 -0.002357  0.095896 -0.006496  0.264086 -0.009638  0.392572 -0.009536  0.387414 -0.004356
                                 0.216979 -0.000428  0.018680 -0.000513  0.018187  0.001552 -0.009221 -0.000824  0.046734  0.000745
                                -0.029436 -0.000416  0.016317  0.000144 -0.005612 -0.000011  0.000022  0.000023  0.000038  0.000147
                                -0.000065 -0.000136  0.000421  0.000312

   6.3   +    -1.0100  -79.3143  0.000000  0.000000  0.000000  0.000000  0.000000  0.000000  0.000000  0.000000  0.000001  0.000003
                                 0.000001  0.000010  0.000030  0.000088  0.000229  0.000327  0.000042 -0.000509 -0.000412  0.001582
                                 0.001297  0.001294 -0.005327 -0.002621 -0.000882  0.000268 -0.000378 -0.000822  0.000702  0.001411
                                -0.002505 -0.004116 -0.000101 -0.000343  0.000258  0.000027 -0.000005  0.000982  0.000022  0.015294
                                 0.000349  0.095898  0.002185  0.264194  0.006014  0.393203  0.008967  0.388469  0.008840  0.216706
                                 0.005975  0.018437  0.000452  0.017631  0.000338 -0.011447  0.001127  0.045961  0.001401 -0.029502
                                -0.000655  0.016346  0.000360 -0.005622 -0.000123  0.000049 -0.000027 -0.000017  0.000206  0.000140
                                 0.000115  0.000858 -0.000329 -0.000188

   7.3   0    -0.3724  -18.1942 -0.000000 -0.000000 -0.000001 -0.000001 -0.000003 -0.000005 -0.000010 -0.000020 -0.000037 -0.000127
                                -0.000067 -0.000451 -0.001394 -0.004115 -0.010687 -0.015336 -0.001802  0.021947  0.014498 -0.090170
                                -0.022211  0.061791  0.184164 -0.108388 -0.613079 -0.456812  0.017832  0.043186 -0.018238 -0.098953
                                 0.105612  0.231467  0.029928  0.078800 -0.087408 -0.007800  0.001382 -0.000004 -0.000012 -0.000062
                                -0.000181 -0.000393 -0.001134 -0.001046 -0.003111 -0.001302 -0.004503 -0.000878 -0.003754  0.000339
                                -0.000703 -0.000178 -0.000227 -0.000460 -0.000344  0.000556  0.008334  0.001272  0.026702  0.007359
                                 0.020243 -0.001704 -0.000735  0.000660  0.000723 -0.000001 -0.000000 -0.000005 -0.000001 -0.000003
                                 0.000009 -0.000024 -0.000022 -0.000189

   8.3   0    -0.1707   -9.3628 -0.000000 -0.000000 -0.000000 -0.000001 -0.000002 -0.000003 -0.000006 -0.000011 -0.000021 -0.000070
                                -0.000037 -0.000249 -0.000770 -0.002274 -0.005902 -0.008478 -0.000931  0.012786  0.008871 -0.044024
                                -0.004813  0.056456  0.133408 -0.110568 -0.618837 -0.334086  0.009625  0.022989 -0.015041 -0.062848
                                 0.052731  0.116962  0.299362  0.493747  0.581681  0.002095  0.000581 -0.000001 -0.000006 -0.000010
                                -0.000090 -0.000065 -0.000568 -0.000181 -0.001541 -0.000240 -0.002135 -0.000040 -0.001672  0.000372
                                -0.000076 -0.000016 -0.000155 -0.000081 -0.000293 -0.001124  0.005866  0.001620  0.022474 -0.010782
                                -0.013127 -0.006553 -0.016823  0.000282 -0.002772 -0.000000 -0.000000 -0.000004  0.000000 -0.000002
                                 0.000009 -0.000016 -0.000010 -0.000127

                                   1 3d2-    1 3d2-    1 3d2-    1 3d2-    1 3d2-    1 3d2-    1 3d2-    1 3d2-    1 3d2-    1 3d2- 
                                   1 3d2-    1 3d2-    1 3d2-    1 3d2-    1 3d2-    1 3d2-    1 3d2-    1 3d2-    1 3d2-    1 3d2- 
                                   1 3d2-    1 3d2-    1 3d2-    1 3d2-    1 5g2-    1 5g4-    1 5g2-    1 5g4-    1 5g2-    1 5g4- 
                                   1 5g2-    1 5g4-    1 5g2-    1 5g4-    1 5g2-    1 5g4-    1 5g2-    1 5g4-    1 5g2-    1 5g4- 
                                   1 5g2-    1 5g4- 

   1.4   2   -44.2818 -259.5410  0.000109  0.001353  0.008391  0.038355  0.140332  0.327372  0.480833  0.431508 -0.091155  0.011120
                                 0.006744  0.000775 -0.090937 -0.263477  0.235414 -0.009394 -0.002471 -0.000641  0.000538 -0.000349
                                 0.000199 -0.000072  0.000031 -0.000009  0.000020  0.000000 -0.000012 -0.000000  0.000010  0.000000
                                -0.000007 -0.000000  0.000005  0.000000 -0.000003 -0.000000  0.000002  0.000000 -0.000001 -0.000000
                                 0.000000  0.000000

   2.4   2    -6.0933 -104.4718 -0.000053 -0.000649 -0.004067 -0.018684 -0.069873 -0.163470 -0.236672 -0.249476  0.897628  0.391006
                                 0.089819  0.006924  0.100405  0.559890 -0.659104  0.059362 -0.003852 -0.005626  0.004878 -0.003256
                                 0.001890 -0.000694  0.000298 -0.000085  0.000041  0.000000  0.000062  0.000000  0.000156  0.000000
                                 0.000143  0.000000  0.000012  0.000000  0.000003  0.000000 -0.000002 -0.000000  0.000001  0.000000
                                -0.000000 -0.000000

   3.4   0    -0.5146  -31.8971  0.000013  0.000165  0.001033  0.004755  0.017816  0.041801  0.058348  0.044919 -0.228658 -0.121623
                                -0.005380  0.400433 -0.023085 -0.125343  0.135992  0.071545  0.293319  0.296108  0.120201  0.056718
                                -0.009497  0.003969 -0.001667  0.000477 -0.000014 -0.000000  0.000051  0.000000 -0.000099 -0.000000
                                 0.000626  0.000000  0.000920  0.000000  0.001863  0.000000  0.000672 -0.000000 -0.000620  0.000000
                                 0.000153  0.000000

   4.4   0    -0.1926  -12.0396 -0.000005 -0.000065 -0.000405 -0.001867 -0.006985 -0.016431 -0.022350 -0.012733  0.080670  0.051558
                                 0.010510 -0.174299  0.007825  0.040319 -0.039967 -0.038057 -0.133809 -0.153303  0.127804  0.289195
                                 0.511986  0.232354 -0.017772  0.006021  0.000003 -0.000000 -0.000013  0.000000  0.000016 -0.000000
                                -0.000221  0.000000 -0.000451 -0.000000 -0.000789  0.000000  0.001980 -0.000000 -0.005185  0.000000
                                -0.000645  0.000000

                                   1 2pz     1 2pz     1 2pz     1 2pz     1 2pz     1 2pz     1 2pz     1 2pz     1 2pz     1 2pz  
                                   1 2pz     1 2pz     1 2pz     1 2pz     1 2pz     1 2pz     1 2pz     1 2pz     1 2pz     1 2pz  
                                   1 2pz     1 2pz     1 2pz     1 2pz     1 2pz     1 2pz     1 2pz     1 2pz     1 2pz     1 2pz  
                                   1 2pz     1 2pz     1 2pz     1 2pz     1 2pz     1 2pz     1 2pz     1 4f0     1 4f2+    1 4f0  
                                   1 4f2+    1 4f0     1 4f2+    1 4f0     1 4f2+    1 4f0     1 4f2+    1 4f0     1 4f2+    1 4f0  
                                   1 4f2+    1 4f0     1 4f2+    1 4f0     1 4f2+    1 4f0     1 4f2+    1 4f0     1 4f2+    1 4f0  
                                   1 4f2+    1 4f0     1 4f2+    1 4f0     1 4f2+    1 6h2+    1 6h4+    1 6h0     1 6h2+    1 6h4+ 
                                   1 6h0     1 6h2+    1 6h4+    1 6h0  

   1.5   2  -272.4079 -797.8912  0.000012  0.000002  0.000028  0.000033  0.000094  0.000160  0.000334  0.000654  0.001194  0.004172
                                 0.001987  0.014675  0.043394  0.124479  0.297004  0.417767  0.253826  0.025917 -0.014745 -0.040187
                                -0.014947 -0.006354 -0.001018  0.000510 -0.000342  0.000338  0.003089  0.014918  0.038441  0.020734
                                 0.004957  0.003933 -0.000114 -0.000408  0.000297  0.000030 -0.000005  0.000001  0.000000  0.000002
                                 0.000000  0.000001  0.000000 -0.000000 -0.000000 -0.000000 -0.000000  0.000000  0.000000  0.000000
                                 0.000000  0.000000  0.000000  0.000000  0.000000 -0.000000  0.000000  0.000000  0.000000 -0.000000
                                -0.000000  0.000000  0.000000 -0.000000 -0.000000 -0.000000 -0.000000 -0.000000  0.000000  0.000000
                                 0.000000 -0.000000 -0.000000 -0.000000

   2.5   2   -58.2216 -280.9779 -0.000006 -0.000001 -0.000014 -0.000016 -0.000046 -0.000078 -0.000165 -0.000322 -0.000596 -0.002062
                                -0.001035 -0.007328 -0.022271 -0.065588 -0.166576 -0.239494 -0.050923  0.339095  0.388981 -0.020085
                                 0.013679  0.009094  0.001594 -0.000823  0.000560 -0.000560  0.130340  0.185882  0.111460 -0.013072
                                -0.006579 -0.005853  0.000190  0.000679 -0.000495 -0.000050  0.000009 -0.000000 -0.000000  0.000002
                                 0.000000  0.000021  0.000000  0.000034  0.000000  0.000019  0.000000  0.000002 -0.000000 -0.000001
                                -0.000000 -0.000018 -0.000000 -0.000010 -0.000000  0.000000  0.000000 -0.000000 -0.000000  0.000000
                                 0.000000 -0.000000 -0.000000  0.000000  0.000000 -0.000000 -0.000002 -0.000001  0.000000  0.000001
                                 0.000000 -0.000000 -0.000000 -0.000000

   3.5   2   -10.9656 -119.0759  0.000003  0.000001  0.000007  0.000008  0.000022  0.000037  0.000079  0.000153  0.000288  0.000980
                                 0.000517  0.003490  0.010762  0.031746  0.082131  0.117821  0.016537 -0.169049 -0.146709  0.434516
                                 0.183287 -0.152194 -0.022839  0.011643 -0.007946  0.008002 -0.123173 -0.270594  0.078607  0.401235
                                 0.180689  0.091116 -0.002743 -0.009750  0.007136  0.000732 -0.000130  0.000000  0.000000  0.000004
                                 0.000000  0.000023  0.000000  0.000090  0.000000  0.000103  0.000000  0.000201  0.000000  0.000017
                                 0.000000  0.000091  0.000000  0.000170  0.000000 -0.000006 -0.000000  0.000004  0.000000 -0.000003
                                -0.000000  0.000001  0.000000 -0.000000 -0.000000 -0.000000 -0.000005 -0.000002 -0.000000 -0.000042
                                -0.000012 -0.000000 -0.000010 -0.000003

   4.5   2    -1.5746  -47.6456 -0.000001 -0.000000 -0.000002 -0.000003 -0.000008 -0.000014 -0.000029 -0.000056 -0.000106 -0.000360
                                -0.000191 -0.001284 -0.003964 -0.011705 -0.030376 -0.043613 -0.005029  0.066181  0.048293 -0.217043
                                -0.051794  0.223443  0.340594  0.055614  0.006251 -0.006028  0.049068  0.114109 -0.071905 -0.275138
                                 0.174469  0.379489  0.002460  0.008036 -0.006158 -0.000675  0.000122  0.000007  0.000000  0.000124
                                 0.000000  0.000746  0.000000  0.002319  0.000000  0.004992  0.000000  0.005444  0.000000  0.006370
                                 0.000000 -0.000604 -0.000000 -0.002089 -0.000000  0.000036  0.000000  0.000994  0.000000 -0.000707
                                -0.000000  0.000389  0.000000 -0.000133 -0.000000  0.000000  0.000012  0.000003 -0.000000 -0.000043
                                -0.000007 -0.000000 -0.000213 -0.000063

   5.5   +    -1.0072  -79.2254  0.000000  0.000000  0.000000  0.000000  0.000000  0.000000  0.000000  0.000000  0.000000  0.000000
                                 0.000000  0.000000  0.000000  0.000000  0.000000  0.000000  0.000000 -0.000000 -0.000000  0.000000
                                -0.000000 -0.000000 -0.000000 -0.000000 -0.000000  0.000000 -0.000000 -0.000000  0.000000  0.000000
                                -0.000000 -0.000000 -0.000000 -0.000000  0.000000  0.000000 -0.000000  0.000000  0.000982  0.000000
                                 0.015283  0.000000  0.095838  0.000000  0.263962  0.000000  0.392573  0.000000  0.387698  0.000000
                                 0.218044  0.000000  0.018611  0.000000  0.017958 -0.000000 -0.009526  0.000000  0.046879 -0.000000
                                -0.029550  0.000000  0.016356 -0.000000 -0.005622  0.000034  0.000000  0.000000  0.000243  0.000000
                                 0.000000  0.000648  0.000000  0.000000

   6.5   +    -1.0110  -79.3115  0.000000  0.000000  0.000000  0.000000  0.000000  0.000000  0.000000  0.000000  0.000001  0.000003
                                 0.000002  0.000011  0.000033  0.000098  0.000255  0.000365  0.000046 -0.000548 -0.000414  0.002052
                                 0.001281  0.002763 -0.004048 -0.002247 -0.000725  0.000281 -0.000424 -0.000964  0.000573  0.001666
                                -0.003503 -0.006418 -0.000101 -0.000344  0.000258  0.000027 -0.000005  0.000982 -0.000000  0.015296
                                -0.000000  0.095911 -0.000000  0.264240 -0.000000  0.393318 -0.000000  0.388636 -0.000000  0.216893
                                -0.000000  0.018422 -0.000000  0.017577 -0.000000 -0.011475  0.000000  0.045884 -0.000000 -0.029492
                                 0.000000  0.016340 -0.000000 -0.005619  0.000000 -0.000000 -0.000018  0.000037 -0.000000  0.000157
                                 0.000251 -0.000000 -0.000184  0.000706

   7.5   0    -0.3688  -18.2662 -0.000000 -0.000000 -0.000001 -0.000001 -0.000003 -0.000005 -0.000010 -0.000020 -0.000037 -0.000127
                                -0.000068 -0.000453 -0.001401 -0.004134 -0.010739 -0.015402 -0.001870  0.021413  0.013718 -0.095834
                                -0.027255  0.076629  0.210026 -0.146244 -0.602585 -0.438725  0.018153  0.044293 -0.014111 -0.093984
                                 0.105057  0.211368  0.024857  0.059034 -0.074705 -0.006413  0.001130 -0.000002  0.000000 -0.000039
                                 0.000000 -0.000233  0.000000 -0.000719  0.000000 -0.001348  0.000000 -0.000838  0.000000  0.002030
                                -0.000000  0.000129 -0.000000  0.000321 -0.000000 -0.005074 -0.000000  0.001904 -0.000000  0.010910
                                 0.000000 -0.002593  0.000000  0.001014 -0.000000 -0.000000 -0.000004 -0.000001  0.000000  0.000009
                                 0.000001 -0.000000 -0.000137 -0.000035

   8.5   0    -0.1701   -9.2579 -0.000000 -0.000000 -0.000000 -0.000001 -0.000002 -0.000003 -0.000006 -0.000011 -0.000020 -0.000069
                                -0.000036 -0.000244 -0.000755 -0.002228 -0.005787 -0.008301 -0.000995  0.011648  0.007495 -0.050956
                                -0.013280  0.048437  0.138062 -0.134500 -0.562364 -0.383958  0.009762  0.023793 -0.008554 -0.052710
                                 0.057648  0.116686  0.317621  0.506802  0.573168  0.000244  0.001020  0.000002  0.000000  0.000037
                                 0.000000  0.000240  0.000000  0.000582  0.000000  0.000518  0.000000  0.000608  0.000000  0.000973
                                 0.000000  0.000225  0.000000  0.000482  0.000000 -0.006018 -0.000000 -0.002882 -0.000000 -0.024400
                                -0.000000 -0.016116 -0.000000 -0.002032 -0.000000 -0.000000 -0.000003 -0.000001  0.000000  0.000007
                                 0.000003 -0.000000 -0.000085 -0.000025

                                   1 3d1+    1 3d1+    1 3d1+    1 3d1+    1 3d1+    1 3d1+    1 3d1+    1 3d1+    1 3d1+    1 3d1+ 
                                   1 3d1+    1 3d1+    1 3d1+    1 3d1+    1 3d1+    1 3d1+    1 3d1+    1 3d1+    1 3d1+    1 3d1+ 
                                   1 3d1+    1 3d1+    1 3d1+    1 3d1+    1 5g1+    1 5g3+    1 5g1+    1 5g3+    1 5g1+    1 5g3+ 
                                   1 5g1+    1 5g3+    1 5g1+    1 5g3+    1 5g1+    1 5g3+    1 5g1+    1 5g3+    1 5g1+    1 5g3+ 
                                   1 5g1+    1 5g3+ 

   1.6   2   -44.2844 -259.5427  0.000109  0.001353  0.008391  0.038354  0.140330  0.327368  0.480817  0.431494 -0.091139  0.011120
                                 0.006744  0.000775 -0.090921 -0.263448  0.235395 -0.009394 -0.002471 -0.000641  0.000538 -0.000349
                                 0.000199 -0.000072  0.000031 -0.000009  0.000029 -0.000005 -0.000018  0.000003  0.000016 -0.000003
                                -0.000011  0.000002  0.000007 -0.000001 -0.000004  0.000001  0.000003 -0.000000 -0.000001  0.000000
                                 0.000000 -0.000000

   2.6   2    -6.0986 -104.4655 -0.000053 -0.000649 -0.004066 -0.018681 -0.069860 -0.163440 -0.236614 -0.249329  0.897211  0.390910
                                 0.089945  0.006935  0.100347  0.559549 -0.658632  0.059493 -0.003728 -0.005621  0.004874 -0.003253
                                 0.001888 -0.000694  0.000297 -0.000085  0.000060 -0.000007  0.000092 -0.000013  0.000251 -0.000078
                                 0.000220 -0.000046  0.000008  0.000026  0.000003  0.000001 -0.000003  0.000003  0.000001 -0.000001
                                -0.000000  0.000000

   3.6   0    -0.5322  -31.9922  0.000013  0.000165  0.001035  0.004765  0.017847  0.041892  0.058238  0.043030 -0.224827 -0.123466
                                -0.010753  0.403438 -0.022598 -0.121749  0.130436  0.075008  0.296632  0.296542  0.117841  0.051718
                                -0.008899  0.003549 -0.001482  0.000423 -0.000027  0.000033  0.000089 -0.000097 -0.000220  0.000360
                                 0.000997 -0.000688  0.000816  0.002267  0.000903  0.002701 -0.000048  0.004901 -0.001468  0.002666
                                 0.000276 -0.000214

   4.6   0    -0.1983  -12.3261 -0.000005 -0.000066 -0.000416 -0.001919 -0.007181 -0.016894 -0.022966 -0.012975  0.082616  0.053171
                                 0.011891 -0.180522  0.008015  0.041212 -0.040678 -0.039584 -0.138791 -0.161887  0.152051  0.316309
                                 0.497522  0.203914 -0.017446  0.005527  0.000005  0.000002 -0.000024 -0.000004  0.000042  0.000002
                                -0.000369  0.000029 -0.000483 -0.000162 -0.000773 -0.001329  0.002576  0.000534 -0.011234  0.022229
                                -0.003962  0.012998

                                   1 3d1-    1 3d1-    1 3d1-    1 3d1-    1 3d1-    1 3d1-    1 3d1-    1 3d1-    1 3d1-    1 3d1- 
                                   1 3d1-    1 3d1-    1 3d1-    1 3d1-    1 3d1-    1 3d1-    1 3d1-    1 3d1-    1 3d1-    1 3d1- 
                                   1 3d1-    1 3d1-    1 3d1-    1 3d1-    1 5g1-    1 5g3-    1 5g1-    1 5g3-    1 5g1-    1 5g3- 
                                   1 5g1-    1 5g3-    1 5g1-    1 5g3-    1 5g1-    1 5g3-    1 5g1-    1 5g3-    1 5g1-    1 5g3- 
                                   1 5g1-    1 5g3- 

   1.7   2   -44.2844 -259.5427  0.000109  0.001353  0.008391  0.038354  0.140330  0.327368  0.480817  0.431494 -0.091139  0.011120
                                 0.006744  0.000775 -0.090921 -0.263448  0.235395 -0.009394 -0.002471 -0.000641  0.000538 -0.000349
                                 0.000199 -0.000072  0.000031 -0.000009  0.000029  0.000005 -0.000018 -0.000003  0.000016  0.000003
                                -0.000011 -0.000002  0.000007  0.000001 -0.000004 -0.000001  0.000003  0.000000 -0.000001 -0.000000
                                 0.000000  0.000000

   2.7   2    -6.0986 -104.4655 -0.000053 -0.000649 -0.004066 -0.018681 -0.069860 -0.163440 -0.236614 -0.249329  0.897211  0.390910
                                 0.089945  0.006935  0.100347  0.559549 -0.658632  0.059493 -0.003728 -0.005621  0.004874 -0.003253
                                 0.001888 -0.000694  0.000297 -0.000085  0.000060  0.000007  0.000092  0.000013  0.000251  0.000078
                                 0.000220  0.000046  0.000008 -0.000026  0.000003 -0.000001 -0.000003 -0.000003  0.000001  0.000001
                                -0.000000 -0.000000

   3.7   0    -0.5322  -31.9922  0.000013  0.000165  0.001035  0.004765  0.017847  0.041892  0.058238  0.043030 -0.224827 -0.123466
                                -0.010753  0.403438 -0.022598 -0.121749  0.130436  0.075008  0.296632  0.296542  0.117841  0.051718
                                -0.008899  0.003549 -0.001482  0.000423 -0.000027 -0.000033  0.000089  0.000097 -0.000220 -0.000360
                                 0.000997  0.000688  0.000816 -0.002267  0.000903 -0.002701 -0.000048 -0.004901 -0.001468 -0.002666
                                 0.000276  0.000214

   4.7   0    -0.1983  -12.3261 -0.000005 -0.000066 -0.000416 -0.001919 -0.007181 -0.016894 -0.022966 -0.012975  0.082616  0.053171
                                 0.011891 -0.180522  0.008015  0.041212 -0.040678 -0.039584 -0.138791 -0.161887  0.152051  0.316309
                                 0.497522  0.203914 -0.017446  0.005527  0.000005 -0.000002 -0.000024  0.000004  0.000042 -0.000002
                                -0.000369 -0.000029 -0.000483  0.000162 -0.000773  0.001329  0.002576 -0.000534 -0.011234 -0.022229
                                -0.003962 -0.012998

                                   1 4f2-    1 4f2-    1 4f2-    1 4f2-    1 4f2-    1 4f2-    1 4f2-    1 4f2-    1 4f2-    1 4f2- 
                                   1 4f2-    1 4f2-    1 4f2-    1 4f2-    1 6h4-    1 6h2-    1 6h4-    1 6h2-    1 6h4-    1 6h2- 


   1.8   +    -1.0067  -79.4105  0.000984  0.015319  0.096063  0.264626  0.393692  0.388802  0.215422  0.018484  0.017894 -0.012580
                                 0.045629 -0.029497  0.016359 -0.005628  0.000000  0.000026  0.000000  0.000186  0.000000  0.000490

   2.8   0    -0.1418  -10.0166 -0.000060 -0.000919 -0.005858 -0.015366 -0.018724 -0.015452  0.003946 -0.002948 -0.006266  0.046563
                                 0.152716  0.308743  0.449329  0.259077  0.000000  0.000000 -0.000000 -0.000017  0.000000  0.000032

   3.8   0    -0.0842   -7.3020  0.000059  0.000906  0.005714  0.015496  0.021369  0.017196 -0.011701  0.001603  0.002684 -0.031492
                                -0.222406 -0.163957 -0.701523  1.301081 -0.000000 -0.000000  0.000000  0.000017 -0.000000 -0.000036

 HOMO     10.1    -0.631427 =     -17.1820eV
 LUMO     11.1    -0.537035 =     -14.6135eV
 LUMO-HOMO         0.094392 =       2.5685eV


 **********************************************************************************************************************************
 DATASETS  * FILE   NREC   LENGTH (MB)   RECORD NAMES
              1      23       22.40       500      610      700      900      950      970     1000      129      960     1700   
                                          VAR    BASINP    GEOM    SYMINP    ZMAT    AOBASIS   BASIS     P2S    ABASIS    OPER   
                                         1101     1401     1411     1412     1650     1100     1400     1410     1200     1210   
                                          SR      EKINR    POTR     PVPR    MOLCAS      S      EKIN      POT      H0       H01  
                                         1080     1600     1800   
                                         AOSYM     SMH     GRID   

              2       6        6.41       200      700     1000      520     1800     3202   
                                        OPTIONS   GEOM     BASIS   MCVARS    GRID      RKS  

 PROGRAMS   *        TOTAL       RKS       INT
 CPU TIMES  *       337.55      6.03    331.29
 REAL TIME  *       350.90 SEC
 DISK USED  *        11.26 GB      
 SF USED    *         0.14 MB      
 GA USED    *         0.09 MB       (max)       0.09 MB       (current)
 **********************************************************************************************************************************


 PROGRAM * RHF-SCF (OPEN SHELL)       Authors: W. Meyer, H.-J. Werner


 NUMBER OF ELECTRONS:      35+   27-    SPACE SYMMETRY=8    SPIN SYMMETRY: Nonet   
 CONVERGENCE THRESHOLDS:    1.00E-05 (Density)    1.24E-07 (Energy)
 MAX. NUMBER OF ITERATIONS:       60
 INTERPOLATION TYPE:            DIIS
 INTERPOLATION STEPS:              2 (START)      1 (STEP)
 LEVEL SHIFTS:                 -0.60 (CLOSED) -0.30 (OPEN) 

 Number of closed-shell orbitals:   27 (   9   4   4   2   4   2   2   0 )
 Number of open-shell orbitals:      8 (   1   2   2   0   2   0   0   1 )


 
 Extra symmetries of mos in symmetry 1:   1   1   1   3   2   1   3   2   1   3   2
 Extra symmetries of mos in symmetry 2:   1   1   1   1   3   2
 Extra symmetries of mos in symmetry 3:   1   1   1   1   3   2
 Extra symmetries of mos in symmetry 5:   1   1   1   1   3   2
 Molecular orbitals read from record     3202.2  Type=RKS/CANONICAL (state 1.8)

 Molecular orbital dump at record        4202.2

 ITERATION    DDIFF          GRAD             ENERGY        2-EL.EN.            DIPOLE MOMENTS         DIIS   ORB.
    1      0.000D+00      0.000D+00    -11266.71974790   8212.483116    0.00000    0.00000    0.00000    0    start
    2      0.000D+00      0.108D+00    -11266.75047271   8218.044336    0.00000    0.00000    0.00000    1    diag,B
    3      0.132D-01      0.138D-02    -11266.75193747   8214.396849    0.00000    0.00000    0.00000    2    diag,B
    4      0.129D-02      0.498D-03    -11266.75218019   8216.579508    0.00000    0.00000    0.00000    3    diag,B
    5      0.201D-03      0.323D-03    -11266.75224667   8215.951159    0.00000    0.00000    0.00000    4    diag,B
    6      0.179D-03      0.678D-04    -11266.75225360   8215.797762    0.00000    0.00000    0.00000    5    diag,B
    7      0.116D-03      0.858D-05    -11266.75225371   8215.819009    0.00000    0.00000    0.00000    6    diag,B
    8      0.152D-04      0.202D-05    -11266.75225374   8215.819073    0.00000    0.00000    0.00000    7    orth
    9      0.542D-05      0.433D-06    -11266.75225374   8215.819866    0.00000    0.00000    0.00000    0    orth

 Final alpha occupancy:  10   6   6   2   6   2   2   1
 Final beta  occupancy:   9   4   4   2   4   2   2   0

 !RHF STATE 1.8 Energy               -11266.7522537367    
 Nuclear energy                         0.00000000
 One-electron energy               -15374.66218686
 Two-electron energy                 4107.90993313
 Virial quotient                       -0.78351086
 !RHF STATE 1.8 Dipole moment           0.00000000     0.00000000     0.00000000
 Dipole moment /Debye                   0.00000000     0.00000000     0.00000000

 ELECTRON ORBITALS
 =================


   Orb  Occ    Energy  Couls-En    Coefficients

                                   1 1s      1 1s      1 1s      1 1s      1 1s      1 1s      1 1s      1 1s      1 1s      1 1s   
                                   1 1s      1 1s      1 1s      1 1s      1 1s      1 1s      1 1s      1 1s      1 1s      1 1s   
                                   1 1s      1 1s      1 1s      1 1s      1 1s      1 1s      1 1s      1 1s      1 1s      1 1s   
                                   1 1s      1 1s      1 1s      1 1s      1 1s      1 1s      1 1s      1 1s      1 3d0     1 3d2+ 
                                   1 3d0     1 3d2+    1 3d0     1 3d2+    1 3d0     1 3d2+    1 3d0     1 3d2+    1 3d0     1 3d2+ 
                                   1 3d0     1 3d2+    1 3d0     1 3d2+    1 3d0     1 3d2+    1 3d0     1 3d2+    1 3d0     1 3d2+ 
                                   1 3d0     1 3d2+    1 3d0     1 3d2+    1 3d0     1 3d2+    1 3d0     1 3d2+    1 3d0     1 3d2+ 
                                   1 3d0     1 3d2+    1 3d0     1 3d2+    1 3d0     1 3d2+    1 3d0     1 3d2+    1 3d0     1 3d2+ 
                                   1 3d0     1 3d2+    1 3d0     1 3d2+    1 3d0     1 3d2+    1 5g0     1 5g4+    1 5g2+    1 5g0  
                                   1 5g4+    1 5g2+    1 5g0     1 5g4+    1 5g2+    1 5g0     1 5g4+    1 5g2+    1 5g0     1 5g4+ 
                                   1 5g2+    1 5g0     1 5g4+    1 5g2+    1 5g0     1 5g4+    1 5g2+    1 5g0     1 5g4+    1 5g2+ 
                                   1 5g0     1 5g4+    1 5g2+ 

   1.1   2 -1856.2101-4029.7503  0.000378  0.000162  0.001374  0.003951  0.007271  0.013555  0.025766  0.050323  0.101575  0.199605
                                 0.335903  0.343651  0.145950  0.063933 -0.008681  0.007230 -0.028319 -0.031898 -0.019193  0.016149
                                 0.018539 -0.002216 -0.005978 -0.003849 -0.001466  0.015513  0.014989 -0.037653 -0.081849  0.031790
                                 0.035618 -0.026384  0.003066  0.006979  0.002200  0.000066 -0.000023  0.000005  0.000000 -0.000000
                                 0.000000  0.000000  0.000000  0.000000  0.000000  0.000000 -0.000000 -0.000000  0.000000  0.000000
                                -0.000000 -0.000000 -0.000000 -0.000000  0.000000  0.000000 -0.000000 -0.000000 -0.000000 -0.000000
                                -0.000000 -0.000000  0.000000  0.000000  0.000000  0.000000 -0.000000 -0.000000  0.000000  0.000000
                                 0.000000  0.000000  0.000000  0.000000 -0.000000 -0.000000  0.000000  0.000000 -0.000000 -0.000000
                                 0.000000  0.000000 -0.000000 -0.000000  0.000000  0.000000  0.000000  0.000000  0.000000 -0.000000
                                -0.000000 -0.000000  0.000000  0.000000  0.000000 -0.000000 -0.000000 -0.000000  0.000000  0.000000
                                 0.000000 -0.000000 -0.000000 -0.000000  0.000000  0.000000  0.000000 -0.000000 -0.000000 -0.000000
                                 0.000000  0.000000  0.000000

   2.1   2  -311.3113 -859.8825 -0.000137 -0.000059 -0.000499 -0.001440 -0.002668 -0.005007 -0.009688 -0.019227 -0.040878 -0.080326
                                -0.146001 -0.154086  0.138578  0.601913  0.419792  0.033231  0.013468  0.048992  0.035242 -0.031602
                                -0.037665  0.004628  0.012675  0.008190  0.003128 -0.016683 -0.050924 -0.078978  0.001378 -0.027858
                                -0.059755  0.053174 -0.006473 -0.014828 -0.004691 -0.000141  0.000049 -0.000011  0.000000  0.000000
[...]
                                   1 5g1-    1 5g3-    1 5g1-    1 5g3-    1 5g1-    1 5g3-    1 5g1-    1 5g3-    1 5g1-    1 5g3- 
                                   1 5g1-    1 5g3- 

   1.7  2.00000   -45.954348     0.000109  0.001342  0.008440  0.038128  0.140312  0.328165  0.474732  0.405221 -0.074353  0.009971
                                 0.005533  0.000637 -0.076497 -0.233466  0.205999 -0.007697 -0.001980 -0.000509  0.000436 -0.000280
                                 0.000160 -0.000058  0.000025 -0.000007  0.000000  0.000000  0.000000  0.000000  0.000000  0.000000
                                 0.000000  0.000000  0.000000  0.000000  0.000000  0.000000  0.000000  0.000000  0.000000  0.000000
                                 0.000000  0.000000

   2.7  2.00000    -6.688247    -0.000052 -0.000635 -0.004051 -0.018323 -0.069276 -0.160762 -0.237220 -0.244295  0.895065  0.396897
                                 0.091348  0.008307  0.098447  0.551414 -0.654371  0.053268 -0.002805 -0.006129  0.005397 -0.003571
                                 0.002069 -0.000757  0.000324 -0.000093  0.000000  0.000000  0.000000  0.000000  0.000000  0.000000
                                 0.000000  0.000000  0.000000  0.000000  0.000000  0.000000  0.000000  0.000000  0.000000  0.000000
                                 0.000000  0.000000

   3.7  0.20000    -0.361726     0.000013  0.000164  0.001045  0.004736  0.017936  0.041729  0.059680  0.045803 -0.235048 -0.128969
                                -0.005779  0.420821 -0.023546 -0.127835  0.142430  0.076348  0.293837  0.299058  0.100208  0.036663
                                -0.008518  0.002847 -0.001170  0.000329  0.000000  0.000000  0.000000  0.000000  0.000000  0.000000
                                 0.000000  0.000000  0.000000  0.000000  0.000000  0.000000  0.000000  0.000000  0.000000  0.000000
                                 0.000000  0.000000

                                   1 4f2-    1 4f2-    1 4f2-    1 4f2-    1 4f2-    1 4f2-    1 4f2-    1 4f2-    1 4f2-    1 4f2- 
                                   1 4f2-    1 4f2-    1 4f2-    1 4f2-    1 6h4-    1 6h2-    1 6h4-    1 6h2-    1 6h4-    1 6h2- 


   1.8  1.00000    -0.631841     0.000970  0.015318  0.095159  0.264897  0.393039  0.384782  0.199532  0.021197  0.030413 -0.017523
                                 0.038984 -0.025827  0.014072 -0.004777  0.000000  0.000000  0.000000  0.000000  0.000000  0.000000

 Total charge:   2.000000000000
 
 *** IN SYMMETRY 1 ORBITAL  4 SYMMETRY CONTAMINATION OF 0.309D-04 HAS BEEN REMOVED
 *** IN SYMMETRY 1 ORBITAL  5 SYMMETRY CONTAMINATION OF 0.309D-04 HAS BEEN REMOVED
 *** IN SYMMETRY 1 ORBITAL  7 SYMMETRY CONTAMINATION OF 0.143D-02 HAS BEEN REMOVED
 *** IN SYMMETRY 1 ORBITAL  8 SYMMETRY CONTAMINATION OF 0.143D-02 HAS BEEN REMOVED

 EXTRA SYMMETRY OF MOS IN SYMMETRY 1:   1 1 1 3 2 1 3 2 1 3   2 1 1 2 3 1 3 2 1 2   3 1 4 6 5 2 3 1 3 2   1 5 4 6 2 3 1 4 5 6
                                        1 2 3 5 6 4 1 3 2 5   6 4 1 3 2 5 6 4 1 3   2 4 5 6 1 3 2 5 6 4   1 3 2 5 6 4 1 3 2 1
                                        3 2 3 2 1 3 2 3 2 1   1 3 2 1 3 2 1 1 3 2   1 1 1 3 2 1 1 1 1 1   1 1 1
 EXTRA SYMMETRY OF MOS IN SYMMETRY 2:   1 1 1 1 2 3 1 1 2 3   1 2 3 1 1 1 3 2 1 2   3 1 2 3 1 3 2 1 4 6   5 3 2 1 1 3 2 5 6 4
                                        1 3 2 6 5 4 1 3 2 1   3 2 1 1 3 2 1 1 2 3   1 1 1 1 1 1 1 1 1 1   1 1 1 1
 EXTRA SYMMETRY OF MOS IN SYMMETRY 3:   1 1 1 1 2 3 1 1 2 3   1 2 3 1 1 1 2 3 1 2   3 1 2 3 1 2 3 1 4 5   6 3 2 1 1 2 3 5 6 4
                                        1 2 3 6 4 5 1 2 3 1   2 3 1 1 2 3 1 1 2 3   1 1 1 1 1 1 1 1 1 1   1 1 1 1
 EXTRA SYMMETRY OF MOS IN SYMMETRY 4:   1 1 1 1 1 1 3 2 1 1   2 3 1 3 2 1 2 3 1 2   3 1 2 3 1 2 3 1 2 3   1 2 3 1 1 1 1 1 1 1
                                        1 1
 EXTRA SYMMETRY OF MOS IN SYMMETRY 5:   1 1 1 1 2 3 1 1 3 2   1 2 3 1 1 1 3 2 1 2   3 1 2 3 1 3 2 1 4 5   6 3 2 1 1 2 3 4 5 6
                                        1 2 3 5 4 6 1 2 3 1   2 3 1 1 2 3 1 1 3 2   1 1 1 1 1 1 1 1 1 1   1 1 1 1
 EXTRA SYMMETRY OF MOS IN SYMMETRY 6:   1 1 1 1 1 1 3 2 1 1   3 2 1 2 3 1 3 2 1 3   2 1 3 2 1 3 2 1 3 2   1 3 2 1 1 1 1 1 1 1
                                        1 1
 EXTRA SYMMETRY OF MOS IN SYMMETRY 7:   1 1 1 1 1 1 3 2 1 1   2 3 1 2 3 1 3 2 1 3   2 1 3 2 1 3 2 1 3 2   1 2 3 1 1 1 1 1 1 1
                                        1 1
 EXTRA SYMMETRY OF MOS IN SYMMETRY 8:   1 1 1 1 1 1 1 2 3 1   1 3 2 1 2 3 1 1 1 1

 Natural orbital dump (state averaged) at molpro section  5202.2    (Orbital set 2)


 CI vector for state symmetry 1
 ==============================

 0/ // // 0 // 0 0 /      0.0599595   0.9982008
 /0 // // 0 // 0 0 /      0.9982008  -0.0599595

 CI vector for state symmetry 2
 ==============================

 00 // // / // 0 0 /      1.0000000

 CI vector for state symmetry 3
 ==============================

 00 // // 0 // / 0 /      1.0000000

 CI vector for state symmetry 4
 ==============================

 00 // // 0 // 0 / /      1.0000000


 **********************************************************************************************************************************
 DATASETS  * FILE   NREC   LENGTH (MB)   RECORD NAMES
              1      24      301.30       500      610      700      900      950      970     1000      129      960     1700   
                                          VAR    BASINP    GEOM    SYMINP    ZMAT    AOBASIS   BASIS     P2S    ABASIS    OPER   
                                         1101     1401     1411     1412     1650     1100     1400     1410     1200     1210   
                                          SR      EKINR    POTR     PVPR    MOLCAS      S      EKIN      POT      H0       H01  
                                         1080     1600     1800     1380   
                                         AOSYM     SMH     GRID     JKOP   

              2       8       14.08       200      700     1000      520     1800     3202     4202     5202   
                                        OPTIONS   GEOM     BASIS   MCVARS    GRID      RKS      RHF     MCSCF   

 PROGRAMS   *        TOTAL     MULTI       POP       RHF       RKS       INT
 CPU TIMES  *       366.81     25.12      0.00      4.13      6.03    331.29
 REAL TIME  *       399.20 SEC
 DISK USED  *        11.28 GB      
 SF USED    *         1.08 GB      
 GA USED    *         0.09 MB       (max)       0.09 MB       (current)
 **********************************************************************************************************************************


 PROGRAM * RHF-SCF (OPEN SHELL)       Authors: W. Meyer, H.-J. Werner


 NUMBER OF ELECTRONS:      35+   27-    SPACE SYMMETRY=8    SPIN SYMMETRY: Nonet   
 CONVERGENCE THRESHOLDS:    1.00E-05 (Density)    1.24E-07 (Energy)
 MAX. NUMBER OF ITERATIONS:        0
 INTERPOLATION TYPE:            DIIS
 INTERPOLATION STEPS:              2 (START)      1 (STEP)
 LEVEL SHIFTS:                 -0.60 (CLOSED) -0.30 (OPEN) 

 Number of closed-shell orbitals:   27 (   9   4   4   2   4   2   2   0 )
 Number of open-shell orbitals:      8 (   1   2   2   0   2   0   0   1 )


 Molecular orbitals read from record     5202.2  Type=MCSCF/NATURAL  

 Molecular orbital dump at record        2120.2

 ITERATION    DDIFF          GRAD             ENERGY        2-EL.EN.            DIPOLE MOMENTS         DIIS   ORB.
    1      0.000D+00      0.000D+00    -11266.75037528   8215.789459    0.00000    0.00000    0.00000    0    start

 Final alpha occupancy:  10   6   6   2   6   2   2   1
 Final beta  occupancy:   9   4   4   2   4   2   2   0

 !RHF STATE 1.8 Energy               -11266.7503752769    
 Nuclear energy                         0.00000000
 One-electron energy               -15374.64510490
 Two-electron energy                 4107.89472962
 Virial quotient                       -0.78351083
 !RHF STATE 1.8 Dipole moment           0.00000000     0.00000000     0.00000000
 Dipole moment /Debye                   0.00000000     0.00000000     0.00000000

 Orbital energies:

         1.1          2.1          3.1          4.1          5.1          6.1          7.1          8.1          9.1         10.1
  -1856.210410  -311.311545   -71.252336   -45.954348   -45.954348   -15.592984    -6.688247    -6.688247    -2.719222    -0.361726

        11.1         12.1
     -0.361726    -0.402649

         1.2          2.2          3.2          4.2          5.2          6.2          7.2          8.2
   -277.265210   -60.447647   -11.925829    -1.730220    -0.631841    -0.631841    -0.288826    -0.147999

         1.3          2.3          3.3          4.3          5.3          6.3          7.3          8.3
   -277.265210   -60.447647   -11.925829    -1.730220    -0.631841    -0.631841    -0.288826    -0.147999

         1.4          2.4          3.4          4.4
    -45.954348    -6.688247    -0.361726    -0.167944

         1.5          2.5          3.5          4.5          5.5          6.5          7.5          8.5
   -277.265210   -60.447647   -11.925829    -1.730220    -0.631841    -0.631841    -0.288826    -0.147999

         1.6          2.6          3.6          4.6
    -45.954348    -6.688247    -0.361726    -0.167944

         1.7          2.7          3.7          4.7
    -45.954348    -6.688247    -0.361726    -0.167944

         1.8          2.8          3.8
     -0.631841    -0.125563    -0.070146

 HOMO     10.1    -0.361726 =      -9.8431eV
 LUMO     11.1    -0.361726 =      -9.8431eV
 LUMO-HOMO         0.000000 =       0.0000eV


 **********************************************************************************************************************************
 DATASETS  * FILE   NREC   LENGTH (MB)   RECORD NAMES
              1      24      301.30       500      610      700      900      950      970     1000      129      960     1700   
                                          VAR    BASINP    GEOM    SYMINP    ZMAT    AOBASIS   BASIS     P2S    ABASIS    OPER   
                                         1101     1401     1411     1412     1650     1100     1400     1410     1200     1210   
                                          SR      EKINR    POTR     PVPR    MOLCAS      S      EKIN      POT      H0       H01  
                                         1080     1600     1800     1380   
                                         AOSYM     SMH     GRID     JKOP   

              2       9       18.43       200      700     1000      520     1800     3202     4202     5202     2120   
                                        OPTIONS   GEOM     BASIS   MCVARS    GRID      RKS      RHF     MCSCF     RHF  

 PROGRAMS   *        TOTAL       RHF     MULTI       POP       RHF       RKS       INT
 CPU TIMES  *       367.25      0.44     25.12      0.00      4.13      6.03    331.29
 REAL TIME  *       399.81 SEC
 DISK USED  *        11.28 GB      
 SF USED    *         1.08 GB      
 GA USED    *         0.09 MB       (max)       0.09 MB       (current)
 **********************************************************************************************************************************
 SETTING SCF(7)         =    -11266.75037528  AU                              
 SETTING _CC_NORM_MAX   =         2.00000000                                  


 PROGRAM * CCSD (Restricted open-shell coupled cluster)     Authors: C. Hampel, H.-J. Werner, 1991, M. Deegan, P.J. Knowles, 1992


 Convergence thresholds:  THRVAR = 1.00D-08  THRDEN = 1.24D-06

 CCSD(T)     terms to be evaluated (factor= 1.000)


 Number of closed-shell orbitals:  27 (   9   4   4   2   4   2   2   0 )
 Number of active  orbitals:        8 (   1   2   2   0   2   0   0   1 )
 Number of external orbitals:     446 ( 103  68  68  40  68  40  40  19 )

 Memory could be reduced to 631.41 Mwords without degradation in triples

 Number of N-1 electron functions:              62
 Number of N-2 electron functions:            1891
 Number of singly external CSFs:              4576
 Number of doubly external CSFs:          37474474
 Total number of CSFs:                    37479050

 Molecular orbitals read from record     2120.2  Type=RHF/CANONICAL (state 1.8)

 Integral transformation finished. Total CPU:  15.35 sec, npass=  1  Memory used: 147.65 MW

 Starting RMP2 calculation

 Wavefunction is spin-projected

 ITER.      SQ.NORM     CORR.ENERGY   TOTAL ENERGY   ENERGY CHANGE        DEN1      VAR(S)    VAR(P)  DIIS     TIME
   1      1.14916377    -3.31832303-11270.06869831    -3.31832303    -0.00428883  0.51D-04  0.80D-03  1  1    19.04
   2      1.15125731    -3.32293328-11270.07330856    -0.00461025    -0.00002483  0.17D-05  0.60D-05  2  2    22.17
   3      1.15143225    -3.32315491-11270.07353018    -0.00022162    -0.00000024  0.44D-07  0.43D-07  3  3    25.59
   4      1.15143959    -3.32315809-11270.07353337    -0.00000319    -0.00000000  0.82D-09  0.28D-09  4  4    29.29
   5      1.15143978    -3.32315820-11270.07353348    -0.00000010    -0.00000000  0.83D-11  0.24D-11  5  5    33.98

 Norm of t1 vector:      0.04546400      S-energy:    -0.00652225      T1 diagnostic:  0.00236609
 Norm of t2 vector:      0.38648778      P-energy:    -3.31663595
                                         Alpha-Beta:  -2.08693808
                                         Alpha-Alpha: -0.75900096
                                         Beta-Beta:   -0.47069691

 Spin contamination <S**2-Sz**2-Sz>     0.00000000
  Reference energy                   -11266.7503752769    
  RHF-RMP2 correlation energy          -3.323158198323
 !RHF-RMP2 energy                    -11270.0735334752    
 (NB above energy spin projected)

 Starting RCCSD calculation

 ITER.      SQ.NORM     CORR.ENERGY   TOTAL ENERGY   ENERGY CHANGE        DEN1      VAR(S)    VAR(P)  DIIS     TIME
   1      1.11857848    -3.06383990-11269.81421517    -3.06383990    -0.05437139  0.18D-02  0.35D-02  0  0    98.55
   2      1.12846790    -3.11450597-11269.86488125    -0.05066608    -0.00282845  0.76D-04  0.30D-03  1  1   158.37
   3      1.12911604    -3.10895857-11269.85933385     0.00554740    -0.00024184  0.55D-04  0.27D-04  2  2   219.99
   4      1.13060066    -3.11057036-11269.86094563    -0.00161179    -0.00002137  0.50D-05  0.23D-05  3  3   283.08
   5      1.13104811    -3.11090257-11269.86127784    -0.00033221    -0.00000287  0.98D-06  0.25D-06  4  4   348.18
   6      1.13113676    -3.11089640-11269.86127167     0.00000617    -0.00000030  0.12D-06  0.18D-07  5  5   413.60
   7      1.13115572    -3.11089813-11269.86127340    -0.00000173    -0.00000004  0.17D-07  0.29D-08  6  6   483.46
   8      1.13116079    -3.11090176-11269.86127703    -0.00000363    -0.00000000  0.14D-08  0.37D-09  7  7   559.75
   9      1.13116122    -3.11090140-11269.86127667     0.00000036    -0.00000000  0.95D-10  0.36D-10  8  8   625.53

 Norm of t1 vector:      0.07892158      S-energy:    -0.00741549      T1 diagnostic:  0.00580192
                                                                       D1 diagnostic:  0.01671033
 Norm of t2 vector:      0.35345807      P-energy:    -3.10348591
                                         Alpha-Beta:  -2.00226922
                                         Alpha-Alpha: -0.67035441
                                         Beta-Beta:   -0.43086228

 Spin contamination <S**2-Sz**2-Sz>     0.00000000

 Memory could be reduced to 703.68 Mwords without degradation in triples
 

  Correlated core orbitals:             1.1       2.1       3.1       4.1       5.1       6.1       7.1       8.1       1.2       2.2
                                        3.2       1.3       2.3       3.3       1.4       2.4       1.5       2.5       3.5       1.6
                                        2.6       1.7       2.7
  Orbital energies:                 -1856.2104 -311.3163  -71.3363  -46.0619  -46.0595  -15.8162   -7.0177   -7.0153 -277.2695  -60.5411
                                      -12.1705 -277.2695  -60.5411  -12.1705  -46.0549   -7.0027 -277.2692  -60.5454  -12.1794  -46.0584
                                       -7.0121  -46.0584   -7.0121
 
  RCCSD core-core energy               -1.844361145747
  RCCSD core-valence energy            -0.727293913939
  RCCSD valence correlation energy     -0.539246335365
 

 RESULTS
 =======

  Reference energy                   -11266.7503752769    
  RCCSD singles energy                 -0.007415486643
  RCCSD pair energy                    -3.103485908407
  RCCSD correlation energy             -3.110901395050
  Triples (T) contribution             -0.042814467143
  Total correlation energy             -3.153715862193
 
  RHF-RCCSD energy                   -11269.8612766719    
  RHF-RCCSD[T] energy                -11269.9052707156    
  RHF-RCCSD-T energy                 -11269.9039287140    
 !RHF-RCCSD(T) energy                -11269.9040911391    

 Program statistics:

 Available memory in ccsd:              1999989750
 Min. memory needed in ccsd:             103273559
 Max. memory used in ccsd:               152147944
 Max. memory used in cckext:             117161597 ( 9 integral passes)
 Max. memory used in cckint:             147652463 ( 1 integral passes)



 **********************************************************************************************************************************
 DATASETS  * FILE   NREC   LENGTH (MB)   RECORD NAMES
              1      24      301.30       500      610      700      900      950      970     1000      129      960     1700   
                                          VAR    BASINP    GEOM    SYMINP    ZMAT    AOBASIS   BASIS     P2S    ABASIS    OPER   
                                         1101     1401     1411     1412     1650     1100     1400     1410     1200     1210   
                                          SR      EKINR    POTR     PVPR    MOLCAS      S      EKIN      POT      H0       H01  
                                         1080     1600     1800     1380   
                                         AOSYM     SMH     GRID     JKOP   

              2       9       18.43       200      700     1000      520     1800     3202     4202     5202     2120   
                                        OPTIONS   GEOM     BASIS   MCVARS    GRID      RKS      RHF     MCSCF     RHF  

 PROGRAMS   *        TOTAL  RCCSD(T)       RHF     MULTI       POP       RHF       RKS       INT
 CPU TIMES  *      4979.84   4612.59      0.44     25.12      0.00      4.13      6.03    331.29
 REAL TIME  *      5495.91 SEC
 DISK USED  *        44.67 GB      
 SF USED    *        14.21 GB      
 GA USED    *         0.09 MB       (max)       0.09 MB       (current)
 **********************************************************************************************************************************
 SETTING CCSD(7)        =    -11269.90409114  AU                              
 Output type csv         
                                                                                                                                                                                                                                                                

          SCF,CCSD
        0.00000,        0.00000
        0.00000,        0.00000
        0.00000,        0.00000
        0.00000,        0.00000
        0.00000,        0.00000
        0.00000,        0.00000
   -11266.75038,   -11269.90409
                                                  

 RCCSD(T)/USERDEF energy= -11269.904091139066

        RCCSD(T)        RHF-SCF         MULTI           RHF-SCF         RKS-SCF 
 -11269.90409114 -11266.75037528 -11266.75037528 -11266.75225374 -11270.47486631
 **********************************************************************************************************************************
 Molpro calculation terminated
 Variable memory released
