<?xml version="1.0"?>
<molpro xmlns="http://www.molpro.net/schema/molpro-output"
  xmlns:xsd="http://www.w3.org/1999/XMLSchema"
  xmlns:cml="http://www.xml-cml.org/schema"
  xmlns:stm="http://www.xml-cml.org/schema"
  xmlns:xhtml="http://www.w3.org/1999/xhtml">
 <!--

 Nodes     nprocs
 nid01370    11
 Number of processes for MPI-2 version of Molpro:   nprocs(total)=   12   nprocs(compute)=   11   nprocs(helper)=    1

 Using customized tuning parameters: mindgm=7; mindgv=16; mindgc=1; mindgr=1; noblas=0; minvec=7
 default implementation of scratch files=sf

 --><job>
  <!--

 Variables initialized (889), CPU time= 0.02 sec
 Commands  initialized (702), CPU time= 0.01 sec, 572 directives.
 Default parameters read. Elapsed time= 0.12 sec

 Checking input...
 Passed
1


                                         ***  PROGRAM SYSTEM MOLPRO  ***
                                       Copyright, TTI GmbH Stuttgart, 2015
                                    Version 2015.1 linked Dec 29 2018 15:55:43


 **********************************************************************************************************************************
 LABEL *   Calculation for Y atom, singlet and triplet
  64 bit mpp version                                                                     DATE: 07-May-23          TIME: 11:01:28
 **********************************************************************************************************************************

 SHA1:             19cd028119e0e09f93f0674bd8af7968d9b3eff6
 **********************************************************************************************************************************
  -->
  <!--

 THRESHOLDS:

 ZERO    =  1.00D-12  ONEINT  =  1.00D-12  TWOINT  =  1.00D-15  PREFAC  =  1.00D-14  LOCALI  =  1.00D-09  EORDER  =  1.00D-04
 ENERGY  =  0.00D+00  ETEST   =  0.00D+00  EDENS   =  0.00D+00  THRDEDEF=  1.00D-06  GRADIENT=  1.00D-02  STEP    =  1.00D-03
 ORBITAL =  1.00D-05  CIVEC   =  1.00D-05  COEFF   =  1.00D-04  PRINTCI =  5.00D-02  PUNCHCI =  9.90D+01  OPTGRAD =  3.00D-04
 OPTENERG=  1.00D-06  OPTSTEP =  3.00D-04  THRGRAD =  1.00D-10  COMPRESS=  1.00D-11  VARMIN  =  1.00D-07  VARMAX  =  1.00D-03
 THRDOUB =  0.00D+00  THRDIV  =  1.00D-05  THRRED  =  1.00D-07  THRPSP  =  1.00D+00  THRDC   =  1.00D-10  THRCS   =  1.00D-10
 THRNRM  =  1.00D-08  THREQ   =  0.00D+00  THRDE   =  1.00D+00  THRREF  =  1.00D-05  SPARFAC =  1.00D+00  THRDLP  =  1.00D-07
 THRDIA  =  1.00D-10  THRDLS  =  1.00D-07  THRGPS  =  0.00D+00  THRKEX  =  0.00D+00  THRDIS  =  2.00D-01  THRVAR  =  1.00D-10
 THRLOC  =  1.00D-06  THRGAP  =  1.00D-06  THRLOCT = -1.00D+00  THRGAPT = -1.00D+00  THRORB  =  1.00D-06  THRMLTP =  0.00D+00
 THRCPQCI=  1.00D-10  KEXTA   =  0.00D+00  THRCOARS=  0.00D+00  SYMTOL  =  1.00D-06  GRADTOL =  1.00D-06  THROVL  =  1.00D-08
 THRORTH =  1.00D-08  GRID    =  1.00D-06  GRIDMAX =  1.00D-03  DTMAX   =  0.00D+00  THROCCDE=  1.00D-01  THROCCDE=  1.00D-01



 THRESHOLDS:

 ZERO    =  1.00D-12  ONEINT  =  1.00D-12  TWOINT  =  1.00D-15  PREFAC  =  1.00D-14  LOCALI  =  1.00D-09  EORDER  =  1.00D-04
 ENERGY  =  0.00D+00  ETEST   =  0.00D+00  EDENS   =  0.00D+00  THRDEDEF=  1.00D-06  GRADIENT=  1.00D-02  STEP    =  1.00D-03
 ORBITAL =  1.00D-05  CIVEC   =  1.00D-05  COEFF   =  1.00D-04  PRINTCI =  5.00D-02  PUNCHCI =  9.90D+01  OPTGRAD =  3.00D-04
 OPTENERG=  1.00D-06  OPTSTEP =  3.00D-04  THRGRAD =  1.00D-10  COMPRESS=  1.00D-11  VARMIN  =  1.00D-07  VARMAX  =  1.00D-03
 THRDOUB =  0.00D+00  THRDIV  =  1.00D-05  THRRED  =  1.00D-07  THRPSP  =  1.00D+00  THRDC   =  1.00D-10  THRCS   =  1.00D-10
 THRNRM  =  1.00D-08  THREQ   =  0.00D+00  THRDE   =  1.00D+00  THRREF  =  1.00D-05  SPARFAC =  1.00D+00  THRDLP  =  1.00D-07
 THRDIA  =  1.00D-10  THRDLS  =  1.00D-07  THRGPS  =  0.00D+00  THRKEX  =  0.00D+00  THRDIS  =  2.00D-01  THRVAR  =  1.00D-10
 THRLOC  =  1.00D-06  THRGAP  =  1.00D-06  THRLOCT = -1.00D+00  THRGAPT = -1.00D+00  THRORB  =  1.00D-06  THRMLTP =  0.00D+00
 THRCPQCI=  1.00D-10  KEXTA   =  0.00D+00  THRCOARS=  0.00D+00  SYMTOL  =  1.00D-06  GRADTOL =  1.00D-06  THROVL  =  1.00D-15
 THRORTH =  1.00D-08  GRID    =  1.00D-06  GRIDMAX =  1.00D-03  DTMAX   =  0.00D+00  THROCCDE=  1.00D-01  THROCCDE=  1.00D-01



 Variable memory set to 1000000000 words,  buffer space   230000 words

 SETTING BASIS          =    USERDEF
 SETTING LU_CCSD        =       -39.66757337
 SETTING O_CCSD         =       -15.86622096
 SETTING NE             =        17.00000000
 SETTING SYMM           =         1.00000000
 SETTING SS             =         1.00000000
 SETTING A1             =         5.00000000
 SETTING B1             =         2.00000000
 SETTING B2             =         2.00000000
 SETTING A2             =     0.00000000D+00

Geometry recognized as XYZ

  --><jobstep command="RHF-SCF" commandset="SCFPRO">
   <!--


 Recomputing integrals since basis changed


 Using spherical harmonics



 PROGRAM * SEWARD (Integral evaluation for generally contracted gaussian basis sets)     Author: Roland Lindh, 1990

 Geometry written to block  1 of record 700


 Point group  C2v


   --><cml:molecule>
    <cml:symmetry pointGroup="C2v"/>
    <cml:atomArray>
     <cml:atom id="a1" elementType="Lu" x3="0.0" y3="0.0" z3="0.0"/>
     <cml:atom id="a2" elementType="O" x3="0.0" y3="0.0" z3="2.3"/>
    </cml:atomArray>
    <cml:bondArray>
     <cml:bond atomRefs2="a1 a2"/>
    </cml:bondArray>
   </cml:molecule><!--

 ATOMIC COORDINATES

 NR  ATOM    CHARGE       X              Y              Z

   1  LU     11.00    0.000000000    0.000000000    0.000000000
   2  O       6.00    0.000000000    0.000000000    4.346370086

 Bond lengths in Bohr (Angstrom)

 1-2  4.346370086
     ( 2.300000000)

 NUCLEAR CHARGE:                   17
 NUMBER OF PRIMITIVE AOS:         584
 NUMBER OF SYMMETRY AOS:          451
 NUMBER OF CONTRACTIONS:          451   ( 180A1  + 108B1  + 108B2  +  55A2  )
 NUMBER OF CORE ORBITALS:           0   (   0A1  +   0B1  +   0B2  +   0A2  )
 NUMBER OF VALENCE ORBITALS:       14   (   7A1  +   3B1  +   3B2  +   1A2  )


 NUCLEAR REPULSION ENERGY   15.18508518

 EXTRA SYMMETRY OF AOS IN SYMMETRY 1:   1 1 1 1 1 1 1 1 1 1   1 1 1 1 1 1 1 1 1 1   1 1 1 1 1 1 1 1 1 1   1 1 1 1 1 1 1 1 1 1
                                        1 1 1 1 1 1 1 1 1 1   1 1 1 1 1 1 1 1 1 2   1 2 1 2 1 2 1 2 1 2   1 2 1 2 1 2 1 2 1 2
                                        1 2 1 2 1 2 1 2 1 2   1 2 1 2 1 2 1 2 1 2   1 2 1 2 1 2 1 2 1 2   1 2 1 2 1 2 1 2 1 2
                                        1 3 2 1 3 2 1 3 2 1   3 2 1 3 2 1 3 2 2 3   1 2 3 1 2 3 1 1 1 1   1 1 1 1 1 1 1 1 1 1
                                        1 1 1 1 1 1 1 1 1 2   1 2 1 2 1 2 1 2 1 2
 EXTRA SYMMETRY OF AOS IN SYMMETRY 2:   1 1 1 1 1 1 1 1 1 1   1 1 1 1 1 1 1 1 1 1   1 1 1 1 1 1 1 1 1 1   1 1 1 1 1 1 1 1 1 1
                                        1 1 1 1 1 1 2 1 2 1   2 1 2 1 2 1 2 1 2 1   2 1 2 1 2 1 2 1 2 1   2 1 2 1 2 1 2 1 2 1
                                        2 1 2 1 2 3 1 2 3 1   2 3 1 1 1 1 1 1 1 1   1 1 1 1 1 2 1 2
 EXTRA SYMMETRY OF AOS IN SYMMETRY 3:   1 1 1 1 1 1 1 1 1 1   1 1 1 1 1 1 1 1 1 1   1 1 1 1 1 1 1 1 1 1   1 1 1 1 1 1 1 1 1 1
                                        1 1 1 1 1 1 2 1 2 1   2 1 2 1 2 1 2 1 2 1   2 1 2 1 2 1 2 1 2 1   2 1 2 1 2 1 2 1 2 1
                                        2 1 2 1 2 3 1 2 3 1   2 3 1 1 1 1 1 1 1 1   1 1 1 1 1 2 1 2
 EXTRA SYMMETRY OF AOS IN SYMMETRY 4:   1 1 1 1 1 1 1 1 1 1   1 1 1 1 1 1 1 1 1 1   1 1 1 1 1 1 1 1 1 1   1 1 2 1 2 1 2 1 2 1
                                        2 1 2 2 1 2 1 2 1 1   1 1 1 1 1

 Eigenvalues of metric

         1 0.863E-05 0.121E-04 0.369E-04 0.478E-04 0.678E-04 0.747E-04 0.105E-03 0.186E-03
         2 0.122E-04 0.175E-04 0.105E-03 0.490E-03 0.644E-03 0.156E-02 0.220E-02 0.335E-02
         3 0.122E-04 0.175E-04 0.105E-03 0.490E-03 0.644E-03 0.156E-02 0.220E-02 0.335E-02
         4 0.701E-03 0.220E-02 0.838E-02 0.144E-01 0.215E-01 0.328E-01 0.344E-01 0.520E-01


 Contracted 2-electron integrals neglected if value below      1.0D-15
 AO integral compression algorithm  1   Integral accuracy      1.0D-15

     3558.605 MB (compressed) written to integral file ( 32.4%)

     Node minimum: 243.532 MB, node maximum: 406.847 MB


 NUMBER OF SORTED TWO-ELECTRON INTEGRALS:  120332494.     BUFFER LENGTH:  32768
 NUMBER OF SEGMENTS:   4  SEGMENT LENGTH:   31980394      RECORD LENGTH: 524288

 Memory used in sort:      32.54 MW

 SORT1 READ  1374547738. AND WROTE    40325414. INTEGRALS IN    118 RECORDS. CPU TIME:    22.68 SEC, REAL TIME:    33.92 SEC
 SORT2 READ   446856432. AND WROTE  1323827515. INTEGRALS IN  13255 RECORDS. CPU TIME:     1.98 SEC, REAL TIME:     2.98 SEC

 Node minimum:   120327112.  Node maximum:   120451591. integrals

 OPERATOR DM      FOR CENTER  0  COORDINATES:    0.000000    0.000000    0.000000


 **********************************************************************************************************************************
 DATASETS  * FILE   NREC   LENGTH (MB)   RECORD NAMES
              1      19       22.40       500      610      700      900      950      970     1000      129      960     1100
                                          VAR    BASINP    GEOM    SYMINP    ZMAT    AOBASIS   BASIS     P2S    ABASIS      S
                                         1400     1410     1420     1200     1210     1080     1600     1650     1700
                                           T        V       ECP      H0       H01     AOSYM     SMH    MOLCAS    OPER

 PROGRAMS   *        TOTAL       INT
 CPU TIMES  *        84.93     84.72
 REAL TIME  *        98.55 SEC
 DISK USED  *         8.88 GB
 GA USED    *         0.00 MB       (max)       0.00 MB       (current)
 **********************************************************************************************************************************


 PROGRAM * RHF-SCF (CLOSED SHELL)       Authors: W. Meyer, H.-J. Werner


 NUMBER OF ELECTRONS:       8+    8-    SPACE SYMMETRY=1    SPIN SYMMETRY: Singlet
 CONVERGENCE THRESHOLDS:    1.00E-05 (Density)    1.00E-07 (Energy)
 MAX. NUMBER OF ITERATIONS:      200
 INTERPOLATION TYPE:            DIIS
 INTERPOLATION STEPS:              2 (START)      1 (STEP)
 LEVEL SHIFTS:                  0.00 (CLOSED)  0.00 (OPEN)

 Number of closed-shell orbitals:    8 (   4   2   2   0 )


 Orbital guess generated from atomic densities. Full valence occupancy:    7   3   3   1

 Molecular orbital dump at record        2202.2

 ITERATION    DDIFF          GRAD             ENERGY        2-EL.EN.            DIPOLE MOMENTS         DIIS   ORB.
    1      0.000D+00      0.000D+00       -54.40713806     99.908738    0.00000    0.00000   -7.86597    0    start
    2      0.000D+00      0.162D-01       -48.33507324     90.887098    0.00000    0.00000   23.30422    1    diag
    3      0.181D-01      0.495D-01       -54.72239953     97.694253    0.00000    0.00000   -6.13431    2    diag
    4      0.166D-01      0.597D-02       -54.77774969     96.845879    0.00000    0.00000   -4.82136    3    diag
    5      0.292D-02      0.233D-02       -54.78616564     96.369652    0.00000    0.00000   -4.19389    4    diag
    6      0.111D-02      0.388D-03       -54.78708955     96.264563    0.00000    0.00000   -4.03638    5    diag
    7      0.564D-03      0.385D-03       -54.78781348     96.227594    0.00000    0.00000   -3.96717    6    diag
    8      0.412D-03      0.361D-03       -54.79016268     96.042843    0.00000    0.00000   -3.62546    7    diag
    9      0.165D-02      0.232D-03       -54.79098635     95.903862    0.00000    0.00000   -3.37587    8    diag
   10      0.989D-03      0.127D-03       -54.79113971     95.866409    0.00000    0.00000   -3.32433    9    orth
   11      0.317D-03      0.414D-04       -54.79118051     95.782384    0.00000    0.00000   -3.19353    9    diag
   12      0.432D-03      0.695D-04       -54.79118934     95.791731    0.00000    0.00000   -3.20966    9    diag
   13      0.354D-04      0.198D-04       -54.79119030     95.798819    0.00000    0.00000   -3.22180    9    diag
   14      0.292D-04      0.230D-05       -54.79119029     95.800693    0.00000    0.00000   -3.22508    9    diag
   15      0.973D-05      0.378D-05       -54.79119027     95.797944    0.00000    0.00000   -3.22248    0    orth

 Final occupancy:   4   2   2   0

 !RHF STATE 1.1 Energy                -54.791190267955
   --><property name="Energy" method="RHF" principal="true" stateSymmetry="1" stateNumber="1"
     value="-54.7911902679549"/><!--
 Nuclear energy                        15.18508518
 One-electron energy                 -117.87524753
 Two-electron energy                   47.89897208
 Virial quotient                       -2.27797221
 !RHF STATE 1.1 Dipole moment           0.00000000     0.00000000    -3.22247868
 Dipole moment /Debye                   0.00000000     0.00000000    -8.19018737
   --><property name="Dipole moment" method="RHF" principal="true" stateSymmetry="1"
     stateNumber="1" value="0.0 0.0 -3.22247868402453"/><!--

 ELECTRON ORBITALS
 =================


   Orb  Occ    Energy  Couls-En    Coefficients

                                   1 1s      1 1s      1 1s      1 1s      1 1s      1 1s      1 1s      1 1s      1 1s      1 1s
                                   1 1s      1 1s      1 1s      1 1s      1 1s      1 1s      1 1s      1 1s      1 1s      1 1s
                                   1 1s      1 1s      1 1s      1 1s      1 1s      1 1s      1 1s      1 1s      1 1s      1 1s
                                   1 1s      1 2pz     1 2pz     1 2pz     1 2pz     1 2pz     1 2pz     1 2pz     1 2pz     1 2pz
                                   1 2pz     1 2pz     1 2pz     1 2pz     1 2pz     1 2pz     1 2pz     1 2pz     1 2pz     1 2pz
                                   1 2pz     1 2pz     1 2pz     1 2pz     1 2pz     1 2pz     1 2pz     1 2pz     1 3d0     1 3d2+
                                   1 3d0     1 3d2+    1 3d0     1 3d2+    1 3d0     1 3d2+    1 3d0     1 3d2+    1 3d0     1 3d2+
                                   1 3d0     1 3d2+    1 3d0     1 3d2+    1 3d0     1 3d2+    1 3d0     1 3d2+    1 3d0     1 3d2+
                                   1 3d0     1 3d2+    1 3d0     1 3d2+    1 3d0     1 3d2+    1 3d0     1 3d2+    1 3d0     1 3d2+
                                   1 3d0     1 3d2+    1 3d0     1 3d2+    1 4f0     1 4f2+    1 4f0     1 4f2+    1 4f0     1 4f2+
                                   1 4f0     1 4f2+    1 4f0     1 4f2+    1 4f0     1 4f2+    1 4f0     1 4f2+    1 4f0     1 4f2+
                                   1 4f0     1 4f2+    1 4f0     1 4f2+    1 4f0     1 4f2+    1 4f0     1 4f2+    1 4f0     1 4f2+
                                   1 5g0     1 5g4+    1 5g2+    1 5g0     1 5g4+    1 5g2+    1 5g0     1 5g4+    1 5g2+    1 5g0
                                   1 5g4+    1 5g2+    1 5g0     1 5g4+    1 5g2+    1 5g0     1 5g4+    1 5g2+    1 6h2+    1 6h4+
                                   1 6h0     1 6h2+    1 6h4+    1 6h0     1 6h2+    1 6h4+    1 6h0     2 1s      2 1s      2 1s
                                   2 1s      2 1s      2 1s      2 1s      2 1s      2 1s      2 1s      2 1s      2 1s      2 1s
                                   2 2pz     2 2pz     2 2pz     2 2pz     2 2pz     2 2pz     2 2pz     2 2pz     2 3d0     2 3d2+
                                   2 3d0     2 3d2+    2 3d0     2 3d2+    2 3d0     2 3d2+    2 4f0     2 4f2+    2 4f0     2 4f2+


   1.1   2    -2.8744  -12.0877  0.000000 -0.000000  0.000000 -0.000000  0.000000 -0.000000  0.000001 -0.000003  0.000007 -0.000018
                                 0.000044 -0.000106  0.000248 -0.000558  0.001206 -0.002514  0.004853 -0.008059  0.009794 -0.062337
                                 0.338553 -0.421158 -0.408280  0.279264  0.682119  0.410650 -0.037394  0.046461 -0.038229  0.026697
                                -0.008023 -0.000000  0.000000 -0.000000  0.000000 -0.000000  0.000000 -0.000000  0.000000 -0.000000
                                 0.000000 -0.000001  0.000002 -0.000005  0.000017 -0.000070  0.000684 -0.001254 -0.000223  0.004627
                                -0.000202 -0.010800  0.001489 -0.013772 -0.017424 -0.003011 -0.001510  0.017132  0.000000 -0.000000
                                -0.000000  0.000000  0.000000 -0.000000 -0.000000  0.000000  0.000001 -0.000000 -0.000002  0.000000
                                 0.000005 -0.000000 -0.000013  0.000000  0.000036 -0.000000 -0.000113  0.000000  0.000148 -0.000000
                                 0.001661 -0.000000 -0.006132  0.000000 -0.004951  0.000000  0.000440 -0.000000 -0.001551  0.000000
                                 0.000331 -0.000000  0.000413  0.000000  0.000000 -0.000000 -0.000000  0.000000  0.000001 -0.000000
                                -0.000004  0.000000  0.000010 -0.000000 -0.000018  0.000000  0.000037 -0.000000 -0.000227  0.000000
                                -0.000270  0.000000 -0.000564  0.000000 -0.000023  0.000000 -0.000206  0.000000  0.000210 -0.000000
                                 0.000002  0.000000 -0.000000 -0.000008 -0.000000  0.000000  0.000028 -0.000000 -0.000000  0.000050
                                 0.000000 -0.000000 -0.000014 -0.000000  0.000000  0.000099  0.000000 -0.000000 -0.000000 -0.000000
                                -0.000001  0.000000  0.000000  0.000008 -0.000000  0.000000  0.000030 -0.000000  0.000000 -0.000000
                                 0.000001 -0.000007  0.000223 -0.000313  0.000759  0.001188  0.002141  0.004145 -0.000281 -0.000364
                                -0.000031 -0.000275 -0.000639 -0.001219 -0.002343 -0.001825  0.000025  0.000009  0.000038  0.000000
                                 0.000606  0.000000  0.001024  0.000000  0.000011  0.000000 -0.000035  0.000000 -0.000398 -0.000000

   2.1   2    -1.7264   -9.6669  0.000000 -0.000000  0.000000 -0.000000  0.000000 -0.000000  0.000000 -0.000000  0.000000 -0.000000
                                 0.000001 -0.000003  0.000007 -0.000015  0.000032 -0.000066  0.000129 -0.000216  0.000268 -0.001842
                                 0.010431 -0.013420 -0.013416  0.010249  0.036204 -0.001461 -0.014280 -0.008587 -0.001372 -0.006168
                                 0.002777 -0.000000  0.000000 -0.000000  0.000000 -0.000000  0.000000 -0.000000  0.000001 -0.000005
                                 0.000015 -0.000043  0.000115 -0.000289  0.000701 -0.001163 -0.009961  0.020755  0.051557 -0.307422
                                 0.114627  0.659111 -0.099766  0.458331 -0.014825  0.055401 -0.004370  0.014675  0.000000 -0.000000
                                -0.000000  0.000000  0.000000 -0.000000 -0.000000  0.000000  0.000001 -0.000000 -0.000004  0.000000
                                 0.000012 -0.000000 -0.000031  0.000000  0.000081 -0.000000 -0.000236  0.000000  0.000333 -0.000000
                                 0.002699 -0.000000 -0.008925  0.000000 -0.015347  0.000000 -0.006877  0.000000  0.003155 -0.000000
                                -0.005376  0.000000  0.002089 -0.000000 -0.000000 -0.000000  0.000000  0.000000 -0.000001 -0.000000
                                 0.000004 -0.000000 -0.000013  0.000000  0.000065 -0.000000 -0.000181  0.000000 -0.000454 -0.000000
                                -0.003895  0.000000 -0.002213 -0.000000 -0.001119 -0.000000  0.000180  0.000000  0.000036 -0.000000
                                -0.000002 -0.000000 -0.000000  0.000009  0.000000  0.000000 -0.000035 -0.000000 -0.000000  0.000040
                                -0.000000 -0.000000 -0.000412  0.000000  0.000000  0.000278 -0.000000 -0.000000  0.000000  0.000000
                                 0.000009  0.000000 -0.000000 -0.000149 -0.000000  0.000000  0.000417 -0.000000  0.000000 -0.000002
                                 0.000014 -0.000118  0.004419 -0.008237  0.014879  0.041644  0.032619  0.010894 -0.004254 -0.007139
                                -0.000323 -0.002736 -0.008449 -0.014620 -0.015539 -0.003342 -0.000124  0.000086  0.000534  0.000000
                                 0.003036  0.000000  0.003668  0.000000  0.000033 -0.000000 -0.000314 -0.000000 -0.001136 -0.000000

   3.1   2    -1.3036   -8.6350 -0.000000  0.000000 -0.000000  0.000000 -0.000000  0.000000 -0.000000  0.000000 -0.000000  0.000001
                                -0.000002  0.000005 -0.000012  0.000027 -0.000059  0.000122 -0.000236  0.000389 -0.000469  0.002950
                                -0.016337  0.021669  0.017513 -0.011049 -0.047547 -0.035224  0.048765 -0.005634 -0.021486 -0.002407
                                 0.006384  0.000000 -0.000000  0.000000 -0.000000  0.000000 -0.000000  0.000000 -0.000000  0.000001
                                -0.000003  0.000007 -0.000019  0.000049 -0.000122  0.000236  0.001017 -0.002308 -0.007664  0.044157
                                -0.019010 -0.084661 -0.012266 -0.044090  0.052025 -0.009199 -0.024632 -0.045513 -0.000000  0.000000
                                 0.000000 -0.000000 -0.000001  0.000000  0.000003 -0.000000 -0.000011  0.000000  0.000031 -0.000000
                                -0.000082  0.000000  0.000192 -0.000000 -0.000418  0.000000  0.000922 -0.000000 -0.001427  0.000000
                                -0.003490  0.000000  0.012620 -0.000000  0.025287 -0.000000  0.000981 -0.000000 -0.023182  0.000000
                                 0.018626 -0.000000 -0.000965  0.000000  0.000000  0.000000 -0.000001 -0.000000  0.000004  0.000000
                                -0.000014 -0.000000  0.000042  0.000000 -0.000158  0.000000  0.000381 -0.000000  0.001097 -0.000000
                                 0.003748 -0.000000  0.004684 -0.000000 -0.007810  0.000000  0.001539 -0.000000  0.002051  0.000000
                                 0.000010 -0.000000 -0.000000 -0.000054 -0.000000  0.000000  0.000483  0.000000 -0.000000  0.001225
                                 0.000000  0.000000 -0.004131 -0.000000  0.000000  0.003063  0.000000 -0.000000  0.000000 -0.000000
                                 0.000019 -0.000000  0.000000 -0.000096  0.000000 -0.000000  0.000791 -0.000000  0.000004 -0.000026
                                 0.000165 -0.001427  0.054209 -0.100819  0.188884  0.544857  0.407275  0.046120 -0.053177 -0.088060
                                -0.000162 -0.001093 -0.005069 -0.007890 -0.041478 -0.016377 -0.000340  0.000041 -0.000434 -0.000000
                                 0.002679  0.000000  0.010030  0.000000 -0.000231 -0.000000  0.000066  0.000000 -0.002546 -0.000000

   4.1   2    -0.5053   -6.4113  0.000000 -0.000000  0.000000 -0.000000  0.000000 -0.000000  0.000000 -0.000001  0.000002 -0.000005
                                 0.000011 -0.000027  0.000064 -0.000144  0.000310 -0.000647  0.001249 -0.002073  0.002521 -0.016386
                                 0.092340 -0.123602 -0.103336  0.069636  0.281888  0.294838 -0.097520 -0.421252 -0.291765  0.136165
                                -0.070753 -0.000000  0.000000 -0.000000  0.000000 -0.000000  0.000000 -0.000000  0.000000 -0.000000
                                 0.000000 -0.000001  0.000001 -0.000003  0.000002  0.000054 -0.001364  0.002736  0.001888 -0.018749
                                 0.008577  0.038969  0.017694  0.009957  0.434524 -0.016959  0.076451 -0.424181  0.000000 -0.000000
                                -0.000001  0.000000  0.000004 -0.000000 -0.000016  0.000000  0.000055 -0.000000 -0.000163  0.000000
                                 0.000427 -0.000000 -0.001005  0.000000  0.002197 -0.000000 -0.004917  0.000000  0.007790 -0.000000
                                 0.019188 -0.000000 -0.073616  0.000000 -0.141609  0.000000 -0.100294  0.000000  0.073314 -0.000000
                                -0.046766  0.000000  0.003173 -0.000000 -0.000000 -0.000000  0.000001  0.000000 -0.000006 -0.000000
                                 0.000019  0.000000 -0.000063 -0.000000  0.000259  0.000000 -0.000660 -0.000000 -0.002390  0.000000
                                -0.005697  0.000000 -0.012512  0.000000  0.002827 -0.000000  0.012425  0.000000 -0.005240 -0.000000
                                -0.000009  0.000000 -0.000000  0.000050  0.000000  0.000000 -0.000530 -0.000000 -0.000000 -0.004141
                                -0.000000 -0.000000  0.005847  0.000000 -0.000000 -0.002321 -0.000000  0.000000  0.000000  0.000000
                                -0.000032 -0.000000 -0.000000  0.000236  0.000000  0.000000 -0.001780 -0.000000  0.000001 -0.000004
                                 0.000026 -0.000225  0.008793 -0.016306  0.033008  0.104269  0.102742 -0.043013 -0.008985 -0.014466
                                 0.006615  0.056578  0.184701  0.298077  0.253106  0.066713  0.003629 -0.001744 -0.003112 -0.000000
                                -0.012364  0.000000 -0.018148 -0.000000 -0.000317  0.000000  0.002185  0.000000  0.004762 -0.000000

   5.1   0    -0.2514   -4.8827 -0.000000  0.000000 -0.000000  0.000000 -0.000000  0.000000 -0.000000  0.000000 -0.000001  0.000003
                                -0.000008  0.000019 -0.000044  0.000100 -0.000216  0.000452 -0.000875  0.001461 -0.001795  0.012072
                                -0.068598  0.090633  0.082748 -0.061190 -0.196999 -0.217228 -0.037250  0.284772  0.489139  0.044044
                                 0.135891  0.000000 -0.000000  0.000000 -0.000000  0.000000 -0.000000  0.000000 -0.000000  0.000000
                                -0.000001  0.000003 -0.000008  0.000024 -0.000084  0.000435 -0.005526  0.010749  0.003052 -0.051374
                                 0.018901  0.144341 -0.047967  0.149915 -0.113956 -0.086638 -0.270547  0.049857  0.000000 -0.000000
                                -0.000001  0.000000  0.000004 -0.000000 -0.000017  0.000000  0.000057 -0.000000 -0.000169  0.000000
                                 0.000443 -0.000000 -0.001041  0.000000  0.002271 -0.000000 -0.005058  0.000000  0.008039 -0.000000
                                 0.018776  0.000000 -0.072017  0.000000 -0.139554 -0.000000 -0.149132  0.000000  0.018564  0.000000
                                -0.072249  0.000000  0.019744 -0.000000 -0.000000  0.000000  0.000002 -0.000000 -0.000007  0.000000
                                 0.000024 -0.000000 -0.000073  0.000000  0.000257 -0.000000 -0.000633  0.000000 -0.001380  0.000000
                                -0.005369  0.000000 -0.006605  0.000000  0.010628  0.000000  0.001239  0.000000  0.001087  0.000000
                                -0.000005  0.000000 -0.000000  0.000026 -0.000000  0.000000 -0.000280  0.000000 -0.000000 -0.000288
                                 0.000000 -0.000000  0.003335 -0.000000 -0.000000 -0.002370  0.000000 -0.000000 -0.000000 -0.000000
                                -0.000017  0.000000  0.000000  0.000093 -0.000000 -0.000000 -0.001090  0.000000 -0.000000  0.000000
                                -0.000000 -0.000003  0.000436 -0.001860  0.002034  0.012352  0.013889  0.040133  0.000140 -0.000658
                                 0.004529  0.038733  0.127259  0.204506  0.185798  0.053839  0.002569 -0.001193 -0.001469  0.000000
                                -0.006136  0.000000 -0.010892  0.000000 -0.000148  0.000000  0.001388  0.000000  0.003771  0.000000

   6.1   0    -0.1643   -4.9733  0.000000 -0.000000  0.000000 -0.000000  0.000000 -0.000000  0.000000 -0.000000  0.000000 -0.000000
                                 0.000000 -0.000000  0.000000 -0.000000  0.000000 -0.000000  0.000000 -0.000000  0.000000 -0.000000
                                 0.000000 -0.000000 -0.000000  0.000000  0.000000  0.000000 -0.000000 -0.000000  0.000000 -0.000000
                                 0.000000  0.000000  0.000000 -0.000000  0.000000 -0.000000  0.000000 -0.000000  0.000000 -0.000000
                                 0.000000 -0.000000  0.000000 -0.000000  0.000000 -0.000000 -0.000000  0.000000  0.000000 -0.000000
                                 0.000000  0.000000 -0.000000  0.000000  0.000001 -0.000000 -0.000000 -0.000001 -0.000000  0.000000
                                 0.000000 -0.000002 -0.000000  0.000010  0.000000 -0.000042 -0.000000  0.000144  0.000000 -0.000428
                                -0.000000  0.001121  0.000000 -0.002642 -0.000000  0.005798  0.000000 -0.013060 -0.000000  0.020657
                                -0.000000  0.053526  0.000000 -0.204225  0.000000 -0.374718  0.000000 -0.434912  0.000000 -0.115944
                                -0.000000 -0.081490  0.000000 -0.098045  0.000000 -0.000000 -0.000000  0.000001  0.000000 -0.000002
                                -0.000000  0.000008  0.000000 -0.000012  0.000000 -0.000082 -0.000000  0.000269 -0.000000  0.003345
                                -0.000000  0.004423 -0.000000  0.019660 -0.000000  0.043931 -0.000000  0.018320 -0.000000  0.019325
                                -0.000000 -0.000000  0.000017  0.000000  0.000000 -0.000090 -0.000000  0.000000  0.000714 -0.000000
                                -0.000000  0.009902 -0.000000 -0.000000  0.007901 -0.000000 -0.000000  0.000325 -0.000004  0.000000
                                -0.000000  0.000030 -0.000000  0.000000  0.000032  0.000000 -0.000000 -0.000000  0.000000 -0.000000
                                 0.000000 -0.000000  0.000000 -0.000000  0.000000  0.000000  0.000000 -0.000000 -0.000000 -0.000000
                                 0.000000  0.000000  0.000000  0.000000  0.000000  0.000000  0.000000 -0.000000  0.000000 -0.000530
                                 0.000000 -0.002368 -0.000000 -0.003179  0.000000 -0.000046  0.000000  0.000192 -0.000000  0.001079

                                   1 2px     1 2px     1 2px     1 2px     1 2px     1 2px     1 2px     1 2px     1 2px     1 2px
                                   1 2px     1 2px     1 2px     1 2px     1 2px     1 2px     1 2px     1 2px     1 2px     1 2px
                                   1 2px     1 2px     1 2px     1 2px     1 2px     1 2px     1 2px     1 3d1+    1 3d1+    1 3d1+
                                   1 3d1+    1 3d1+    1 3d1+    1 3d1+    1 3d1+    1 3d1+    1 3d1+    1 3d1+    1 3d1+    1 3d1+
                                   1 3d1+    1 3d1+    1 3d1+    1 3d1+    1 3d1+    1 4f1+    1 4f3+    1 4f1+    1 4f3+    1 4f1+
                                   1 4f3+    1 4f1+    1 4f3+    1 4f1+    1 4f3+    1 4f1+    1 4f3+    1 4f1+    1 4f3+    1 4f1+
                                   1 4f3+    1 4f1+    1 4f3+    1 4f1+    1 4f3+    1 4f1+    1 4f3+    1 4f1+    1 4f3+    1 4f1+
                                   1 4f3+    1 5g1+    1 5g3+    1 5g1+    1 5g3+    1 5g1+    1 5g3+    1 5g1+    1 5g3+    1 5g1+
                                   1 5g3+    1 5g1+    1 5g3+    1 6h1+    1 6h3+    1 6h5+    1 6h1+    1 6h3+    1 6h5+    1 6h1+
                                   1 6h3+    1 6h5+    2 2px     2 2px     2 2px     2 2px     2 2px     2 2px     2 2px     2 2px
                                   2 3d1+    2 3d1+    2 3d1+    2 3d1+    2 4f1+    2 4f3+    2 4f1+    2 4f3+

   1.2   2    -1.7418   -9.5887 -0.000000  0.000000 -0.000000  0.000000 -0.000000  0.000000 -0.000000  0.000001 -0.000005  0.000015
                                -0.000043  0.000115 -0.000291  0.000702 -0.001153 -0.010269  0.021405  0.051841 -0.311095  0.116227
                                 0.659932 -0.083737  0.456787  0.016011  0.053563 -0.002800 -0.015279  0.000000 -0.000000  0.000000
                                -0.000001  0.000002 -0.000007  0.000019 -0.000045  0.000106 -0.000265  0.000392  0.001969 -0.006463
                                -0.013633 -0.002679  0.000912 -0.000950  0.000118 -0.000000  0.000000  0.000001 -0.000000 -0.000003
                                 0.000000  0.000009 -0.000000 -0.000029  0.000000  0.000110 -0.000000 -0.000276  0.000000 -0.000533
                                -0.000000 -0.004226  0.000000 -0.002910  0.000000  0.000275 -0.000000 -0.000440  0.000000  0.000052
                                -0.000000 -0.000004  0.000000  0.000019  0.000000 -0.000117 -0.000000 -0.000208 -0.000000 -0.000113
                                 0.000000 -0.000037 -0.000000  0.000003  0.000000 -0.000000 -0.000078  0.000000 -0.000000  0.000131
                                -0.000000  0.000000  0.000084  0.000733  0.002209  0.003663  0.002895  0.000527  0.000014 -0.000023
                                -0.000156 -0.000963 -0.001005 -0.000018  0.000093  0.000000  0.000540 -0.000000

   2.2   2    -0.5727   -6.9989  0.000000 -0.000000  0.000000 -0.000000  0.000000 -0.000000  0.000000 -0.000000  0.000000 -0.000000
                                 0.000001 -0.000004  0.000009 -0.000018  0.000003  0.000916 -0.001886 -0.002092  0.016685 -0.007304
                                -0.038306  0.005838 -0.039892 -0.064496  0.031432  0.041724  0.058075 -0.000000  0.000000 -0.000002
                                 0.000009 -0.000033  0.000096 -0.000252  0.000591 -0.001285  0.002842 -0.004500 -0.010219  0.039344
                                 0.075399  0.085053 -0.039865  0.075525 -0.032831 -0.000000 -0.000000  0.000001 -0.000000 -0.000004
                                 0.000000  0.000014 -0.000000 -0.000031 -0.000000 -0.000039  0.000000  0.000165 -0.000000  0.003633
                                -0.000000  0.003821 -0.000000  0.017763 -0.000000  0.008444  0.000000  0.004709  0.000000 -0.002126
                                -0.000000  0.000010 -0.000000 -0.000058  0.000000  0.000667 -0.000000  0.006476 -0.000000 -0.004709
                                 0.000000  0.003192 -0.000000  0.000072  0.000000 -0.000000 -0.000569 -0.000000  0.000000  0.002322
                                 0.000000 -0.000000  0.009679  0.083300  0.273320  0.427596  0.356330  0.050242  0.005234 -0.002549
                                -0.002794 -0.011879 -0.025078 -0.000288  0.002170  0.000000  0.007117  0.000000

   3.2   0    -0.1680   -3.9212 -0.000000  0.000000 -0.000000  0.000000 -0.000000  0.000000 -0.000000  0.000000 -0.000000  0.000001
                                -0.000003  0.000006 -0.000014  0.000019  0.000143 -0.004284  0.008662  0.006234 -0.060405  0.024901
                                 0.156044 -0.047662  0.173446  0.037959 -0.080926 -0.450752 -0.344067 -0.000000  0.000001 -0.000006
                                 0.000025 -0.000086  0.000255 -0.000667  0.001572 -0.003452  0.007783 -0.012284 -0.032342  0.123350
                                 0.218739  0.264866  0.178424 -0.038043  0.152554  0.000000  0.000000  0.000000 -0.000000 -0.000000
                                 0.000000  0.000001 -0.000000 -0.000012  0.000000  0.000140 -0.000000 -0.000404  0.000000 -0.002967
                                 0.000000 -0.005793  0.000000 -0.017252  0.000000 -0.022655 -0.000000 -0.005421 -0.000000 -0.008823
                                -0.000000 -0.000016 -0.000000  0.000085  0.000000 -0.000682 -0.000000 -0.009057  0.000000 -0.006661
                                 0.000000 -0.000316 -0.000000 -0.000003 -0.000000 -0.000000  0.000008  0.000000  0.000000 -0.000156
                                -0.000000 -0.000000 -0.000761 -0.006534 -0.021983 -0.033850 -0.032952 -0.024538 -0.000492  0.000199
                                -0.000303 -0.002503  0.001194 -0.000039  0.000081  0.000000  0.000936 -0.000000

   4.2   0    -0.1037   -4.3071  0.000000 -0.000000  0.000000 -0.000000  0.000000 -0.000000  0.000000 -0.000000  0.000002 -0.000005
                                 0.000014 -0.000039  0.000102 -0.000274  0.000760 -0.002900  0.004810 -0.009295  0.030325 -0.020069
                                -0.022547 -0.058884 -0.010946 -6.297491 -0.042608  0.308989  6.769959 -0.000000  0.000001 -0.000008
                                 0.000033 -0.000115  0.000341 -0.000893  0.002105 -0.004625  0.010444 -0.016542 -0.043332  0.166036
                                 0.305216  0.345035 -0.083597  0.290139 -0.122067  0.000000 -0.000000 -0.000001  0.000000  0.000005
                                -0.000000 -0.000017  0.000000  0.000031 -0.000000  0.000123  0.000000 -0.000426 -0.000000 -0.006006
                                 0.000000 -0.007085 -0.000000 -0.031402 -0.000000 -0.083512  0.000000 -0.053429  0.000000 -0.077893
                                 0.000000 -0.000022  0.000000  0.000117 -0.000000 -0.000978  0.000000 -0.013444  0.000000 -0.011705
                                 0.000000 -0.002276  0.000000 -0.000005 -0.000000 -0.000000  0.000044  0.000000  0.000000 -0.000347
                                -0.000000 -0.000000 -0.002831 -0.024360 -0.081787 -0.126205 -0.120907 -0.051036 -0.001781  0.000741
                                -0.001053 -0.006045 -0.002877 -0.000091 -0.000154 -0.000000  0.000856  0.000000

                                   1 2py     1 2py     1 2py     1 2py     1 2py     1 2py     1 2py     1 2py     1 2py     1 2py
                                   1 2py     1 2py     1 2py     1 2py     1 2py     1 2py     1 2py     1 2py     1 2py     1 2py
                                   1 2py     1 2py     1 2py     1 2py     1 2py     1 2py     1 2py     1 3d1-    1 3d1-    1 3d1-
                                   1 3d1-    1 3d1-    1 3d1-    1 3d1-    1 3d1-    1 3d1-    1 3d1-    1 3d1-    1 3d1-    1 3d1-
                                   1 3d1-    1 3d1-    1 3d1-    1 3d1-    1 3d1-    1 4f1-    1 4f3-    1 4f1-    1 4f3-    1 4f1-
                                   1 4f3-    1 4f1-    1 4f3-    1 4f1-    1 4f3-    1 4f1-    1 4f3-    1 4f1-    1 4f3-    1 4f1-
                                   1 4f3-    1 4f1-    1 4f3-    1 4f1-    1 4f3-    1 4f1-    1 4f3-    1 4f1-    1 4f3-    1 4f1-
                                   1 4f3-    1 5g1-    1 5g3-    1 5g1-    1 5g3-    1 5g1-    1 5g3-    1 5g1-    1 5g3-    1 5g1-
                                   1 5g3-    1 5g1-    1 5g3-    1 6h1-    1 6h3-    1 6h5-    1 6h1-    1 6h3-    1 6h5-    1 6h1-
                                   1 6h3-    1 6h5-    2 2py     2 2py     2 2py     2 2py     2 2py     2 2py     2 2py     2 2py
                                   2 3d1-    2 3d1-    2 3d1-    2 3d1-    2 4f1-    2 4f3-    2 4f1-    2 4f3-

   1.3   2    -1.7418   -9.5887 -0.000000  0.000000 -0.000000  0.000000 -0.000000  0.000000 -0.000000  0.000001 -0.000005  0.000015
                                -0.000043  0.000115 -0.000291  0.000702 -0.001153 -0.010269  0.021405  0.051841 -0.311095  0.116227
                                 0.659932 -0.083737  0.456787  0.016011  0.053563 -0.002800 -0.015279  0.000000 -0.000000  0.000000
                                -0.000001  0.000002 -0.000007  0.000019 -0.000045  0.000106 -0.000265  0.000392  0.001969 -0.006463
                                -0.013633 -0.002679  0.000912 -0.000950  0.000118 -0.000000  0.000000  0.000001 -0.000000 -0.000003
                                 0.000000  0.000009 -0.000000 -0.000029  0.000000  0.000110 -0.000000 -0.000276  0.000000 -0.000533
                                -0.000000 -0.004226  0.000000 -0.002910  0.000000  0.000275 -0.000000 -0.000440  0.000000  0.000052
                                -0.000000 -0.000004 -0.000000  0.000019  0.000000 -0.000117 -0.000000 -0.000208 -0.000000 -0.000113
                                 0.000000 -0.000037 -0.000000  0.000003  0.000000 -0.000000 -0.000078  0.000000 -0.000000  0.000131
                                -0.000000  0.000000  0.000084  0.000733  0.002209  0.003663  0.002895  0.000527  0.000014 -0.000023
                                -0.000156 -0.000963 -0.001005 -0.000018  0.000093  0.000000  0.000540  0.000000

   2.3   2    -0.5727   -6.9989  0.000000 -0.000000  0.000000 -0.000000  0.000000 -0.000000  0.000000 -0.000000  0.000000 -0.000000
                                 0.000001 -0.000004  0.000009 -0.000018  0.000003  0.000916 -0.001886 -0.002092  0.016685 -0.007304
                                -0.038306  0.005838 -0.039892 -0.064496  0.031432  0.041724  0.058075 -0.000000  0.000000 -0.000002
                                 0.000009 -0.000033  0.000096 -0.000252  0.000591 -0.001285  0.002842 -0.004500 -0.010219  0.039344
                                 0.075399  0.085053 -0.039865  0.075525 -0.032831 -0.000000 -0.000000  0.000001  0.000000 -0.000004
                                -0.000000  0.000014  0.000000 -0.000031 -0.000000 -0.000039  0.000000  0.000165 -0.000000  0.003633
                                -0.000000  0.003821 -0.000000  0.017763 -0.000000  0.008444 -0.000000  0.004709  0.000000 -0.002126
                                -0.000000  0.000010 -0.000000 -0.000058  0.000000  0.000667 -0.000000  0.006476 -0.000000 -0.004709
                                 0.000000  0.003192 -0.000000  0.000072  0.000000 -0.000000 -0.000569 -0.000000  0.000000  0.002322
                                 0.000000 -0.000000  0.009679  0.083300  0.273320  0.427596  0.356330  0.050242  0.005234 -0.002549
                                -0.002794 -0.011879 -0.025078 -0.000288  0.002170  0.000000  0.007117  0.000000

   3.3   0    -0.1680   -3.9212 -0.000000  0.000000 -0.000000  0.000000 -0.000000  0.000000 -0.000000  0.000000 -0.000000  0.000001
                                -0.000003  0.000006 -0.000014  0.000019  0.000143 -0.004284  0.008662  0.006234 -0.060405  0.024901
                                 0.156044 -0.047662  0.173446  0.037959 -0.080926 -0.450752 -0.344067 -0.000000  0.000001 -0.000006
                                 0.000025 -0.000086  0.000255 -0.000667  0.001572 -0.003452  0.007783 -0.012284 -0.032342  0.123350
                                 0.218739  0.264866  0.178424 -0.038043  0.152554  0.000000  0.000000  0.000000 -0.000000 -0.000000
                                 0.000000  0.000001 -0.000000 -0.000012  0.000000  0.000140 -0.000000 -0.000404  0.000000 -0.002967
                                 0.000000 -0.005793  0.000000 -0.017252  0.000000 -0.022655 -0.000000 -0.005421 -0.000000 -0.008823
                                -0.000000 -0.000016 -0.000000  0.000085  0.000000 -0.000682 -0.000000 -0.009057  0.000000 -0.006661
                                 0.000000 -0.000316 -0.000000 -0.000003 -0.000000 -0.000000  0.000008  0.000000  0.000000 -0.000156
                                -0.000000 -0.000000 -0.000761 -0.006534 -0.021983 -0.033850 -0.032952 -0.024538 -0.000492  0.000199
                                -0.000303 -0.002503  0.001194 -0.000039  0.000081  0.000000  0.000936 -0.000000

   4.3   0    -0.1037   -4.3071  0.000000 -0.000000  0.000000 -0.000000  0.000000 -0.000000  0.000000 -0.000000  0.000002 -0.000005
                                 0.000014 -0.000039  0.000102 -0.000274  0.000760 -0.002900  0.004810 -0.009295  0.030325 -0.020069
                                -0.022547 -0.058884 -0.010946 -6.297492 -0.042608  0.308989  6.769960 -0.000000  0.000001 -0.000008
                                 0.000033 -0.000115  0.000341 -0.000893  0.002105 -0.004625  0.010444 -0.016542 -0.043332  0.166036
                                 0.305216  0.345035 -0.083597  0.290139 -0.122068  0.000000  0.000000 -0.000001 -0.000000  0.000005
                                 0.000000 -0.000017 -0.000000  0.000031  0.000000  0.000123 -0.000000 -0.000426  0.000000 -0.006006
                                -0.000000 -0.007085  0.000000 -0.031402 -0.000000 -0.083512  0.000000 -0.053429 -0.000000 -0.077893
                                 0.000000 -0.000022  0.000000  0.000117 -0.000000 -0.000978  0.000000 -0.013444  0.000000 -0.011705
                                 0.000000 -0.002276 -0.000000 -0.000005  0.000000  0.000000  0.000044 -0.000000  0.000000 -0.000347
                                 0.000000 -0.000000 -0.002831 -0.024360 -0.081787 -0.126205 -0.120907 -0.051036 -0.001781  0.000741
                                -0.001053 -0.006045 -0.002877 -0.000091 -0.000154 -0.000000  0.000856  0.000000

                                   1 3d2-    1 3d2-    1 3d2-    1 3d2-    1 3d2-    1 3d2-    1 3d2-    1 3d2-    1 3d2-    1 3d2-
                                   1 3d2-    1 3d2-    1 3d2-    1 3d2-    1 3d2-    1 3d2-    1 3d2-    1 3d2-    1 4f2-    1 4f2-
                                   1 4f2-    1 4f2-    1 4f2-    1 4f2-    1 4f2-    1 4f2-    1 4f2-    1 4f2-    1 4f2-    1 4f2-
                                   1 4f2-    1 5g2-    1 5g4-    1 5g2-    1 5g4-    1 5g2-    1 5g4-    1 5g2-    1 5g4-    1 5g2-
                                   1 5g4-    1 5g2-    1 5g4-    1 6h4-    1 6h2-    1 6h4-    1 6h2-    1 6h4-    1 6h2-    2 3d2-
                                   2 3d2-    2 3d2-    2 3d2-    2 4f2-    2 4f2-

   1.4   0    -0.1643   -4.9733  0.000000 -0.000002  0.000010 -0.000042  0.000144 -0.000428  0.001121 -0.002642  0.005798 -0.013060
                                 0.020657  0.053526 -0.204225 -0.374718 -0.434912 -0.115944 -0.081490 -0.098045 -0.000000  0.000001
                                -0.000002  0.000008 -0.000012 -0.000082  0.000269  0.003345  0.004423  0.019660  0.043931  0.018320
                                 0.019325  0.000017 -0.000000 -0.000090  0.000000  0.000714  0.000000  0.009902 -0.000000  0.007901
                                -0.000000  0.000325 -0.000000  0.000000 -0.000004 -0.000000  0.000030  0.000000  0.000032 -0.000530
                                -0.002368 -0.003179 -0.000046  0.000192  0.001079

   2.4   0    -0.0441   -2.1788  0.000000 -0.000000  0.000002 -0.000010  0.000034 -0.000101  0.000268 -0.000651  0.001521 -0.003811
                                 0.005679  0.028525 -0.099981 -0.131950 -0.401823  2.312075 -4.722233  3.495774 -0.000000  0.000003
                                -0.000012  0.000040 -0.000109  0.000246 -0.000535  0.001812 -0.002188  0.013264 -0.034637  0.071431
                                -0.327560  0.000008 -0.000000 -0.000042  0.000000  0.000344  0.000000  0.004895 -0.000000 -0.001941
                                 0.000000  0.008003  0.000000  0.000000  0.000003  0.000000 -0.000026  0.000000  0.000147 -0.000097
                                -0.000244 -0.000324 -0.000005  0.000198 -0.000350

 HOMO      4.1    -0.505297 =     -13.7498eV
 LUMO      5.1    -0.251412 =      -6.8413eV
 LUMO-HOMO         0.253885 =       6.9086eV


 **********************************************************************************************************************************
 DATASETS  * FILE   NREC   LENGTH (MB)   RECORD NAMES
              1      19       22.47       500      610      700      900      950      970     1000      129      960     1100
                                          VAR    BASINP    GEOM    SYMINP    ZMAT    AOBASIS   BASIS     P2S    ABASIS      S
                                         1400     1410     1420     1200     1210     1080     1600     1650     1700
                                           T        V       ECP      H0       H01     AOSYM     SMH    MOLCAS    OPER

              2       4        4.02       700     1000      520     2202
                                         GEOM     BASIS   MCVARS     RHF

 PROGRAMS   *        TOTAL       RHF       INT
 CPU TIMES  *        93.52      8.59     84.72
 REAL TIME  *       107.71 SEC
 DISK USED  *         9.22 GB
 SF USED    *         0.24 MB
 GA USED    *         0.00 MB       (max)       0.00 MB       (current)
 **********************************************************************************************************************************
   -->
   <time start="11:01:28" end="11:03:16" cpu="93.52" system="13.78" real="107.71"/>
   <storage units="megabyte" memory="8001.84" sf="0.24" df="339.45" eaf="8876.51" ga="0.0"/>
  </jobstep><!--
  --><jobstep command="RHF-SCF" commandset="SCFPRO">
   <!--


 PROGRAM * RHF-SCF (OPEN SHELL)       Authors: W. Meyer, H.-J. Werner


 NUMBER OF ELECTRONS:       9+    8-    SPACE SYMMETRY=1    SPIN SYMMETRY: Doublet
 CONVERGENCE THRESHOLDS:    1.00E-05 (Density)    1.00E-07 (Energy)
 MAX. NUMBER OF ITERATIONS:      200
 INTERPOLATION TYPE:            DIIS
 INTERPOLATION STEPS:              2 (START)      1 (STEP)
 LEVEL SHIFTS:                 -0.60 (CLOSED) -0.30 (OPEN)

 Number of closed-shell orbitals:    8 (   4   2   2   0 )
 Number of open-shell orbitals:      1 (   1   0   0   0 )


 Molecular orbitals read from record     2202.2  Type=RHF/CANONICAL (state 1.1)

 Molecular orbital dump at record        3202.2

 ITERATION    DDIFF          GRAD             ENERGY        2-EL.EN.            DIPOLE MOMENTS         DIIS   ORB.
    1      0.000D+00      0.000D+00       -55.04260242    104.557614    0.00000    0.00000   -3.25079    0    start
    2      0.000D+00      0.228D-02       -55.05216914    103.615290    0.00000    0.00000   -3.18290    1    diag,B
    3      0.138D-02      0.109D-02       -55.05514978    103.609373    0.00000    0.00000   -3.29305    2    diag,B
    4      0.698D-03      0.649D-03       -55.05837977    103.336532    0.00000    0.00000   -3.27113    3    diag,B
    5      0.845D-03      0.426D-03       -55.06096106    103.169461    0.00000    0.00000   -3.17700    4    diag,B
    6      0.984D-03      0.356D-03       -55.06262807    103.076066    0.00000    0.00000   -3.07094    5    diag,B
    7      0.647D-03      0.389D-03       -55.05894801    103.276373    0.00000    0.00000   -3.37183    6    diag,B
    8      0.669D-03      0.313D-03       -55.05734679    103.435821    0.00000    0.00000   -3.61460    7    orth
    9      0.126D-02      0.217D-03       -55.05673109    103.567971    0.00000    0.00000   -3.85272    8    diag,B
   10      0.121D-02      0.121D-03       -55.05668639    103.633156    0.00000    0.00000   -3.94534    9    diag,B
   11      0.159D-02      0.745D-04       -55.05666925    103.661475    0.00000    0.00000   -4.01526    9    diag,B
   12      0.100D-02      0.704D-04       -55.05664931    103.679949    0.00000    0.00000   -4.05309    9    diag,B
   13      0.152D-03      0.773D-04       -55.05664511    103.680260    0.00000    0.00000   -4.05657    9    diag,B
   14      0.324D-04      0.798D-04       -55.05675340    103.618599    0.00000    0.00000   -3.93500    9    diag,B
   15      0.413D-03      0.621D-04       -55.05711994    103.483028    0.00000    0.00000   -3.73448    9    diag,B
   16      0.567D-03      0.184D-03       -55.05672983    103.640859    0.00000    0.00000   -3.97533    9    diag,B
   17      0.572D-03      0.399D-04       -55.05670204    103.669672    0.00000    0.00000   -4.03029    9    diag,B
   18      0.832D-03      0.246D-04       -55.05666496    103.688768    0.00000    0.00000   -4.07191    9    orth
   19      0.473D-03      0.384D-04       -55.05667973    103.684356    0.00000    0.00000   -4.05982    9    diag,B
   20      0.677D-04      0.279D-04       -55.05666361    103.690814    0.00000    0.00000   -4.07314    9    diag,B
   21      0.766D-04      0.332D-04       -55.05667530    103.686529    0.00000    0.00000   -4.06351    9    diag,B
   22      0.109D-03      0.281D-04       -55.05670089    103.671963    0.00000    0.00000   -4.03291    9    diag,B
   23      0.119D-03      0.158D-04       -55.05672266    103.652417    0.00000    0.00000   -3.99711    9    diag,B
   24      0.172D-03      0.144D-04       -55.05672463    103.650641    0.00000    0.00000   -3.99393    9    diag,B
   25      0.108D-04      0.146D-04       -55.05670658    103.664593    0.00000    0.00000   -4.02116    9    diag,B
   26      0.163D-03      0.176D-04       -55.05668814    103.676740    0.00000    0.00000   -4.04579    9    diag,B
   27      0.115D-03      0.223D-04       -55.05672644    103.645372    0.00000    0.00000   -3.98729    9    diag,B
   28      0.217D-03      0.213D-04       -55.05673110    103.641101    0.00000    0.00000   -3.98058    9    orth
   29      0.829D-04      0.233D-04       -55.05672146    103.650791    0.00000    0.00000   -3.99511    9    diag,B
   30      0.135D-03      0.196D-04       -55.05671694    103.655076    0.00000    0.00000   -4.00293    9    diag,B
   31      0.786D-04      0.183D-04       -55.05672532    103.647340    0.00000    0.00000   -3.98942    9    diag,B
   32      0.116D-03      0.207D-04       -55.05671039    103.661520    0.00000    0.00000   -4.01358    9    diag,B
   33      0.265D-03      0.179D-04       -55.05669645    103.671486    0.00000    0.00000   -4.03397    9    diag,B
   34      0.127D-03      0.204D-04       -55.05671737    103.654091    0.00000    0.00000   -4.00085    9    diag,B
   35      0.131D-03      0.191D-04       -55.05675423    103.622409    0.00000    0.00000   -3.94597    9    diag,B
   36      0.184D-03      0.303D-04       -55.05669980    103.668516    0.00000    0.00000   -4.02856    9    diag,B
   37      0.288D-03      0.213D-04       -55.05668497    103.677747    0.00000    0.00000   -4.04785    9    diag,B
   38      0.828D-04      0.265D-04       -55.05670458    103.664386    0.00000    0.00000   -4.02096    9    orth
   39      0.111D-03      0.208D-04       -55.05673173    103.639217    0.00000    0.00000   -3.97581    9    diag,B
   40      0.167D-03      0.243D-04       -55.05671653    103.653424    0.00000    0.00000   -4.00051    9    diag,B
   41      0.936D-04      0.208D-04       -55.05674912    103.625234    0.00000    0.00000   -3.95113    9    diag,B
   42      0.167D-03      0.291D-04       -55.05670697    103.661798    0.00000    0.00000   -4.01632    9    diag,B
   43      0.226D-03      0.213D-04       -55.05670008    103.667472    0.00000    0.00000   -4.02724    9    diag,B
   44      0.486D-04      0.224D-04       -55.05675134    103.622992    0.00000    0.00000   -3.94793    9    diag,B
   45      0.291D-03      0.304D-04       -55.05668439    103.677746    0.00000    0.00000   -4.04813    9    diag,B
   46      0.387D-03      0.277D-04       -55.05669928    103.669637    0.00000    0.00000   -4.02964    9    diag,B
   47      0.813D-04      0.210D-04       -55.05672427    103.646454    0.00000    0.00000   -3.98783    9    diag,B
   48      0.164D-03      0.214D-04       -55.05677671    103.605835    0.00000    0.00000   -3.91992    9    orth
   49      0.228D-03      0.398D-04       -55.05669831    103.668499    0.00000    0.00000   -4.02961    9    diag,B
   50      0.393D-03      0.237D-04       -55.05668878    103.675152    0.00000    0.00000   -4.04291    9    diag,B
   51      0.670D-04      0.267D-04       -55.05673514    103.636292    0.00000    0.00000   -3.97035    9    diag,B
   52      0.283D-03      0.245D-04       -55.05672740    103.644533    0.00000    0.00000   -3.98333    9    diag,B
   53      0.607D-04      0.215D-04       -55.05676146    103.616060    0.00000    0.00000   -3.93630    9    diag,B
   54      0.184D-03      0.333D-04       -55.05669797    103.670561    0.00000    0.00000   -4.03167    9    diag,B
   55      0.351D-03      0.224D-04       -55.05670964    103.661217    0.00000    0.00000   -4.01357    9    diag,B
   56      0.938D-04      0.196D-04       -55.05673754    103.635682    0.00000    0.00000   -3.96807    9    diag,B
   57      0.145D-03      0.238D-04       -55.05672899    103.643340    0.00000    0.00000   -3.98134    9    fixocc
   58      0.809D-04      0.213D-04       -55.05670882    103.661417    0.00000    0.00000   -4.01465    9    orth
   59      0.198D-03      0.195D-04       -55.05669807    103.669776    0.00000    0.00000   -4.03119    9    diag,B
   60      0.907D-04      0.218D-04       -55.05673787    103.634875    0.00000    0.00000   -3.96716    9    diag,B
   61      0.237D-03      0.248D-04       -55.05668097    103.680075    0.00000    0.00000   -4.05265    9    diag,B
   62      0.316D-03      0.279D-04       -55.05675930    103.618661    0.00000    0.00000   -3.93970    9    diag,B
   63      0.459D-03      0.320D-04       -55.05667601    103.681934    0.00000    0.00000   -4.05746    9    diag,B
   64      0.448D-03      0.309D-04       -55.05670364    103.665617    0.00000    0.00000   -4.02286    9    diag,B
   65      0.173D-03      0.207D-04       -55.05671704    103.653735    0.00000    0.00000   -4.00056    9    diag,B
   66      0.119D-03      0.205D-04       -55.05670851    103.661754    0.00000    0.00000   -4.01496    9    diag,B
   67      0.753D-04      0.201D-04       -55.05674737    103.627112    0.00000    0.00000   -3.95414    9    diag,B
   68      0.240D-03      0.286D-04       -55.05666380    103.686344    0.00000    0.00000   -4.06781    9    orth
   69      0.505D-03      0.369D-04       -55.05672632    103.645532    0.00000    0.00000   -3.98554    9    diag,B
   70      0.347D-03      0.207D-04       -55.05675505    103.621550    0.00000    0.00000   -3.94484    9    diag,B
   71      0.161D-03      0.305D-04       -55.05669688    103.670151    0.00000    0.00000   -4.03241    9    diag,B
   72      0.377D-03      0.228D-04       -55.05668243    103.678915    0.00000    0.00000   -4.05080    9    diag,B
   73      0.788D-04      0.281D-04       -55.05674095    103.631695    0.00000    0.00000   -3.96245    9    diag,B
   74      0.335D-03      0.260D-04       -55.05674610    103.628647    0.00000    0.00000   -3.95616    9    diag,B
   75      0.623D-04      0.267D-04       -55.05672483    103.645856    0.00000    0.00000   -3.98711    9    diag,B
   76      0.120D-03      0.216D-04       -55.05672265    103.647792    0.00000    0.00000   -3.99063    9    diag,B
   77      0.124D-04      0.214D-04       -55.05674158    103.631371    0.00000    0.00000   -3.96169    9    diag,B
   78      0.102D-03      0.263D-04       -55.05672154    103.648770    0.00000    0.00000   -3.99239    9    orth
   79      0.112D-03      0.212D-04       -55.05671963    103.650520    0.00000    0.00000   -3.99552    9    diag,B
   80      0.183D-04      0.208D-04       -55.05674901    103.625329    0.00000    0.00000   -3.95155    9    diag,B
   81      0.150D-03      0.288D-04       -55.05671129    103.658079    0.00000    0.00000   -4.00946    9    diag,B
   82      0.199D-03      0.206D-04       -55.05670402    103.664336    0.00000    0.00000   -4.02134    9    diag,B
   83      0.465D-04      0.213D-04       -55.05672780    103.643232    0.00000    0.00000   -3.98208    9    diag,B
   84      0.137D-03      0.219D-04       -55.05670062    103.667290    0.00000    0.00000   -4.02678    9    diag,B
   85      0.158D-03      0.216D-04       -55.05669547    103.671555    0.00000    0.00000   -4.03455    9    diag,B
   86      0.277D-04      0.224D-04       -55.05673245    103.638693    0.00000    0.00000   -3.97475    9    diag,B
   87      0.214D-03      0.236D-04       -55.05675268    103.623123    0.00000    0.00000   -3.94732    9    diag,B
   88      0.106D-03      0.295D-04       -55.05672002    103.650016    0.00000    0.00000   -3.99482    9    orth
   89      0.166D-03      0.213D-04       -55.05671848    103.651491    0.00000    0.00000   -3.99746    9    diag,B
   90      0.897D-05      0.212D-04       -55.05673397    103.637889    0.00000    0.00000   -3.97281    9    diag,B
   91      0.891D-04      0.244D-04       -55.05672979    103.641114    0.00000    0.00000   -3.97889    9    diag,B
   92      0.338D-04      0.229D-04       -55.05675034    103.624590    0.00000    0.00000   -3.95003    9    diag,B
   93      0.103D-03      0.287D-04       -55.05671466    103.654998    0.00000    0.00000   -4.00389    9    diag,B
   94      0.183D-03      0.212D-04       -55.05671261    103.657064    0.00000    0.00000   -4.00757    9    diag,B
   95      0.121D-04      0.214D-04       -55.05673619    103.635891    0.00000    0.00000   -3.96949    9    diag,B
   96      0.128D-03      0.252D-04       -55.05671289    103.656955    0.00000    0.00000   -4.00720    9    diag,B
   97      0.126D-03      0.213D-04       -55.05670862    103.660909    0.00000    0.00000   -4.01441    9    diag,B
   98      0.245D-04      0.214D-04       -55.05674381    103.629501    0.00000    0.00000   -3.95864    9    orth
   99      0.185D-03      0.278D-04       -55.05670102    103.667442    0.00000    0.00000   -4.02666    9    diag,B
  100      0.228D-03      0.225D-04       -55.05669989    103.668994    0.00000    0.00000   -4.02878    9    diag,B
  101      0.166D-04      0.221D-04       -55.05672966    103.641610    0.00000    0.00000   -3.97950    9    diag,B
  102      0.165D-03      0.233D-04       -55.05675366    103.622569    0.00000    0.00000   -3.94631    9    diag,B
  103      0.120D-03      0.303D-04       -55.05671707    103.652918    0.00000    0.00000   -3.99997    9    diag,B
  104      0.189D-03      0.216D-04       -55.05671628    103.653694    0.00000    0.00000   -4.00137    9    diag,B
  105      0.633D-05      0.214D-04       -55.05671899    103.651656    0.00000    0.00000   -3.99699    9    diag,B
  106      0.169D-04      0.213D-04       -55.05673943    103.633045    0.00000    0.00000   -3.96479    9    diag,B
  107      0.116D-03      0.263D-04       -55.05670716    103.663013    0.00000    0.00000   -4.01712    9    diag,B
  108      0.185D-03      0.205D-04       -55.05674126    103.632767    0.00000    0.00000   -3.96289    9    orth
  109      0.207D-03      0.252D-04       -55.05667548    103.682159    0.00000    0.00000   -4.05794    9    diag,B
  110      0.371D-03      0.319D-04       -55.05669767    103.670435    0.00000    0.00000   -4.03205    9    diag,B
  111      0.126D-03      0.219D-04       -55.05673147    103.641282    0.00000    0.00000   -3.97747    9    diag,B
  112      0.209D-03      0.217D-04       -55.05669880    103.669516    0.00000    0.00000   -4.03047    9    diag,B
  113      0.205D-03      0.215D-04       -55.05669430    103.672580    0.00000    0.00000   -4.03681    9    diag,B
  114      0.291D-04      0.230D-04       -55.05670665    103.663634    0.00000    0.00000   -4.01822    9    diag,B
  115      0.891D-04      0.199D-04       -55.05671570    103.655735    0.00000    0.00000   -4.00333    9    diag,B
  116      0.537D-04      0.191D-04       -55.05673357    103.639321    0.00000    0.00000   -3.97421    9    diag,B
  117      0.121D-03      0.226D-04       -55.05668841    103.676179    0.00000    0.00000   -4.04436    9    diag,B
  118      0.294D-03      0.249D-04       -55.05669171    103.673973    0.00000    0.00000   -4.03981    9    orth
  119      0.374D-04      0.243D-04       -55.05669232    103.674957    0.00000    0.00000   -4.04059    9    diag,B
  120      0.400D-04      0.238D-04       -55.05668841    103.677190    0.00000    0.00000   -4.04570    9    diag,B
  121      0.700D-04      0.233D-04       -55.05675792    103.620103    0.00000    0.00000   -3.94189    9    diag,B
  122      0.431D-03      0.310D-04       -55.05667909    103.680364    0.00000    0.00000   -4.05413    9    diag,B
  123      0.429D-03      0.303D-04       -55.05668308    103.678516    0.00000    0.00000   -4.04991    9    diag,B
  124      0.202D-04      0.281D-04       -55.05672185    103.650124    0.00000    0.00000   -3.99327    9    diag,B
  125      0.222D-03      0.181D-04       -55.05674206    103.633281    0.00000    0.00000   -3.96339    9    diag,B
  126      0.103D-03      0.238D-04       -55.05668516    103.677506    0.00000    0.00000   -4.04773    9    diag,B
  127      0.325D-03      0.263D-04       -55.05670470    103.664796    0.00000    0.00000   -4.02199    9    diag,B
  128      0.118D-03      0.190D-04       -55.05672920    103.644324    0.00000    0.00000   -3.98370    9    orth
  129      0.139D-03      0.190D-04       -55.05667703    103.681629    0.00000    0.00000   -4.05657    9    diag,B
  130      0.309D-03      0.289D-04       -55.05673721    103.636287    0.00000    0.00000   -3.96866    9    diag,B
  131      0.384D-03      0.236D-04       -55.05675161    103.624577    0.00000    0.00000   -3.95076    9    diag,B
  132      0.872D-04      0.284D-04       -55.05665907    103.687511    0.00000    0.00000   -4.07104    9    diag,B
  133      0.542D-03      0.379D-04       -55.05673020    103.641758    0.00000    0.00000   -3.97870    9    diag,B
  134      0.436D-03      0.221D-04       -55.05680787    103.588954    0.00000    0.00000   -3.89341    9    diag,B
  135      0.303D-03      0.520D-04       -55.05670760    103.661599    0.00000    0.00000   -4.01511    9    diag,B
  136      0.468D-03      0.213D-04       -55.05668705    103.676069    0.00000    0.00000   -4.04473    9    diag,B
  137      0.154D-03      0.268D-04       -55.05676030    103.617505    0.00000    0.00000   -3.93785    9    diag,B
  138      0.430D-03      0.338D-04       -55.05665852    103.688055    0.00000    0.00000   -4.07295    9    orth
  139      0.554D-03      0.377D-04       -55.05673648    103.636236    0.00000    0.00000   -3.96936    9    diag,B
  140      0.490D-03      0.237D-04       -55.05672380    103.647873    0.00000    0.00000   -3.98933    9    diag,B
  141      0.103D-03      0.201D-04       -55.05670177    103.668086    0.00000    0.00000   -4.02633    9    diag,B
  142      0.213D-03      0.200D-04       -55.05678557    103.601019    0.00000    0.00000   -3.91154    9    diag,B
  143      0.481D-03      0.436D-04       -55.05666378    103.685920    0.00000    0.00000   -4.06772    9    diag,B
  144      0.633D-03      0.371D-04       -55.05670775    103.661869    0.00000    0.00000   -4.01600    9    diag,B
  145      0.274D-03      0.198D-04       -55.05672640    103.644849    0.00000    0.00000   -3.98530    9    diag,B
  146      0.130D-03      0.210D-04       -55.05666905    103.684393    0.00000    0.00000   -4.06428    9    diag,B
  147      0.379D-03      0.335D-04       -55.05680463    103.590787    0.00000    0.00000   -3.89593    9    diag,B
  148      0.671D-03      0.498D-04       -55.05670319    103.665541    0.00000    0.00000   -4.02284    9    orth
  149      0.475D-03      0.212D-04       -55.05668142    103.679106    0.00000    0.00000   -4.05163    9    diag,B
  150      0.148D-03      0.290D-04       -55.05672403    103.647145    0.00000    0.00000   -3.98830    9    diag,B
  151      0.274D-03      0.214D-04       -55.05679173    103.598177    0.00000    0.00000   -3.90691    9    diag,B
  152      0.271D-03      0.454D-04       -55.05670453    103.664038    0.00000    0.00000   -4.02028    9    diag,B
  153      0.407D-03      0.221D-04       -55.05668253    103.678364    0.00000    0.00000   -4.05048    9    diag,B
  154      0.148D-03      0.288D-04       -55.05675101    103.624444    0.00000    0.00000   -3.94926    9    diag,B
  155      0.406D-03      0.300D-04       -55.05670050    103.669486    0.00000    0.00000   -4.03002    9    diag,B
  156      0.276D-03      0.181D-04       -55.05673080    103.640988    0.00000    0.00000   -3.97740    9    diag,B
  157      0.176D-03      0.225D-04       -55.05673733    103.636867    0.00000    0.00000   -3.96991    9    diag,B
  158      0.144D-03      0.235D-04       -55.05671687    103.654691    0.00000    0.00000   -4.00128    9    orth
  159      0.315D-03      0.178D-04       -55.05675168    103.623781    0.00000    0.00000   -3.94843    9    diag,B
  160      0.275D-03      0.299D-04       -55.05670220    103.666758    0.00000    0.00000   -4.02484    9    diag,B
  161      0.248D-03      0.212D-04       -55.05662593    103.694216    0.00000    0.00000   -4.09050    9    diag,B
  162      0.306D-03      0.557D-04       -55.05672767    103.644146    0.00000    0.00000   -3.98296    9    diag,B
  163      0.452D-03      0.215D-04       -55.05676503    103.613949    0.00000    0.00000   -3.93242    9    diag,B
  164      0.156D-03      0.347D-04       -55.05668819    103.675821    0.00000    0.00000   -4.04402    9    diag,B
  165      0.388D-03      0.269D-04       -55.05655860    103.697707    0.00000    0.00000   -4.11072    9    diag,B
  166      0.430D-03      0.887D-04       -55.05671858    103.652778    0.00000    0.00000   -3.99826    9    diag,B
  167      0.602D-03      0.192D-04       -55.05673197    103.640274    0.00000    0.00000   -3.97604    9    diag,B
  168      0.808D-04      0.218D-04       -55.05666810    103.685628    0.00000    0.00000   -4.06586    9    orth
  169      0.371D-03      0.353D-04       -55.05678244    103.603107    0.00000    0.00000   -3.91464    9    diag,B
  170      0.546D-03      0.400D-04       -55.05664723    103.690397    0.00000    0.00000   -4.07974    9    diag,B
  171      0.689D-03      0.457D-04       -55.05671333    103.656976    0.00000    0.00000   -4.00631    9    diag,B
  172      0.385D-03      0.193D-04       -55.05671683    103.653096    0.00000    0.00000   -3.99959    9    diag,B
  173      0.457D-04      0.209D-04       -55.05671934    103.650810    0.00000    0.00000   -3.99536    9    diag,B
  174      0.180D-04      0.210D-04       -55.05672858    103.643563    0.00000    0.00000   -3.98227    9    diag,B
  175      0.778D-04      0.215D-04       -55.05671770    103.652299    0.00000    0.00000   -3.99811    9    diag,B
  176      0.636D-04      0.206D-04       -55.05671325    103.656530    0.00000    0.00000   -4.00586    9    diag,B
  177      0.743D-04      0.194D-04       -55.05674298    103.631232    0.00000    0.00000   -3.96109    9    diag,B
  178      0.180D-03      0.265D-04       -55.05669373    103.672238    0.00000    0.00000   -4.03647    9    orth
  179      0.342D-03      0.214D-04       -55.05667817    103.682765    0.00000    0.00000   -4.05769    9    diag,B
  180      0.136D-03      0.252D-04       -55.05676450    103.613545    0.00000    0.00000   -3.93242    9    diag,B
  181      0.573D-03      0.363D-04       -55.05676513    103.614170    0.00000    0.00000   -3.93319    9    diag,B
  182      0.243D-04      0.364D-04       -55.05663985    103.690850    0.00000    0.00000   -4.08172    9    diag,B
  183      0.668D-03      0.466D-04       -55.05672011    103.651348    0.00000    0.00000   -3.99587    9    diag,B
  184      0.459D-03      0.198D-04       -55.05675901    103.619137    0.00000    0.00000   -3.94109    9    diag,B
  185      0.214D-03      0.334D-04       -55.05671385    103.656485    0.00000    0.00000   -4.00572    9    diag,B
  186      0.238D-03      0.210D-04       -55.05669408    103.671922    0.00000    0.00000   -4.03644    9    diag,B
  187      0.148D-03      0.249D-04       -55.05675447    103.622425    0.00000    0.00000   -3.94677    9    diag,B
  188      0.367D-03      0.325D-04       -55.05660992    103.694511    0.00000    0.00000   -4.09543    9    orth
  189      0.755D-03      0.637D-04       -55.05674103    103.632922    0.00000    0.00000   -3.96336    9    diag,B
  190      0.682D-03      0.242D-04       -55.05671777    103.653564    0.00000    0.00000   -3.99969    9    diag,B
  191      0.153D-03      0.185D-04       -55.05670486    103.664095    0.00000    0.00000   -4.01998    9    diag,B
  192      0.736D-04      0.207D-04       -55.05671072    103.659121    0.00000    0.00000   -4.01043    9    diag,B
  193      0.672D-04      0.205D-04       -55.05668898    103.675170    0.00000    0.00000   -4.04275    9    diag,B
  194      0.161D-03      0.256D-04       -55.05676223    103.616535    0.00000    0.00000   -3.93650    9    diag,B
  195      0.422D-03      0.340D-04       -55.05658447    103.696237    0.00000    0.00000   -4.10333    9    diag,B
  196      0.824D-03      0.757D-04       -55.05673806    103.635300    0.00000    0.00000   -3.96749    9    diag,B
  197      0.693D-03      0.232D-04       -55.05672681    103.645242    0.00000    0.00000   -3.98475    9    diag,B
  198      0.714D-04      0.199D-04       -55.05671181    103.658029    0.00000    0.00000   -4.00845    9    orth
  199      0.833D-04      0.202D-04       -55.05672474    103.647270    0.00000    0.00000   -3.98802    9    orth
  200      0.863D-04      0.198D-04       -55.05672646    103.650556    0.00000    0.00000   -3.98781    0    orth

 Final alpha occupancy:   5   2   2   0
 Final beta  occupancy:   4   2   2   0

 !RHF STATE 1.1 Energy                -55.056726461924
   --><property name="Energy" method="RHF" principal="true" stateSymmetry="1" stateNumber="1"
     value="-55.0567264619237"/><!--
 Nuclear energy                        15.18508518
 One-electron energy                 -122.06708967
 Two-electron energy                   51.82527802
 Virial quotient                       -2.26327171
 !RHF STATE 1.1 Dipole moment           0.00000000     0.00000000    -3.98781399
 Dipole moment /Debye                   0.00000000     0.00000000   -10.13534829
   --><property name="Dipole moment" method="RHF" principal="true" stateSymmetry="1"
     stateNumber="1" value="0.0 0.0 -3.98781399285067"/><!--

 ELECTRON ORBITALS
 =================


   Orb  Occ    Energy  Couls-En    Coefficients

                                   1 1s      1 1s      1 1s      1 1s      1 1s      1 1s      1 1s      1 1s      1 1s      1 1s
                                   1 1s      1 1s      1 1s      1 1s      1 1s      1 1s      1 1s      1 1s      1 1s      1 1s
                                   1 1s      1 1s      1 1s      1 1s      1 1s      1 1s      1 1s      1 1s      1 1s      1 1s
                                   1 1s      1 2pz     1 2pz     1 2pz     1 2pz     1 2pz     1 2pz     1 2pz     1 2pz     1 2pz
                                   1 2pz     1 2pz     1 2pz     1 2pz     1 2pz     1 2pz     1 2pz     1 2pz     1 2pz     1 2pz
                                   1 2pz     1 2pz     1 2pz     1 2pz     1 2pz     1 2pz     1 2pz     1 2pz     1 3d0     1 3d2+
                                   1 3d0     1 3d2+    1 3d0     1 3d2+    1 3d0     1 3d2+    1 3d0     1 3d2+    1 3d0     1 3d2+
                                   1 3d0     1 3d2+    1 3d0     1 3d2+    1 3d0     1 3d2+    1 3d0     1 3d2+    1 3d0     1 3d2+
                                   1 3d0     1 3d2+    1 3d0     1 3d2+    1 3d0     1 3d2+    1 3d0     1 3d2+    1 3d0     1 3d2+
                                   1 3d0     1 3d2+    1 3d0     1 3d2+    1 4f0     1 4f2+    1 4f0     1 4f2+    1 4f0     1 4f2+
                                   1 4f0     1 4f2+    1 4f0     1 4f2+    1 4f0     1 4f2+    1 4f0     1 4f2+    1 4f0     1 4f2+
                                   1 4f0     1 4f2+    1 4f0     1 4f2+    1 4f0     1 4f2+    1 4f0     1 4f2+    1 4f0     1 4f2+
                                   1 5g0     1 5g4+    1 5g2+    1 5g0     1 5g4+    1 5g2+    1 5g0     1 5g4+    1 5g2+    1 5g0
                                   1 5g4+    1 5g2+    1 5g0     1 5g4+    1 5g2+    1 5g0     1 5g4+    1 5g2+    1 6h2+    1 6h4+
                                   1 6h0     1 6h2+    1 6h4+    1 6h0     1 6h2+    1 6h4+    1 6h0     2 1s      2 1s      2 1s
                                   2 1s      2 1s      2 1s      2 1s      2 1s      2 1s      2 1s      2 1s      2 1s      2 1s
                                   2 2pz     2 2pz     2 2pz     2 2pz     2 2pz     2 2pz     2 2pz     2 2pz     2 3d0     2 3d2+
                                   2 3d0     2 3d2+    2 3d0     2 3d2+    2 3d0     2 3d2+    2 4f0     2 4f2+    2 4f0     2 4f2+


   1.1   2    -2.6214  -11.8334  0.000000 -0.000000  0.000000 -0.000000  0.000000 -0.000000  0.000001 -0.000003  0.000007 -0.000018
                                 0.000044 -0.000106  0.000248 -0.000558  0.001205 -0.002512  0.004849 -0.008052  0.009785 -0.062275
                                 0.338195 -0.420689 -0.407780  0.278789  0.680911  0.409388 -0.034750  0.046437 -0.037628  0.026632
                                -0.007973 -0.000000  0.000000 -0.000000  0.000000 -0.000000  0.000000 -0.000000  0.000000 -0.000000
                                 0.000000 -0.000000  0.000001 -0.000003  0.000010 -0.000045  0.000509 -0.000916 -0.000417  0.004320
                                 0.000144 -0.009343 -0.000347 -0.012579 -0.018041 -0.003104 -0.001901  0.017620  0.000000  0.000000
                                -0.000000 -0.000000  0.000000  0.000000 -0.000000 -0.000000  0.000001  0.000000 -0.000002 -0.000000
                                 0.000006  0.000000 -0.000014 -0.000000  0.000037  0.000000 -0.000109 -0.000000  0.000171  0.000000
                                 0.001121 -0.000000 -0.004259  0.000000 -0.004610  0.000000 -0.000712 -0.000000 -0.000230  0.000000
                                -0.001231 -0.000000  0.000864  0.000000  0.000000 -0.000000 -0.000000  0.000000  0.000001 -0.000000
                                -0.000002  0.000000  0.000005 -0.000000 -0.000005  0.000000  0.000005 -0.000000 -0.000236 -0.000000
                                -0.000834 -0.000000 -0.000770 -0.000000 -0.000025  0.000000 -0.000241 -0.000000  0.000188  0.000000
                                 0.000000 -0.000000  0.000000 -0.000001  0.000000 -0.000000 -0.000020  0.000000  0.000000 -0.000033
                                 0.000000  0.000000 -0.000014 -0.000000 -0.000000  0.000075  0.000000  0.000000  0.000000  0.000000
                                -0.000001 -0.000000 -0.000000  0.000005  0.000000  0.000000  0.000015 -0.000000  0.000000 -0.000000
                                 0.000001 -0.000006  0.000223 -0.000373  0.000730  0.001383  0.002346  0.004429 -0.000239 -0.000359
                                -0.000032 -0.000284 -0.000666 -0.001311 -0.002307 -0.001729  0.000025  0.000009  0.000058  0.000000
                                 0.000610  0.000000  0.000911  0.000000  0.000011  0.000000 -0.000048 -0.000000 -0.000308 -0.000000

   2.1   2    -1.4769   -9.4167  0.000000 -0.000000  0.000000 -0.000000  0.000000 -0.000000  0.000000 -0.000000  0.000000 -0.000000
                                 0.000001 -0.000003  0.000006 -0.000014  0.000030 -0.000062  0.000121 -0.000203  0.000253 -0.001740
                                 0.009825 -0.012488 -0.012974  0.009064  0.035857 -0.002658 -0.010672 -0.012407  0.001312 -0.007327
                                 0.002835 -0.000000  0.000000 -0.000000  0.000000 -0.000000  0.000000 -0.000000  0.000001 -0.000005
                                 0.000015 -0.000042  0.000113 -0.000285  0.000687 -0.001120 -0.010247  0.021316  0.051126 -0.307426
                                 0.114658  0.659655 -0.097665  0.455846 -0.010304  0.053215 -0.002307  0.010417  0.000000  0.000000
                                -0.000000 -0.000000  0.000000  0.000000 -0.000000 -0.000000  0.000001  0.000000 -0.000003 -0.000000
                                 0.000007  0.000000 -0.000020 -0.000000  0.000057  0.000000 -0.000189 -0.000000  0.000218  0.000000
                                 0.003010  0.000000 -0.009042 -0.000000 -0.017570 -0.000000 -0.007957  0.000000  0.004174 -0.000000
                                -0.005489  0.000000  0.001959 -0.000000 -0.000000  0.000000  0.000000 -0.000000 -0.000001  0.000000
                                 0.000004 -0.000000 -0.000015  0.000000  0.000072 -0.000000 -0.000183  0.000000 -0.000718  0.000000
                                -0.003613  0.000000 -0.003168  0.000000 -0.001900  0.000000  0.000890 -0.000000 -0.000149  0.000000
                                -0.000006 -0.000000 -0.000000  0.000032  0.000000  0.000000 -0.000142  0.000000 -0.000000 -0.000625
                                -0.000000  0.000000 -0.000112 -0.000000  0.000000  0.000192  0.000000 -0.000000  0.000000 -0.000000
                                 0.000007 -0.000000 -0.000000 -0.000131  0.000000  0.000000  0.000257 -0.000000  0.000000 -0.000002
                                 0.000014 -0.000119  0.004454 -0.008208  0.014945  0.041404  0.034263  0.010158 -0.004337 -0.007203
                                -0.000364 -0.003094 -0.009592 -0.016313 -0.016874 -0.003262 -0.000138  0.000097  0.000601 -0.000000
[...]
                                 0.000009  0.000000  0.000000 -0.000079 -0.000000 -0.000000  0.000349 -0.000000  0.000000 -0.000003
                                 0.000016 -0.000099  0.001394  0.006806  0.005405 -0.013052  0.026581 -0.310703 -0.007010 -0.003026
                                -0.000653 -0.005552 -0.019350 -0.029431 -0.040115  0.016141 -0.000547  0.000169  0.000075  0.000000
                                -0.003910  0.000001  0.006089  0.000001 -0.000058  0.000000 -0.000173 -0.000000  0.002248 -0.000000

                                   1 2px     1 2px     1 2px     1 2px     1 2px     1 2px     1 2px     1 2px     1 2px     1 2px
                                   1 2px     1 2px     1 2px     1 2px     1 2px     1 2px     1 2px     1 2px     1 2px     1 2px
                                   1 2px     1 2px     1 2px     1 2px     1 2px     1 2px     1 2px     1 3d1+    1 3d1+    1 3d1+
                                   1 3d1+    1 3d1+    1 3d1+    1 3d1+    1 3d1+    1 3d1+    1 3d1+    1 3d1+    1 3d1+    1 3d1+
                                   1 3d1+    1 3d1+    1 3d1+    1 3d1+    1 3d1+    1 4f1+    1 4f3+    1 4f1+    1 4f3+    1 4f1+
                                   1 4f3+    1 4f1+    1 4f3+    1 4f1+    1 4f3+    1 4f1+    1 4f3+    1 4f1+    1 4f3+    1 4f1+
                                   1 4f3+    1 4f1+    1 4f3+    1 4f1+    1 4f3+    1 4f1+    1 4f3+    1 4f1+    1 4f3+    1 4f1+
                                   1 4f3+    1 5g1+    1 5g3+    1 5g1+    1 5g3+    1 5g1+    1 5g3+    1 5g1+    1 5g3+    1 5g1+
                                   1 5g3+    1 5g1+    1 5g3+    1 6h1+    1 6h3+    1 6h5+    1 6h1+    1 6h3+    1 6h5+    1 6h1+
                                   1 6h3+    1 6h5+    2 2px     2 2px     2 2px     2 2px     2 2px     2 2px     2 2px     2 2px
                                   2 3d1+    2 3d1+    2 3d1+    2 3d1+    2 4f1+    2 4f3+    2 4f1+    2 4f3+

   1.2   2    -1.4910   -9.3300 -0.000000  0.000000 -0.000000  0.000000 -0.000000  0.000000 -0.000000  0.000001 -0.000005  0.000015
                                -0.000043  0.000115 -0.000289  0.000698 -0.001144 -0.010229  0.021290  0.051662 -0.309652  0.115295
                                 0.657646 -0.086443  0.456645  0.013316  0.060210 -0.001016 -0.012676  0.000000 -0.000000  0.000000
                                -0.000000  0.000001 -0.000004  0.000011 -0.000026  0.000064 -0.000164  0.000184  0.001824 -0.004863
                                -0.013030 -0.004630  0.001849 -0.002128  0.000474 -0.000000  0.000000  0.000001 -0.000000 -0.000002
                                 0.000000  0.000008 -0.000000 -0.000026  0.000000  0.000103 -0.000000 -0.000248  0.000000 -0.000736
                                -0.000000 -0.003723 -0.000000 -0.003660 -0.000000 -0.000397 -0.000000 -0.000026  0.000000 -0.000050
                                -0.000000 -0.000007 -0.000000  0.000037  0.000000 -0.000206 -0.000000 -0.000723 -0.000000  0.000112
                                 0.000000 -0.000105 -0.000000  0.000001 -0.000000  0.000000 -0.000066 -0.000000 -0.000000  0.000011
                                -0.000000 -0.000000  0.000084  0.000728  0.002232  0.003674  0.003385  0.000614  0.000022 -0.000023
                                -0.000151 -0.000907 -0.001196 -0.000017  0.000078  0.000000  0.000509  0.000000

   2.2   2    -0.3069   -6.5620  0.000000 -0.000000  0.000000 -0.000000  0.000000 -0.000000  0.000000 -0.000000  0.000000 -0.000001
                                 0.000002 -0.000005  0.000011 -0.000025  0.000015  0.000983 -0.002046 -0.002504  0.019267 -0.008536
                                -0.043737  0.006181 -0.044314 -0.101852  0.025863  0.063439  0.100870 -0.000000  0.000000 -0.000003
                                 0.000011 -0.000036  0.000108 -0.000283  0.000664 -0.001448  0.003220 -0.005081 -0.012192  0.046472
                                 0.086644  0.098383 -0.007888  0.054423 -0.024166 -0.000000 -0.000000  0.000001  0.000000 -0.000003
                                -0.000000  0.000010  0.000000 -0.000020 -0.000000 -0.000067  0.000000  0.000228 -0.000000  0.003573
                                 0.000000  0.004279 -0.000000  0.016439  0.000000  0.012174  0.000000  0.007293  0.000000 -0.004311
                                 0.000000  0.000009  0.000000 -0.000053 -0.000000  0.000613  0.000000  0.005794  0.000000 -0.001514
                                 0.000000  0.001389  0.000000  0.000063 -0.000000  0.000000 -0.000490  0.000000 -0.000000  0.002042
                                -0.000000  0.000000  0.008997  0.077226  0.254220  0.398306  0.351504  0.096999  0.005101 -0.002367
                                -0.002533 -0.011119 -0.020469 -0.000267  0.000630  0.000000  0.005344  0.000000

   3.2   0    -0.0157   -2.9457 -0.000000  0.000000 -0.000000  0.000000 -0.000000  0.000000 -0.000000  0.000001 -0.000002  0.000007
                                -0.000021  0.000056 -0.000145  0.000384 -0.001004  0.002643 -0.003901  0.014829 -0.060860  0.035032
                                 0.080755  0.066136  0.064736 10.494050  0.009619 -0.514809-10.950434 -0.000000  0.000001 -0.000003
                                 0.000012 -0.000043  0.000127 -0.000332  0.000779 -0.001695  0.003761 -0.005963 -0.013759  0.053396
                                 0.096866  0.105559  0.487870 -0.695846  0.619150 -0.000000 -0.000000  0.000000  0.000000 -0.000001
                                -0.000000  0.000005  0.000000 -0.000015 -0.000000  0.000057 -0.000000 -0.000148  0.000000 -0.000394
                                 0.000000 -0.001531  0.000000 -0.002815  0.000000 -0.005007  0.000000  0.009230  0.000000 -0.010009
                                 0.000000 -0.000009 -0.000000  0.000047  0.000000 -0.000381 -0.000000 -0.004898 -0.000000 -0.003575
                                -0.000000  0.000926  0.000000 -0.000005 -0.000000  0.000000  0.000039  0.000000 -0.000000 -0.000223
                                -0.000000  0.000000  0.000079  0.000688  0.002189  0.003535  0.001426 -0.029029  0.000030 -0.000021
                                -0.000103 -0.001452  0.001244 -0.000026  0.000054  0.000000  0.000903 -0.000000

   4.2   0     0.0531   -2.1165 -0.000000  0.000000 -0.000000  0.000000 -0.000000  0.000000 -0.000001  0.000004 -0.000013  0.000042
                                -0.000121  0.000329 -0.000870  0.002426 -0.007592  0.045274 -0.081860  0.057795 -0.012980  0.072817
                                -0.474148  0.761940 -0.695282 69.897026  0.514394 -0.912135-69.426185  0.000000 -0.000000  0.000003
                                -0.000011  0.000038 -0.000112  0.000295 -0.000702  0.001575 -0.003685  0.005664  0.020027 -0.072677
                                -0.106685 -0.222387  0.573412 -1.272162  0.809678 -0.000000 -0.000000  0.000000  0.000000 -0.000001
                                -0.000000  0.000004  0.000000 -0.000006 -0.000000 -0.000052  0.000000  0.000166 -0.000000  0.001887
                                -0.000000  0.002621 -0.000000  0.010610 -0.000000  0.020439 -0.000000  0.045609  0.000000  0.184034
                                -0.000001  0.000011  0.000000 -0.000061 -0.000000  0.000508  0.000000  0.006250  0.000000  0.006393
                                -0.000000  0.055523  0.000000  0.000009  0.000000 -0.000000 -0.000072 -0.000000 -0.000000  0.000392
                                 0.000000 -0.000000  0.000808  0.006664  0.026704  0.036127  0.054283 -0.249492  0.001313 -0.000201
                                 0.000296  0.000359  0.004243 -0.000001 -0.000031  0.000000 -0.000816  0.000000

                                   1 2py     1 2py     1 2py     1 2py     1 2py     1 2py     1 2py     1 2py     1 2py     1 2py
                                   1 2py     1 2py     1 2py     1 2py     1 2py     1 2py     1 2py     1 2py     1 2py     1 2py
                                   1 2py     1 2py     1 2py     1 2py     1 2py     1 2py     1 2py     1 3d1-    1 3d1-    1 3d1-
                                   1 3d1-    1 3d1-    1 3d1-    1 3d1-    1 3d1-    1 3d1-    1 3d1-    1 3d1-    1 3d1-    1 3d1-
                                   1 3d1-    1 3d1-    1 3d1-    1 3d1-    1 3d1-    1 4f1-    1 4f3-    1 4f1-    1 4f3-    1 4f1-
                                   1 4f3-    1 4f1-    1 4f3-    1 4f1-    1 4f3-    1 4f1-    1 4f3-    1 4f1-    1 4f3-    1 4f1-
                                   1 4f3-    1 4f1-    1 4f3-    1 4f1-    1 4f3-    1 4f1-    1 4f3-    1 4f1-    1 4f3-    1 4f1-
                                   1 4f3-    1 5g1-    1 5g3-    1 5g1-    1 5g3-    1 5g1-    1 5g3-    1 5g1-    1 5g3-    1 5g1-
                                   1 5g3-    1 5g1-    1 5g3-    1 6h1-    1 6h3-    1 6h5-    1 6h1-    1 6h3-    1 6h5-    1 6h1-
                                   1 6h3-    1 6h5-    2 2py     2 2py     2 2py     2 2py     2 2py     2 2py     2 2py     2 2py
                                   2 3d1-    2 3d1-    2 3d1-    2 3d1-    2 4f1-    2 4f3-    2 4f1-    2 4f3-

   1.3   2    -1.4910   -9.3300 -0.000000  0.000000 -0.000000  0.000000 -0.000000  0.000000 -0.000000  0.000001 -0.000005  0.000015
                                -0.000043  0.000115 -0.000289  0.000698 -0.001144 -0.010229  0.021290  0.051663 -0.309652  0.115295
                                 0.657646 -0.086444  0.456645  0.013316  0.060210 -0.001016 -0.012676  0.000000 -0.000000  0.000000
                                -0.000000  0.000001 -0.000004  0.000011 -0.000026  0.000064 -0.000164  0.000184  0.001824 -0.004862
                                -0.013030 -0.004630  0.001849 -0.002128  0.000474 -0.000000  0.000000  0.000001 -0.000000 -0.000002
                                 0.000000  0.000008 -0.000000 -0.000026  0.000000  0.000103 -0.000000 -0.000248  0.000000 -0.000736
                                -0.000000 -0.003723 -0.000000 -0.003661 -0.000000 -0.000397 -0.000000 -0.000026  0.000000 -0.000050
                                -0.000000 -0.000007 -0.000000  0.000037  0.000000 -0.000206 -0.000000 -0.000723 -0.000000  0.000112
                                 0.000000 -0.000105 -0.000000  0.000001 -0.000000  0.000000 -0.000066 -0.000000 -0.000000  0.000011
                                -0.000000 -0.000000  0.000084  0.000728  0.002232  0.003674  0.003385  0.000614  0.000022 -0.000023
                                -0.000151 -0.000907 -0.001196 -0.000017  0.000078  0.000000  0.000509  0.000000

   2.3   2    -0.3069   -6.5621  0.000000 -0.000000  0.000000 -0.000000  0.000000 -0.000000  0.000000 -0.000000  0.000000 -0.000001
                                 0.000002 -0.000005  0.000011 -0.000025  0.000015  0.000983 -0.002046 -0.002504  0.019266 -0.008535
                                -0.043735  0.006181 -0.044312 -0.101864  0.025862  0.063433  0.100879 -0.000000  0.000000 -0.000003
                                 0.000011 -0.000036  0.000108 -0.000283  0.000664 -0.001448  0.003220 -0.005080 -0.012191  0.046467
                                 0.086635  0.098373 -0.007891  0.054421 -0.024168 -0.000000 -0.000000  0.000001  0.000000 -0.000003
                                -0.000000  0.000010  0.000000 -0.000020 -0.000000 -0.000067  0.000000  0.000228 -0.000000  0.003573
                                 0.000000  0.004279 -0.000000  0.016439  0.000000  0.012173  0.000000  0.007293  0.000000 -0.004311
                                 0.000000  0.000009  0.000000 -0.000053 -0.000000  0.000613  0.000000  0.005794  0.000000 -0.001514
                                 0.000000  0.001389  0.000000  0.000063 -0.000000  0.000000 -0.000490  0.000000 -0.000000  0.002042
                                -0.000000  0.000000  0.008997  0.077227  0.254224  0.398313  0.351508  0.096998  0.005101 -0.002367
                                -0.002533 -0.011119 -0.020469 -0.000267  0.000630  0.000000  0.005344  0.000000

   3.3   0    -0.0157   -2.9457 -0.000000  0.000000 -0.000000  0.000000 -0.000000  0.000000 -0.000000  0.000001 -0.000002  0.000007
                                -0.000021  0.000056 -0.000145  0.000384 -0.001004  0.002643 -0.003901  0.014829 -0.060860  0.035032
                                 0.080758  0.066133  0.064739 10.493834  0.009616 -0.514809-10.950217 -0.000000  0.000001 -0.000003
                                 0.000012 -0.000043  0.000127 -0.000332  0.000779 -0.001695  0.003761 -0.005963 -0.013759  0.053395
                                 0.096865  0.105559  0.487865 -0.695834  0.619141 -0.000000 -0.000000  0.000000  0.000000 -0.000001
                                -0.000000  0.000005  0.000000 -0.000015 -0.000000  0.000057 -0.000000 -0.000148  0.000000 -0.000394
                                 0.000000 -0.001531  0.000000 -0.002815  0.000000 -0.005006  0.000000  0.009230  0.000000 -0.010009
                                 0.000000 -0.000009 -0.000000  0.000047  0.000000 -0.000381 -0.000000 -0.004898 -0.000000 -0.003575
                                -0.000000  0.000926  0.000000 -0.000005 -0.000000  0.000000  0.000039  0.000000 -0.000000 -0.000223
                                -0.000000  0.000000  0.000079  0.000688  0.002190  0.003536  0.001427 -0.029028  0.000030 -0.000021
                                -0.000103 -0.001452  0.001244 -0.000026  0.000054  0.000000  0.000903 -0.000000

   4.3   0     0.0531   -2.1165 -0.000000  0.000000 -0.000000  0.000000 -0.000000  0.000000 -0.000001  0.000004 -0.000013  0.000042
                                -0.000121  0.000329 -0.000870  0.002426 -0.007592  0.045274 -0.081860  0.057795 -0.012980  0.072817
                                -0.474147  0.761939 -0.695282 69.896986  0.514394 -0.912135-69.426150  0.000000 -0.000000  0.000003
                                -0.000011  0.000038 -0.000112  0.000295 -0.000702  0.001575 -0.003685  0.005664  0.020027 -0.072677
                                -0.106685 -0.222387  0.573407 -1.272153  0.809672 -0.000000 -0.000000  0.000000  0.000000 -0.000001
                                -0.000000  0.000004  0.000000 -0.000006 -0.000000 -0.000052  0.000000  0.000166 -0.000000  0.001887
                                -0.000000  0.002621 -0.000000  0.010610 -0.000000  0.020438 -0.000000  0.045609  0.000000  0.184033
                                -0.000001  0.000011  0.000000 -0.000061 -0.000000  0.000508  0.000000  0.006249  0.000000  0.006393
                                -0.000000  0.055524  0.000000  0.000009  0.000000 -0.000000 -0.000072 -0.000000 -0.000000  0.000392
                                 0.000000 -0.000000  0.000808  0.006663  0.026702  0.036123  0.054280 -0.249493  0.001313 -0.000201
                                 0.000296  0.000359  0.004243 -0.000001 -0.000031  0.000000 -0.000816  0.000000

                                   1 3d2-    1 3d2-    1 3d2-    1 3d2-    1 3d2-    1 3d2-    1 3d2-    1 3d2-    1 3d2-    1 3d2-
                                   1 3d2-    1 3d2-    1 3d2-    1 3d2-    1 3d2-    1 3d2-    1 3d2-    1 3d2-    1 4f2-    1 4f2-
                                   1 4f2-    1 4f2-    1 4f2-    1 4f2-    1 4f2-    1 4f2-    1 4f2-    1 4f2-    1 4f2-    1 4f2-
                                   1 4f2-    1 5g2-    1 5g4-    1 5g2-    1 5g4-    1 5g2-    1 5g4-    1 5g2-    1 5g4-    1 5g2-
                                   1 5g4-    1 5g2-    1 5g4-    1 6h4-    1 6h2-    1 6h4-    1 6h2-    1 6h4-    1 6h2-    2 3d2-
                                   2 3d2-    2 3d2-    2 3d2-    2 4f2-    2 4f2-

   1.4   0     0.0308   -3.5555  0.000000 -0.000001  0.000008 -0.000032  0.000111 -0.000329  0.000859 -0.002015  0.004374 -0.009655
                                 0.015421  0.033160 -0.130444 -0.263118 -0.206143 -1.216525  2.122804 -1.673962  0.000000 -0.000001
                                 0.000003 -0.000010  0.000033 -0.000159  0.000416  0.001843  0.003869  0.010739  0.061788 -0.019305
                                 0.154429  0.000013  0.000000 -0.000071 -0.000000  0.000589  0.000000  0.007852  0.000000  0.008640
                                 0.000000  0.002384 -0.000000  0.000000  0.000002 -0.000000 -0.000026  0.000000  0.000212 -0.000430
                                -0.002063 -0.002707 -0.000039  0.000096  0.000983

   2.4   0     0.0798   -2.6028  0.000000 -0.000001  0.000003 -0.000012  0.000041 -0.000122  0.000325 -0.000797  0.001903 -0.004925
                                 0.007101  0.042442 -0.144794 -0.169438 -0.615420  3.573509 -7.395500  4.659726 -0.000001  0.000006
                                -0.000024  0.000081 -0.000221  0.000480 -0.001027  0.004174 -0.003891  0.026715 -0.051015  0.225097
                                -0.389067  0.000011  0.000000 -0.000062 -0.000000  0.000532  0.000000  0.007728  0.000000  0.004206
                                 0.000000  0.011269  0.000000  0.000000  0.000004 -0.000000 -0.000042  0.000000  0.000272 -0.000395
                                -0.000826 -0.003784 -0.000017  0.000331 -0.000510

 HOMO      5.1    -0.280248 =      -7.6259eV
 LUMO      3.3    -0.015658 =      -0.4261eV
 LUMO-HOMO         0.264590 =       7.1999eV

 No convergence



 **********************************************************************************************************************************
 DATASETS  * FILE   NREC   LENGTH (MB)   RECORD NAMES
              1      19       22.47       500      610      700      900      950      970     1000      129      960     1100
                                          VAR    BASINP    GEOM    SYMINP    ZMAT    AOBASIS   BASIS     P2S    ABASIS      S
                                         1400     1410     1420     1200     1210     1080     1600     1650     1700
                                           T        V       ECP      H0       H01     AOSYM     SMH    MOLCAS    OPER

              2       5        9.36       700     1000      520     2202     3202
                                         GEOM     BASIS   MCVARS     RHF      RHF

 PROGRAMS   *        TOTAL       RHF       RHF       INT
 CPU TIMES  *       200.82    107.29      8.59     84.72
 REAL TIME  *       222.03 SEC
 DISK USED  *         9.32 GB
 SF USED    *         0.24 MB
 GA USED    *         0.00 MB       (max)       0.00 MB       (current)
 **********************************************************************************************************************************
   -->
   <time start="11:03:16" end="11:05:10" cpu="107.3" system="6.58" real="114.32"/>
   <storage units="megabyte" memory="8001.84" sf="0.24" df="445.09" eaf="8876.51" ga="0.0"/>
  </jobstep><!--
 SETTING SCF            =       -55.05672646  AU
 SETTING _CC_NORM_MAX   =         2.00000000
  --><jobstep command="RCCSD(T)" commandset="CCSD">
   <!--


 PROGRAM * CCSD (Restricted open-shell coupled cluster)     Authors: C. Hampel, H.-J. Werner, 1991, M. Deegan, P.J. Knowles, 1992


 Convergence thresholds:  THRVAR = 1.00D-08  THRDEN = 1.00D-06

 CCSD(T)     terms to be evaluated (factor= 1.000)


 Number of closed-shell orbitals:   8 (   4   2   2   0 )
 Number of active  orbitals:        1 (   1   0   0   0 )
 Number of external orbitals:     442 ( 175 106 106  55 )

 Memory could be reduced to 357.68 Mwords without degradation in triples

 Number of N-1 electron functions:              17
 Number of N-2 electron functions:             136
 Number of singly external CSFs:              2432
 Number of doubly external CSFs:           5288016
 Total number of CSFs:                     5290448

 Molecular orbitals read from record     3202.2  Type=RHF/CANONICAL (state 1.1)

 ?Error: RHF not converged. This error exit can be avoided using the IGNORE_ERROR option on the ORBITAL directive
   --><error/><!--
  --></jobstep><!--
  -->
  <input>
  <!--
 --></job><!--
--></molpro>
