
 Primary working directories    : /global/cscratch1/sd/haihan
 Secondary working directories  : /global/cscratch1/sd/haihan
 Wavefunction directory         : /global/homes/h/haihan/Research/ECP/f_group_element_ecps/Y/Molpro/molecule/YO/AE/wfu/
 Main file repository           : /global/cscratch1/sd/haihan/

 SHA1      : 19cd028119e0e09f93f0674bd8af7968d9b3eff6
 NAME      : 2015.1.36
 ARCHNAME  : linux/x86_64
 FC        : /opt/cray/pe/craype/2.5.14/bin/ftn
 BLASLIB   : -L/opt/intel/compilers_and_libraries_2018.1.163/linux/mkl/lib/intel64 -Wl,-_start-group -lmkl_intel_ilp64 -lmkl_intel_thread -lmkl_core -Wl,-_end-group -liomp5
 id        : lbl

 Nodes     nprocs
 nid01879    11
 Number of processes for MPI-2 version of Molpro:   nprocs(total)=   12   nprocs(compute)=   11   nprocs(helper)=    1

 Using customized tuning parameters: mindgm=7; mindgv=16; mindgc=1; mindgr=1; noblas=0; minvec=7
 default implementation of scratch files=sf  

 ***,Calculation for all-electron YH molecule, SCF and CCSD(T)
 memory,1,g
 gthresh,twoint=1.0E-12
 gthresh,throvl=1.0E-12
 
 set,dkroll=1,dkho=10,dkhp=4
 basis={
 Including file /global/u2/h/haihan/Research/ECP/f_group_element_ecps/Y/Molpro/molecule/YO/AE/r_2.00/../generate/Y-aug-cc-pwCVTZ.basis
 Including file /global/u2/h/haihan/Research/ECP/f_group_element_ecps/Y/Molpro/molecule/YO/AE/r_2.00/../generate/O-aug-cc-pwCVTZ.basis
 }
 
 Y_ccsd=-3384.082171
 O_ccsd=-75.09173839
 
                                                                                 !These are the wf cards parameters
 ne = 47
 symm = 1
 ss= 1
 
                                                                                 !There are irrep cards paramters
 A1=13
 B1=5
 B2=5
 A2=1
 
 
 geometry={
     2
     YH molecule
     Y 0.0 0.0 0.0
     O 0.0 0.0 2.00
 }
 {rhf,nitord=20;
  maxit,200;
  wf,ne,symm,ss
  occ,A1,B1,B2,A2
  closed,A1-1,B1,B2,A2
  print,orbitals=2
 }
 scf=energy
 _CC_NORM_MAX=2.0
 {rccsd(t);maxit,100;core}
 ccsd=energy
 bind=ccsd-Y_ccsd-O_ccsd
 
 
 table,2.00,scf,ccsd,bind
 save
 type,csv
 

 Variables initialized (889), CPU time= 0.01 sec
 Commands  initialized (702), CPU time= 0.01 sec, 572 directives.
 Default parameters read. Elapsed time= 0.31 sec

 Checking input...
 Passed
1


                                         ***  PROGRAM SYSTEM MOLPRO  ***
                                       Copyright, TTI GmbH Stuttgart, 2015
                                    Version 2015.1 linked Dec 29 2018 15:55:43


 **********************************************************************************************************************************
 LABEL *   Calculation for all-electron YH molecule, SCF and CCSD(T)                     
  64 bit mpp version                                                                     DATE: 03-Sep-22          TIME: 15:23:36  
 **********************************************************************************************************************************

 SHA1:             19cd028119e0e09f93f0674bd8af7968d9b3eff6
 **********************************************************************************************************************************

 THRESHOLDS:

 ZERO    =  1.00D-12  ONEINT  =  1.00D-12  TWOINT  =  1.00D-12  PREFAC  =  1.00D-14  LOCALI  =  1.00D-09  EORDER  =  1.00D-04
 ENERGY  =  0.00D+00  ETEST   =  0.00D+00  EDENS   =  0.00D+00  THRDEDEF=  1.00D-06  GRADIENT=  1.00D-02  STEP    =  1.00D-03
 ORBITAL =  1.00D-05  CIVEC   =  1.00D-05  COEFF   =  1.00D-04  PRINTCI =  5.00D-02  PUNCHCI =  9.90D+01  OPTGRAD =  3.00D-04
 OPTENERG=  1.00D-06  OPTSTEP =  3.00D-04  THRGRAD =  1.00D-10  COMPRESS=  1.00D-11  VARMIN  =  1.00D-07  VARMAX  =  1.00D-03
 THRDOUB =  0.00D+00  THRDIV  =  1.00D-05  THRRED  =  1.00D-07  THRPSP  =  1.00D+00  THRDC   =  1.00D-10  THRCS   =  1.00D-10
 THRNRM  =  1.00D-08  THREQ   =  0.00D+00  THRDE   =  1.00D+00  THRREF  =  1.00D-05  SPARFAC =  1.00D+00  THRDLP  =  1.00D-07
 THRDIA  =  1.00D-10  THRDLS  =  1.00D-07  THRGPS  =  0.00D+00  THRKEX  =  0.00D+00  THRDIS  =  2.00D-01  THRVAR  =  1.00D-10
 THRLOC  =  1.00D-06  THRGAP  =  1.00D-06  THRLOCT = -1.00D+00  THRGAPT = -1.00D+00  THRORB  =  1.00D-06  THRMLTP =  0.00D+00
 THRCPQCI=  1.00D-10  KEXTA   =  0.00D+00  THRCOARS=  0.00D+00  SYMTOL  =  1.00D-06  GRADTOL =  1.00D-06  THROVL  =  1.00D-08
 THRORTH =  1.00D-08  GRID    =  1.00D-06  GRIDMAX =  1.00D-03  DTMAX   =  0.00D+00  THROCCDE=  1.00D-01  THROCCDE=  1.00D-01



 THRESHOLDS:

 ZERO    =  1.00D-12  ONEINT  =  1.00D-12  TWOINT  =  1.00D-12  PREFAC  =  1.00D-14  LOCALI  =  1.00D-09  EORDER  =  1.00D-04
 ENERGY  =  0.00D+00  ETEST   =  0.00D+00  EDENS   =  0.00D+00  THRDEDEF=  1.00D-06  GRADIENT=  1.00D-02  STEP    =  1.00D-03
 ORBITAL =  1.00D-05  CIVEC   =  1.00D-05  COEFF   =  1.00D-04  PRINTCI =  5.00D-02  PUNCHCI =  9.90D+01  OPTGRAD =  3.00D-04
 OPTENERG=  1.00D-06  OPTSTEP =  3.00D-04  THRGRAD =  1.00D-10  COMPRESS=  1.00D-11  VARMIN  =  1.00D-07  VARMAX  =  1.00D-03
 THRDOUB =  0.00D+00  THRDIV  =  1.00D-05  THRRED  =  1.00D-07  THRPSP  =  1.00D+00  THRDC   =  1.00D-10  THRCS   =  1.00D-10
 THRNRM  =  1.00D-08  THREQ   =  0.00D+00  THRDE   =  1.00D+00  THRREF  =  1.00D-05  SPARFAC =  1.00D+00  THRDLP  =  1.00D-07
 THRDIA  =  1.00D-10  THRDLS  =  1.00D-07  THRGPS  =  0.00D+00  THRKEX  =  0.00D+00  THRDIS  =  2.00D-01  THRVAR  =  1.00D-10
 THRLOC  =  1.00D-06  THRGAP  =  1.00D-06  THRLOCT = -1.00D+00  THRGAPT = -1.00D+00  THRORB  =  1.00D-06  THRMLTP =  0.00D+00
 THRCPQCI=  1.00D-10  KEXTA   =  0.00D+00  THRCOARS=  0.00D+00  SYMTOL  =  1.00D-06  GRADTOL =  1.00D-06  THROVL  =  1.00D-12
 THRORTH =  1.00D-08  GRID    =  1.00D-06  GRIDMAX =  1.00D-03  DTMAX   =  0.00D+00  THROCCDE=  1.00D-01  THROCCDE=  1.00D-01


 SETTING DKROLL         =         1.00000000                                  
 SETTING DKHO           =        10.00000000                                  
 SETTING DKHP           =         4.00000000                                  

 Variable memory set to 1000000000 words,  buffer space   230000 words

 SETTING BASIS          =    USERDEF
 SETTING Y_CCSD         =     -3384.08217100                                  
 SETTING O_CCSD         =       -75.09173839                                  
 SETTING NE             =        47.00000000                                  
 SETTING SYMM           =         1.00000000                                  
 SETTING SS             =         1.00000000                                  
 SETTING A1             =        13.00000000                                  
 SETTING B1             =         5.00000000                                  
 SETTING B2             =         5.00000000                                  
 SETTING A2             =         1.00000000                                  

Geometry recognized as XYZ



 Recomputing integrals since basis changed


 Using spherical harmonics



 PROGRAM * SEWARD (Integral evaluation for generally contracted gaussian basis sets)     Author: Roland Lindh, 1990

 Geometry written to block  1 of record 700


 Point group  C2v 



 ATOMIC COORDINATES

 NR  ATOM    CHARGE       X              Y              Z

   1  Y      39.00    0.000000000    0.000000000    0.000000000
   2  O       8.00    0.000000000    0.000000000    3.779452249

 Bond lengths in Bohr (Angstrom)

 1-2  3.779452249
     ( 2.000000000)

 NUCLEAR CHARGE:                   47
 NUMBER OF PRIMITIVE AOS:         395
 NUMBER OF SYMMETRY AOS:          335
 NUMBER OF CONTRACTIONS:          335   ( 147A1  +  76B1  +  76B2  +  36A2  )
 NUMBER OF CORE ORBITALS:          19   (  10A1  +   4B1  +   4B2  +   1A2  )
 NUMBER OF VALENCE ORBITALS:       10   (   5A1  +   2B1  +   2B2  +   1A2  )


 NUCLEAR REPULSION ENERGY   82.55164490

 One-electron integrals computed with SEWARD

 10nd-order Douglas-Kroll-Hess method activated. McWeeny DKH parametrization is used.

 Computing Douglas-Kroll / X2C integrals

 AO integral compression algorithm  1   Integral accuracy      1.0D-12

     1110.442 MB (compressed) written to integral file ( 28.1%)

     Node minimum: 61.866 MB, node maximum: 192.414 MB


 NUMBER OF SORTED TWO-ELECTRON INTEGRALS:   37228718.     BUFFER LENGTH:  32768
 NUMBER OF SEGMENTS:   2  SEGMENT LENGTH:   31966706      RECORD LENGTH: 524288

 Memory used in sort:      32.52 MW

 SORT1 READ   494494318. AND WROTE    14923236. INTEGRALS IN     44 RECORDS. CPU TIME:    11.91 SEC, REAL TIME:    15.69 SEC
 SORT2 READ   162592717. AND WROTE   409742306. INTEGRALS IN   5104 RECORDS. CPU TIME:     2.13 SEC, REAL TIME:     5.13 SEC

 Node minimum:    37201338.  Node maximum:    37282548. integrals

 OPERATOR DM      FOR CENTER  0  COORDINATES:    0.000000    0.000000    0.000000

 EXTRA SYMMETRY OF AOS IN SYMMETRY 1:   1 1 1 1 1 1 1 1 1 1   1 1 1 1 1 1 1 1 1 1   1 1 1 1 1 1 1 1 1 1   1 1 1 1 1 1 1 1 1 1
                                        1 1 1 1 1 1 1 1 1 1   1 1 1 1 1 1 1 1 2 1   2 1 2 1 2 1 2 1 2 1   2 1 2 1 2 1 2 1 2 1
                                        2 1 2 1 2 1 2 1 2 1   2 1 2 1 2 1 2 1 2 1   2 1 2 1 2 1 3 2 1 3   2 1 3 2 1 1 1 1 1 1
                                        1 1 1 1 1 1 1 1 1 1   1 1 1 1 1 1 2 1 2 1   2 1 2 1 2 1 2
 EXTRA SYMMETRY OF AOS IN SYMMETRY 2:   1 1 1 1 1 1 1 1 1 1   1 1 1 1 1 1 1 1 1 1   1 1 1 1 1 1 1 1 1 1   1 1 1 1 1 1 1 1 1 1
                                        1 1 1 1 1 1 1 2 1 2   1 2 1 2 1 2 1 2 1 2   1 1 1 1 1 1 1 1 1 1   1 1 1 2 1 2
 EXTRA SYMMETRY OF AOS IN SYMMETRY 3:   1 1 1 1 1 1 1 1 1 1   1 1 1 1 1 1 1 1 1 1   1 1 1 1 1 1 1 1 1 1   1 1 1 1 1 1 1 1 1 1
                                        1 1 1 1 1 1 1 2 1 2   1 2 1 2 1 2 1 2 1 2   1 1 1 1 1 1 1 1 1 1   1 1 1 2 1 2
 EXTRA SYMMETRY OF AOS IN SYMMETRY 4:   1 1 1 1 1 1 1 1 1 1   1 1 1 1 1 1 1 1 1 1   1 1 1 1 1 2 1 2 1 2   1 1 1 1 1 1

 Eigenvalues of metric

         1 0.104E-06 0.182E-06 0.131E-05 0.261E-05 0.388E-05 0.139E-04 0.153E-04 0.168E-04
         2 0.189E-06 0.267E-05 0.145E-04 0.166E-04 0.684E-04 0.144E-03 0.160E-03 0.791E-03
         3 0.189E-06 0.267E-05 0.145E-04 0.166E-04 0.684E-04 0.144E-03 0.160E-03 0.791E-03
         4 0.168E-04 0.686E-04 0.167E-03 0.105E-02 0.381E-02 0.797E-02 0.224E-01 0.451E-01


 **********************************************************************************************************************************
 DATASETS  * FILE   NREC   LENGTH (MB)   RECORD NAMES
              1      22       22.27       500      610      700      900      950      970     1000      129      960     1700   
                                          VAR    BASINP    GEOM    SYMINP    ZMAT    AOBASIS   BASIS     P2S    ABASIS    OPER   
                                         1101     1401     1411     1412     1650     1100     1400     1410     1200     1210   
                                          SR      EKINR    POTR     PVPR    MOLCAS      S      EKIN      POT      H0       H01  
                                         1080     1600   
                                         AOSYM     SMH  

 PROGRAMS   *        TOTAL       INT
 CPU TIMES  *        63.15     62.40
 REAL TIME  *        73.10 SEC
 DISK USED  *         3.05 GB      
 GA USED    *         0.00 MB       (max)       0.00 MB       (current)
 **********************************************************************************************************************************


 PROGRAM * RHF-SCF (OPEN SHELL)       Authors: W. Meyer, H.-J. Werner


 NUMBER OF ELECTRONS:      24+   23-    SPACE SYMMETRY=1    SPIN SYMMETRY: Doublet 
 CONVERGENCE THRESHOLDS:    1.00E-05 (Density)    1.00E-07 (Energy)
 MAX. NUMBER OF ITERATIONS:      200
 INTERPOLATION TYPE:            DIIS
 INTERPOLATION STEPS:              2 (START)      1 (STEP)
 LEVEL SHIFTS:                 -0.60 (CLOSED) -0.30 (OPEN) 

 Number of closed-shell orbitals:   23 (  12   5   5   1 )
 Number of open-shell orbitals:      1 (   1   0   0   0 )


 Orbital guess generated from atomic densities. Full valence occupancy:   15   6   6   2

 Molecular orbital dump at record        2100.2

 ITERATION    DDIFF          GRAD             ENERGY        2-EL.EN.            DIPOLE MOMENTS         DIIS   ORB.
    1      0.000D+00      0.000D+00     -3457.58053931   2796.806907    0.00000    0.00000   -6.22925    0    start
    2      0.000D+00      0.114D-01     -3457.90835383   2805.727498    0.00000    0.00000   -3.56067    1    diag,B
    3      0.126D-01      0.553D-02     -3457.94684834   2805.309347    0.00000    0.00000   -3.55778    2    diag,B
    4      0.225D-02      0.111D-02     -3457.95492590   2806.775121    0.00000    0.00000   -3.21584    3    diag,B
    5      0.159D-02      0.487D-03     -3457.95773039   2806.961169    0.00000    0.00000   -3.06061    4    diag,B
    6      0.128D-02      0.255D-03     -3457.95914782   2807.240839    0.00000    0.00000   -2.97227    5    diag,B
    7      0.997D-03      0.144D-03     -3457.95987502   2807.335504    0.00000    0.00000   -2.90703    6    diag,B
    8      0.642D-03      0.814D-04     -3457.96013899   2807.327240    0.00000    0.00000   -2.87553    7    diag,B
    9      0.345D-03      0.439D-04     -3457.96023036   2807.282780    0.00000    0.00000   -2.84541    8    diag,B
   10      0.217D-03      0.253D-04     -3457.96026708   2807.229584    0.00000    0.00000   -2.82029    9    orth
   11      0.144D-03      0.134D-04     -3457.96027797   2807.192665    0.00000    0.00000   -2.79918    9    diag,B
   12      0.750D-04      0.607D-05     -3457.96027968   2807.176972    0.00000    0.00000   -2.78978    9    diag,B
   13      0.358D-04      0.272D-05     -3457.96027996   2807.172043    0.00000    0.00000   -2.78539    9    diag,B
   14      0.206D-04      0.118D-05     -3457.96027999   2807.171022    0.00000    0.00000   -2.78420    9    diag,B
   15      0.828D-05      0.568D-06     -3457.96027999   2807.170937    0.00000    0.00000   -2.78410    0    orth

 Final alpha occupancy:  13   5   5   1
 Final beta  occupancy:  12   5   5   1

 !RHF STATE 1.1 Energy              -3457.960279992708
 Nuclear energy                        82.55164490
 One-electron energy                -4944.09739329
 Two-electron energy                 1403.58546840
 Virial quotient                       -0.91720008
 !RHF STATE 1.1 Dipole moment           0.00000000     0.00000000    -2.78409607
 Dipole moment /Debye                   0.00000000     0.00000000    -7.07600290

 ELECTRON ORBITALS
 =================


   Orb  Occ    Energy  Couls-En    Coefficients

                                   1 1s      1 1s      1 1s      1 1s      1 1s      1 1s      1 1s      1 1s      1 1s      1 1s   
                                   1 1s      1 1s      1 1s      1 1s      1 1s      1 1s      1 1s      1 1s      1 1s      1 1s   
                                   1 1s      1 1s      1 1s      1 1s      1 1s      1 1s      1 1s      1 1s      1 1s      1 1s   
                                   1 1s      1 2pz     1 2pz     1 2pz     1 2pz     1 2pz     1 2pz     1 2pz     1 2pz     1 2pz  
                                   1 2pz     1 2pz     1 2pz     1 2pz     1 2pz     1 2pz     1 2pz     1 2pz     1 2pz     1 2pz  
                                   1 2pz     1 2pz     1 2pz     1 2pz     1 2pz     1 2pz     1 2pz     1 3d0     1 3d2+    1 3d0  
                                   1 3d2+    1 3d0     1 3d2+    1 3d0     1 3d2+    1 3d0     1 3d2+    1 3d0     1 3d2+    1 3d0  
                                   1 3d2+    1 3d0     1 3d2+    1 3d0     1 3d2+    1 3d0     1 3d2+    1 3d0     1 3d2+    1 3d0  
                                   1 3d2+    1 3d0     1 3d2+    1 3d0     1 3d2+    1 3d0     1 3d2+    1 3d0     1 3d2+    1 3d0  
                                   1 3d2+    1 3d0     1 3d2+    1 3d0     1 3d2+    1 3d0     1 3d2+    1 4f0     1 4f2+    1 4f0  
                                   1 4f2+    1 4f0     1 4f2+    1 4f0     1 4f2+    1 5g0     1 5g4+    1 5g2+    1 5g0     1 5g4+ 
                                   1 5g2+    1 5g0     1 5g4+    1 5g2+    2 1s      2 1s      2 1s      2 1s      2 1s      2 1s   
                                   2 1s      2 1s      2 1s      2 1s      2 1s      2 1s      2 1s      2 2pz     2 2pz     2 2pz  
                                   2 2pz     2 2pz     2 2pz     2 2pz     2 2pz     2 3d0     2 3d2+    2 3d0     2 3d2+    2 3d0  
                                   2 3d2+    2 3d0     2 3d2+    2 4f0     2 4f2+    2 4f0     2 4f2+ 

   1.1   2  -629.6913-1408.1790  0.000041  0.000109  0.000302  0.000698  0.001520  0.003159  0.006523  0.013590  0.028843  0.061543
                                 0.126272  0.229723  0.321095  0.274181 -0.006118  0.101217  0.004784  0.003368 -0.005690  0.015028
                                -0.013898  0.011381 -0.010699  0.003834 -0.002330  0.000704 -0.000071  0.000014 -0.000019  0.000005
                                -0.000001 -0.000000 -0.000000 -0.000000 -0.000000 -0.000000 -0.000000 -0.000000 -0.000001  0.000000
                                 0.000001  0.000001 -0.000003  0.000005 -0.000004  0.000014 -0.000031  0.000046 -0.000048  0.000037
                                -0.000021  0.000009 -0.000010  0.000001 -0.000004  0.000001 -0.000000 -0.000000 -0.000000 -0.000000
                                 0.000000 -0.000000 -0.000000  0.000000  0.000000 -0.000000 -0.000000  0.000000  0.000000 -0.000000
                                -0.000000  0.000000  0.000000 -0.000000 -0.000000  0.000000  0.000000  0.000000 -0.000000 -0.000001
                                 0.000000  0.000003 -0.000000 -0.000004  0.000000 -0.000003 -0.000000  0.000002  0.000000  0.000001
                                -0.000000 -0.000002  0.000000  0.000001 -0.000000 -0.000000  0.000000  0.000000 -0.000000 -0.000001
                                -0.000000  0.000000 -0.000000  0.000000 -0.000000 -0.000000 -0.000000  0.000000 -0.000000  0.000000
                                -0.000000  0.000000 -0.000000  0.000000 -0.000000  0.000000 -0.000000  0.000000 -0.000000  0.000001
                                 0.000002  0.000001 -0.000002  0.000002  0.000009 -0.000002 -0.000002  0.000000  0.000000 -0.000000
                                 0.000000 -0.000005 -0.000004 -0.000000 -0.000000 -0.000000  0.000000  0.000001  0.000000  0.000003
                                -0.000000  0.000000 -0.000000  0.000000  0.000000 -0.000001 -0.000000

   2.1   2   -88.9027 -283.8914 -0.000013 -0.000036 -0.000099 -0.000230 -0.000501 -0.001045 -0.002170 -0.004562 -0.009831 -0.021569
                                -0.046648 -0.094076 -0.160101 -0.184510  0.004489 -0.024628  0.372678  0.539891  0.216534  0.030660
                                -0.009908  0.040280 -0.038546  0.015560 -0.009945  0.003032 -0.000359  0.000063 -0.000093  0.000025
                                -0.000005  0.000000  0.000000  0.000000  0.000000  0.000001  0.000005  0.000015  0.000042  0.000092
                                 0.000150  0.000194  0.000133 -0.000004  0.000012  0.000044 -0.000103  0.000168 -0.000181  0.000148
                                -0.000085  0.000043 -0.000050  0.000003 -0.000020  0.000005 -0.000000  0.000000 -0.000000  0.000000
                                -0.000000  0.000000  0.000000 -0.000002 -0.000000 -0.000004  0.000000 -0.000001 -0.000000 -0.000001
                                 0.000000  0.000001 -0.000000 -0.000000  0.000000 -0.000001 -0.000000 -0.000000  0.000000 -0.000003
                                -0.000000  0.000016  0.000000 -0.000021 -0.000000 -0.000012  0.000000  0.000006 -0.000000  0.000006
                                 0.000000 -0.000011 -0.000000  0.000004 -0.000000 -0.000001  0.000000  0.000003  0.000000 -0.000007
                                -0.000000  0.000002  0.000000  0.000001 -0.000000 -0.000001 -0.000000 -0.000000 -0.000001 -0.000000
                                 0.000000  0.000002 -0.000000 -0.000000 -0.000000  0.000000 -0.000000  0.000000 -0.000000  0.000003
                                 0.000008  0.000005 -0.000009  0.000012  0.000046 -0.000008 -0.000005  0.000000  0.000001 -0.000000
                                 0.000001 -0.000028 -0.000019 -0.000001 -0.000000 -0.000000  0.000000  0.000003 -0.000000  0.000015
                                 0.000000  0.000000  0.000000  0.000001 -0.000000 -0.000004  0.000000

   3.1   2   -78.9498 -270.5058  0.000000  0.000000  0.000000  0.000000  0.000000  0.000001  0.000001  0.000002  0.000005  0.000012
                                 0.000025  0.000051  0.000088  0.000101 -0.000000  0.000007 -0.000218 -0.000264 -0.000110 -0.000019
                                -0.000028  0.000008 -0.000017  0.000017  0.000000  0.000002  0.000002 -0.000002  0.000008 -0.000004
                                 0.000001  0.000014  0.000053  0.000206  0.000769  0.002805  0.009658  0.030133  0.082173  0.183300
                                 0.308910  0.340241  0.185111  0.005641  0.036901  0.012856 -0.016571  0.018861 -0.014372  0.007435
                                -0.002863  0.000385 -0.000142  0.000055 -0.000015  0.000004 -0.000001  0.000000 -0.000000  0.000000
                                 0.000000  0.000002  0.000000  0.000009  0.000000  0.000037  0.000000  0.000037  0.000000 -0.000008
                                 0.000000  0.000003  0.000000  0.000001  0.000000  0.000002  0.000000  0.000001  0.000000  0.000007
                                 0.000000 -0.000029 -0.000000  0.000042  0.000000 -0.000044 -0.000000  0.000036  0.000000 -0.000012
                                -0.000000  0.000003  0.000000 -0.000001 -0.000000  0.000000  0.000000 -0.000002  0.000000  0.000001
                                -0.000000  0.000002 -0.000000 -0.000001 -0.000000  0.000000  0.000000 -0.000000  0.000001  0.000000
                                -0.000000  0.000000 -0.000000 -0.000000  0.000000 -0.000000  0.000000 -0.000000  0.000000 -0.000002
                                -0.000004 -0.000001  0.000003 -0.000011  0.000002  0.000003  0.000003  0.000000  0.000001 -0.000000
                                 0.000002  0.000003  0.000001 -0.000001 -0.000000  0.000000 -0.000000 -0.000003  0.000000  0.000001
                                 0.000000 -0.000000  0.000000  0.000001  0.000000  0.000001 -0.000000

   4.1   2   -20.4556  -62.7252  0.000000  0.000000  0.000000  0.000000  0.000000  0.000000  0.000000  0.000000 -0.000000  0.000000
                                -0.000000  0.000002 -0.000004  0.000027 -0.000109  0.000125 -0.000099  0.000201 -0.000900  0.004324
                                -0.005165  0.009792 -0.011400  0.007017 -0.005865  0.002362  0.000679 -0.006075 -0.001317 -0.000507
                                 0.000128 -0.000000  0.000000 -0.000000  0.000000 -0.000000  0.000000 -0.000000  0.000001 -0.000005
                                 0.000014 -0.000057  0.000629 -0.001003  0.000894 -0.002978  0.006199 -0.008524  0.007730 -0.004635
                                 0.002012 -0.000203  0.000082 -0.005520 -0.002082  0.000018  0.000009 -0.000000  0.000000 -0.000000
                                -0.000000 -0.000000 -0.000000 -0.000001 -0.000000  0.000000 -0.000000 -0.000029 -0.000000  0.000036
                                 0.000000 -0.000029 -0.000000  0.000034 -0.000000 -0.000114 -0.000000  0.000824 -0.000000 -0.002276
                                 0.000000  0.004016  0.000000 -0.004191  0.000000  0.002668 -0.000000 -0.005484  0.000000  0.001593
                                 0.000000 -0.001738  0.000000  0.000105 -0.000000 -0.000018  0.000000  0.000050  0.000000 -0.000428
                                 0.000000 -0.001572 -0.000000 -0.000089 -0.000000  0.000002  0.000000  0.000000 -0.000177 -0.000000
                                 0.000000 -0.000407  0.000000 -0.000000  0.000743  0.004238  0.020742  0.079672  0.231896  0.425130
                                 0.335175  0.041671 -0.011576  0.011291  0.003881  0.009657  0.013431 -0.000041 -0.000085 -0.000315
                                 0.000548 -0.004723 -0.000532 -0.000279 -0.000009  0.000009  0.000000  0.000275 -0.000000  0.001218
                                -0.000000 -0.000016 -0.000000  0.000051  0.000000 -0.000308 -0.000000

   5.1   2   -15.3473  -95.8930  0.000006  0.000015  0.000041  0.000095  0.000207  0.000433  0.000898  0.001891  0.004084  0.008995
                                 0.019593  0.040097  0.070210  0.085341 -0.003477  0.012420 -0.239512 -0.483775 -0.194014 -0.035079
                                 0.518911  0.749896 -0.089607  0.235151 -0.067344  0.026622 -0.001553  0.000339 -0.000662  0.000161
                                -0.000031 -0.000000 -0.000000 -0.000000 -0.000001 -0.000003 -0.000011 -0.000033 -0.000094 -0.000215
                                -0.000379 -0.000448 -0.000125  0.000103  0.000759  0.001416 -0.000471  0.001694 -0.000971  0.000906
                                -0.000645  0.000264 -0.000412 -0.000042 -0.000173  0.000036 -0.000003 -0.000000  0.000000 -0.000001
                                 0.000000 -0.000004  0.000000 -0.000013  0.000000 -0.000038  0.000000 -0.000088 -0.000000  0.000002
                                 0.000000 -0.000132  0.000000 -0.000129  0.000000 -0.000118  0.000000 -0.000070  0.000000 -0.000001
                                -0.000000  0.000165  0.000000 -0.000237 -0.000000 -0.000038  0.000000 -0.000048 -0.000000  0.000099
                                 0.000000 -0.000116 -0.000000  0.000036  0.000000 -0.000007 -0.000000  0.000022  0.000000 -0.000090
                                -0.000000  0.000003  0.000000  0.000010  0.000000 -0.000006 -0.000000  0.000000 -0.000013 -0.000000
                                 0.000000  0.000014  0.000000 -0.000000  0.000000  0.000000 -0.000000  0.000000 -0.000001  0.000012
                                 0.000040  0.000031 -0.000095  0.000168  0.000408 -0.000042 -0.000023 -0.000000 -0.000005  0.000006
                                -0.000000 -0.000261 -0.000158  0.000004  0.000000 -0.000004 -0.000000  0.000037  0.000000  0.000124
                                -0.000000  0.000001  0.000000  0.000003  0.000000 -0.000034 -0.000000

   6.1   2   -12.0152  -89.6398 -0.000000 -0.000000 -0.000000 -0.000000 -0.000001 -0.000001 -0.000002 -0.000005 -0.000010 -0.000022
                                -0.000048 -0.000099 -0.000173 -0.000217  0.000028 -0.000050  0.000628  0.001127  0.000592 -0.000506
                                -0.000395 -0.004578  0.003506 -0.002500  0.002205 -0.001443  0.000081  0.000417  0.000121  0.000005
                                -0.000008 -0.000006 -0.000022 -0.000087 -0.000327 -0.001196 -0.004147 -0.013100 -0.036665 -0.084997
                                -0.151240 -0.169318 -0.004809 -0.000220  0.297170  0.469881 -0.001114  0.314767 -0.030295  0.076559
                                -0.010418  0.003315 -0.000744  0.000628  0.000025  0.000019 -0.000010  0.000000 -0.000000  0.000001
                                -0.000000  0.000004 -0.000000  0.000013 -0.000000  0.000029 -0.000000  0.000035 -0.000000  0.000097
                                 0.000000  0.000201 -0.000000  0.000422 -0.000000  0.000391 -0.000000 -0.000222 -0.000000  0.000315
                                -0.000000 -0.000692 -0.000000  0.000746 -0.000000 -0.000469 -0.000000  0.000590  0.000000 -0.000285
                                -0.000000  0.000178 -0.000000 -0.000030  0.000000  0.000006 -0.000000 -0.000221  0.000000  0.000139
                                -0.000000  0.000050  0.000000 -0.000012  0.000000 -0.000006 -0.000000  0.000000  0.000039  0.000000
                                -0.000000 -0.000004 -0.000000  0.000000 -0.000000 -0.000000 -0.000000 -0.000001 -0.000000 -0.000021
                                -0.000061 -0.000052  0.000141 -0.000405 -0.000331  0.000061  0.000036  0.000001  0.000017 -0.000028
                                 0.000005  0.000292  0.000111 -0.000015 -0.000001  0.000010 -0.000000 -0.000053  0.000000 -0.000071
                                -0.000000 -0.000001  0.000000  0.000006  0.000000  0.000023 -0.000000

   7.1   2    -6.5212  -79.4597 -0.000000 -0.000000 -0.000000  0.000000 -0.000000  0.000000 -0.000000  0.000000 -0.000000  0.000000
                                -0.000000  0.000000 -0.000000  0.000000 -0.000000  0.000000 -0.000000  0.000000 -0.000000  0.000000
                                -0.000000  0.000000 -0.000000  0.000000 -0.000000  0.000000 -0.000000 -0.000000 -0.000000 -0.000000
                                 0.000000  0.000000 -0.000000 -0.000000 -0.000000 -0.000000 -0.000000 -0.000000 -0.000000 -0.000000
                                -0.000000 -0.000000 -0.000000  0.000000  0.000000  0.000000  0.000000  0.000000  0.000000  0.000000
                                -0.000000  0.000000 -0.000000 -0.000000 -0.000000  0.000000 -0.000000  0.000000  0.000171  0.000000
                                 0.001504  0.000000  0.008889  0.000000  0.034998  0.000000  0.101923  0.000000  0.219220 -0.000000
                                -0.000672  0.000000  0.324286  0.000000  0.332788  0.000000  0.197775  0.000000  0.047821  0.000000
                                 0.001494 -0.000000 -0.002863  0.000000  0.005624 -0.000000 -0.004164  0.000000  0.003271 -0.000000
                                -0.001951  0.000000  0.000980 -0.000000 -0.000104  0.000000  0.000026 -0.000000  0.000008 -0.000000
                                -0.000138 -0.000000  0.000030  0.000000 -0.000009 -0.000000  0.000000 -0.000164 -0.000000 -0.000000
                                 0.000014  0.000000  0.000000 -0.000002  0.000000  0.000000  0.000000  0.000000  0.000000  0.000000
                                 0.000000  0.000000 -0.000000  0.000000  0.000000 -0.000000 -0.000000 -0.000000 -0.000000  0.000000
                                 0.000000 -0.000000 -0.000000  0.000000  0.000000 -0.000000 -0.000000  0.000000  0.000003  0.000000
                                -0.000011  0.000000  0.000000 -0.000000  0.000001 -0.000000 -0.000003

   8.1   2    -6.5203  -79.5087  0.000000  0.000000  0.000000  0.000000  0.000000  0.000000  0.000000  0.000001  0.000002  0.000005
                                 0.000010  0.000022  0.000034  0.000061 -0.000070  0.000085 -0.000183 -0.000114 -0.000761  0.003143
                                -0.003709  0.009092 -0.010582  0.009012 -0.008853  0.003734 -0.000933 -0.001319 -0.000107 -0.000132
                                 0.000058  0.000000  0.000000  0.000000  0.000000  0.000001  0.000005  0.000016  0.000045  0.000104
                                 0.000189  0.000198  0.000002 -0.000075 -0.000395 -0.001078  0.000666 -0.001066  0.001221  0.000284
                                -0.000707  0.000428 -0.001009 -0.000521 -0.000342  0.000062 -0.000000  0.000171 -0.000000  0.001505
                                -0.000000  0.008896 -0.000000  0.035027 -0.000000  0.102009 -0.000000  0.219412 -0.000000 -0.000685
                                 0.000000  0.324528 -0.000000  0.332898 -0.000000  0.197502 -0.000000  0.047027 -0.000000  0.001550
                                -0.000000 -0.002399  0.000000  0.004616 -0.000000 -0.003827  0.000000  0.002435 -0.000000 -0.001264
                                 0.000000  0.000501 -0.000000  0.000000  0.000000  0.000006 -0.000000  0.000045 -0.000000 -0.000518
                                 0.000000 -0.000021 -0.000000  0.000038  0.000000 -0.000274  0.000000  0.000000 -0.000047  0.000000
                                -0.000000  0.000036  0.000000  0.000000 -0.000000 -0.000000 -0.000000 -0.000002 -0.000006 -0.000006
                                 0.000003  0.000060 -0.000316  0.000936  0.001081 -0.000019 -0.000011 -0.000008 -0.000080  0.000042
                                -0.000099 -0.001013 -0.000405  0.000054  0.000002 -0.000028 -0.000000  0.000181  0.000000  0.000370
                                 0.000000  0.000004  0.000000 -0.000026  0.000000 -0.000103 -0.000000

   9.1   2    -2.2701  -37.2270 -0.000002 -0.000005 -0.000015 -0.000035 -0.000076 -0.000159 -0.000330 -0.000695 -0.001503 -0.003309
                                -0.007228 -0.014798 -0.026138 -0.031589 -0.000241 -0.002898  0.093684  0.207615  0.064639  0.121349
                                -0.408401 -0.294658 -0.374493  0.104031 -0.202452  0.848995  0.537416  0.032599 -0.024596  0.005117
                                -0.000998 -0.000000 -0.000000 -0.000001 -0.000002 -0.000007 -0.000024 -0.000076 -0.000214 -0.000494
                                -0.000901 -0.000955 -0.000297  0.000647  0.001455  0.006236 -0.006356  0.014412 -0.016024  0.015632
                                -0.011386 -0.010475 -0.014192 -0.002508 -0.005821  0.000317  0.000009  0.000001  0.000000  0.000005
                                 0.000000  0.000033  0.000000  0.000127  0.000000  0.000384  0.000000  0.000727  0.000000  0.000120
                                 0.000000  0.001098  0.000000  0.001198  0.000000 -0.000059 -0.000000 -0.000542  0.000000 -0.006853
                                -0.000000  0.002667  0.000000 -0.008248 -0.000000  0.000425  0.000000 -0.003245 -0.000000  0.003058
                                 0.000000 -0.004017 -0.000000  0.000589  0.000000 -0.000107 -0.000000 -0.000619  0.000000 -0.001529
                                 0.000000 -0.000589 -0.000000 -0.000105  0.000000  0.000143  0.000000  0.000000  0.000080 -0.000000
                                 0.000000 -0.000008  0.000000 -0.000000 -0.000004 -0.000021 -0.000104 -0.000410 -0.001288 -0.002768
                                -0.003306  0.002922  0.010119  0.009792  0.011541 -0.000240 -0.000296 -0.000174 -0.001297 -0.003688
                                -0.006949 -0.007616 -0.002813 -0.000034 -0.000028  0.000412  0.000000  0.002135 -0.000000  0.002082
                                 0.000000  0.000037 -0.000000 -0.000287 -0.000000 -0.000629  0.000000

  10.1   2    -1.3566  -31.2620 -0.000000 -0.000000 -0.000000 -0.000000 -0.000000 -0.000000 -0.000001 -0.000002 -0.000005 -0.000009
                                -0.000024 -0.000037 -0.000103  0.000054 -0.000620  0.000703 -0.000282  0.001905 -0.005523  0.029745
                                -0.037927  0.081448 -0.104607  0.081484 -0.084395  0.057678 -0.026375 -0.026296 -0.007324 -0.005313
                                 0.001432  0.000002  0.000007  0.000027  0.000102  0.000373  0.001296  0.004100  0.011533  0.026860
                                 0.048348  0.053927 -0.002408 -0.004984 -0.116503 -0.226432  0.044290 -0.258214  0.215769 -0.126492
                                 0.428767  0.439738  0.194217  0.016980 -0.011374  0.000020  0.000153  0.000000  0.000000  0.000003
                                 0.000000  0.000019  0.000000  0.000065  0.000000  0.000238  0.000000  0.000120  0.000000  0.000440
                                -0.000000  0.000324  0.000000  0.000882 -0.000000 -0.001253  0.000000  0.004632 -0.000000 -0.019337
                                 0.000000  0.026236 -0.000000 -0.035423  0.000000  0.019967 -0.000000 -0.028131  0.000000  0.014547
                                -0.000000 -0.012713  0.000000  0.000867 -0.000000 -0.000129  0.000000 -0.000849  0.000000 -0.002244
                                -0.000000 -0.003457  0.000000 -0.000495  0.000000  0.000650 -0.000000  0.000000  0.000166  0.000000
                                -0.000000 -0.000678 -0.000000  0.000000 -0.000048 -0.000271 -0.001344 -0.005272 -0.016710 -0.034984
                                -0.039960  0.046798  0.150358  0.116791  0.033563 -0.007797 -0.006115 -0.001060 -0.007796 -0.024559
                                -0.042829 -0.037741 -0.005740 -0.000589 -0.000193  0.001705 -0.000000  0.008584  0.000000  0.005881
                                -0.000000  0.000145  0.000000 -0.000986  0.000000 -0.002006 -0.000000

  11.1   2    -1.0581  -20.2510  0.000000  0.000000  0.000001  0.000003  0.000007  0.000014  0.000029  0.000060  0.000131  0.000286
                                 0.000629  0.001278  0.002287  0.002633  0.000482 -0.000278 -0.007757 -0.019159 -0.001344 -0.033320
                                 0.064709 -0.037015  0.118344 -0.084261  0.109605 -0.158867 -0.032317  0.003813 -0.017039 -0.002908
                                 0.000792 -0.000001 -0.000003 -0.000011 -0.000041 -0.000151 -0.000526 -0.001662 -0.004677 -0.010889
                                -0.019621 -0.021834  0.000553  0.002847  0.046756  0.096109 -0.026705  0.122821 -0.113004  0.079128
                                -0.204944 -0.180194 -0.079846 -0.025544 -0.009841 -0.002395  0.000790 -0.000004 -0.000000 -0.000037
                                 0.000000 -0.000221 -0.000000 -0.000864  0.000000 -0.002573 -0.000000 -0.005236  0.000000 -0.000347
                                -0.000000 -0.007686  0.000000 -0.007832 -0.000000  0.000315  0.000000  0.015056 -0.000000  0.000579
                                 0.000000  0.038819 -0.000000  0.003109  0.000000  0.037441 -0.000000 -0.030843  0.000000  0.026089
                                -0.000000 -0.017963  0.000000  0.001190 -0.000000 -0.000200  0.000000  0.004848 -0.000000  0.011514
                                 0.000000 -0.002619  0.000000 -0.000475 -0.000000  0.001790 -0.000000  0.000000  0.001855  0.000000
                                -0.000000 -0.001475 -0.000000  0.000000 -0.000155 -0.000882 -0.004374 -0.017150 -0.054522 -0.113156
                                -0.126968  0.164260  0.506209  0.406916  0.064245 -0.031113 -0.022439 -0.000160 -0.001234 -0.001859
                                -0.007643 -0.042659 -0.007442  0.000303 -0.000008  0.000033 -0.000000  0.005259  0.000000  0.011728
                                -0.000000  0.000102  0.000000 -0.000112  0.000000 -0.002058 -0.000000

  12.1   2    -0.3759  -18.1903 -0.000000 -0.000001 -0.000002 -0.000004 -0.000009 -0.000019 -0.000039 -0.000083 -0.000179 -0.000393
                                -0.000863 -0.001754 -0.003144 -0.003593 -0.000763  0.000499  0.010594  0.026656  0.000843  0.051609
                                -0.096701  0.064287 -0.183360  0.130144 -0.166167  0.241828  0.087658 -0.076232  0.000552 -0.001067
                                -0.001609  0.000000  0.000001  0.000005  0.000018  0.000065  0.000228  0.000714  0.002029  0.004672
                                 0.008581  0.009017  0.004577 -0.009205 -0.012971 -0.071634  0.078829 -0.163369  0.170691 -0.132963
                                 0.158398  0.072424  0.040380  0.014066  0.012031 -0.000396 -0.001300  0.000014  0.000000  0.000124
                                 0.000000  0.000738  0.000000  0.002916  0.000000  0.008573  0.000000  0.018490  0.000000 -0.000037
                                -0.000000  0.026549  0.000000  0.025355  0.000000 -0.001081  0.000000 -0.062646 -0.000000  0.002771
                                 0.000000 -0.134041 -0.000000 -0.013943  0.000000 -0.153397 -0.000000  0.064675  0.000000 -0.113354
                                -0.000000  0.052049  0.000000 -0.012918 -0.000000  0.002823  0.000000 -0.009210 -0.000000 -0.024390
                                 0.000000 -0.004940 -0.000000 -0.001961  0.000000 -0.002870 -0.000000  0.000000 -0.003538  0.000000
                                -0.000000 -0.000809  0.000000  0.000000 -0.000018 -0.000105 -0.000521 -0.002036 -0.006551 -0.013129
                                -0.013656  0.024941  0.073866  0.069596  0.020719 -0.006157 -0.003844  0.010190  0.074884  0.257039
                                 0.404751  0.346643  0.070850  0.008666  0.002024 -0.003388 -0.000000 -0.015856  0.000000 -0.023386
                                -0.000000 -0.000259 -0.000000  0.001046  0.000000  0.004393 -0.000000

  13.1   +    -0.2452  -12.6024  0.000000  0.000001  0.000004  0.000008  0.000018  0.000037  0.000077  0.000162  0.000350  0.000773
                                 0.001680  0.003463  0.006054  0.007639 -0.001023  0.001916 -0.023040 -0.047147 -0.025241  0.021127
                                 0.036929  0.230383 -0.093246  0.134291 -0.134805 -0.160828 -0.378878  0.139318  0.639749  0.253321
                                -0.004675  0.000000  0.000001  0.000004  0.000016  0.000057  0.000198  0.000625  0.001768  0.004096
                                 0.007447  0.008078  0.001621 -0.004193 -0.014945 -0.048919  0.038023 -0.094842  0.099133 -0.075994
                                 0.110751  0.079886  0.090255 -0.138829 -0.341936 -0.067558  0.003077  0.000006 -0.000000  0.000049
                                -0.000000  0.000290 -0.000000  0.001139 -0.000000  0.003373 -0.000000  0.007059 -0.000000  0.000238
                                 0.000000  0.010244 -0.000000  0.010082 -0.000000 -0.000906 -0.000000 -0.025001  0.000000 -0.000515
                                -0.000000 -0.046469  0.000000 -0.011044 -0.000000 -0.067185  0.000000 -0.007701 -0.000000 -0.039657
                                 0.000000  0.006215 -0.000000  0.006408  0.000000 -0.000473 -0.000000 -0.000915 -0.000000 -0.000614
                                -0.000000  0.011005 -0.000000  0.004711 -0.000000 -0.000099  0.000000 -0.000000  0.000163 -0.000000
                                -0.000000 -0.000126  0.000000 -0.000000  0.000007  0.000039  0.000191  0.000754  0.002380  0.005220
                                 0.006563 -0.006611 -0.026727 -0.014826  0.055601  0.000357  0.000527  0.000816  0.006025  0.020626
                                 0.033045  0.021810 -0.008131  0.000669  0.000161 -0.000516  0.000000 -0.002535  0.000000 -0.001361
                                -0.000000 -0.000040  0.000000  0.000216 -0.000000  0.001078  0.000000

  14.1   0     0.0078   -5.7216  0.000000  0.000000  0.000001  0.000003  0.000006  0.000013  0.000027  0.000057  0.000121  0.000272
                                 0.000575  0.001229  0.002014  0.003188 -0.002571  0.003213 -0.010024 -0.011988 -0.029238  0.112257
                                -0.117212  0.375802 -0.403531  0.347617 -0.363840  0.111494 -0.200458  0.344322 -0.123092  1.026111
                                -1.030867 -0.000000 -0.000000 -0.000002 -0.000006 -0.000021 -0.000070 -0.000238 -0.000621 -0.001591
                                -0.002445 -0.004154  0.013307 -0.021149  0.027196 -0.068651  0.190859 -0.314078  0.367944 -0.329525
                                 0.177421 -0.118977  0.081586 -0.078643  0.333778 -0.257818  0.859439  0.000005  0.000000  0.000046
                                 0.000000  0.000284  0.000000  0.001075  0.000000  0.003356  0.000000  0.005453  0.000000  0.002104
                                 0.000000  0.008750  0.000000  0.011104  0.000000 -0.003793 -0.000000 -0.005267 -0.000000 -0.061067
                                 0.000000  0.083078 -0.000000 -0.164653  0.000000  0.192296 -0.000000 -0.339859  0.000000  0.374133
                                -0.000000 -0.375082  0.000000  0.001797 -0.000000 -0.317479 -0.000000  0.000513  0.000000  0.006892
                                 0.000000  0.019178  0.000000  0.005400  0.000000  0.000613  0.000000  0.000000  0.005033  0.000000
                                -0.000000  0.004150 -0.000000  0.000000  0.000003  0.000019  0.000095  0.000366  0.001214  0.001982
                                 0.000949 -0.006094 -0.009012 -0.016423 -0.215730  0.002920  0.001522 -0.000620 -0.004622 -0.015301
                                -0.024497 -0.004863  0.101889 -0.000412 -0.000116 -0.000477 -0.000000 -0.003386 -0.000000 -0.012574
                                 0.000000 -0.000055 -0.000000 -0.000066  0.000000  0.002091  0.000000

  15.1   0     0.0194   -5.0297 -0.000000 -0.000000 -0.000000 -0.000000 -0.000000 -0.000001 -0.000002 -0.000005 -0.000007 -0.000029
                                -0.000022 -0.000161  0.000081 -0.001646  0.006025 -0.006947  0.006076 -0.010701  0.056221 -0.285821
                                 0.353022 -0.813103  1.017463 -0.831990  0.889600 -0.487439  0.218161 -0.685418  1.187823 -2.243067
                                 2.023635 -0.000000 -0.000001 -0.000002 -0.000009 -0.000032 -0.000114 -0.000352 -0.001023 -0.002292
                                -0.004398 -0.003993 -0.008150  0.014164 -0.002713  0.072457 -0.126649  0.231574 -0.260863  0.224273
                                -0.177129  0.015580 -0.112214  0.008334  0.116387  0.171221 -0.079030  0.000003  0.000000  0.000022
                                 0.000000  0.000142  0.000000  0.000512  0.000000  0.001703  0.000000  0.001874  0.000000  0.002126
                                -0.000000  0.003618  0.000000  0.006236  0.000000 -0.003534  0.000000  0.008348 -0.000000 -0.067113
                                 0.000000  0.133043 -0.000000 -0.201350  0.000000  0.241736 -0.000000 -0.464865  0.000000  0.656705
                                -0.000000 -0.654218  0.000000  0.121911 -0.000000 -0.486855  0.000000  0.002731  0.000000 -0.006886
                                 0.000000 -0.001553  0.000000  0.023429 -0.000000 -0.000098 -0.000000  0.000000 -0.000731  0.000000
                                 0.000000  0.008461 -0.000000  0.000000  0.000002  0.000011  0.000050  0.000213  0.000576  0.002435
                                 0.005865  0.003446 -0.022406  0.023293  0.140098 -0.004900 -0.002015 -0.000603 -0.004013 -0.019122
                                -0.020754 -0.107469 -0.019627 -0.001454 -0.000177 -0.000527 -0.000000 -0.000239 -0.000000  0.036663
                                -0.000000 -0.000011 -0.000000  0.000903  0.000000 -0.005433  0.000000

                                   1 2px     1 2px     1 2px     1 2px     1 2px     1 2px     1 2px     1 2px     1 2px     1 2px  
                                   1 2px     1 2px     1 2px     1 2px     1 2px     1 2px     1 2px     1 2px     1 2px     1 2px  
                                   1 2px     1 2px     1 2px     1 2px     1 2px     1 2px     1 3d1+    1 3d1+    1 3d1+    1 3d1+ 
                                   1 3d1+    1 3d1+    1 3d1+    1 3d1+    1 3d1+    1 3d1+    1 3d1+    1 3d1+    1 3d1+    1 3d1+ 
                                   1 3d1+    1 3d1+    1 3d1+    1 3d1+    1 3d1+    1 3d1+    1 4f1+    1 4f3+    1 4f1+    1 4f3+ 
                                   1 4f1+    1 4f3+    1 4f1+    1 4f3+    1 5g1+    1 5g3+    1 5g1+    1 5g3+    1 5g1+    1 5g3+ 
                                   2 2px     2 2px     2 2px     2 2px     2 2px     2 2px     2 2px     2 2px     2 3d1+    2 3d1+ 
                                   2 3d1+    2 3d1+    2 4f1+    2 4f3+    2 4f1+    2 4f3+ 

   1.2   2   -78.9502 -270.5036  0.000014  0.000053  0.000206  0.000769  0.002805  0.009658  0.030133  0.082172  0.183297  0.308906
                                 0.340239  0.185140  0.005604  0.036940  0.012744 -0.016327  0.018490 -0.013994  0.007155 -0.002722
                                 0.000355 -0.000126  0.000047 -0.000017  0.000005 -0.000002  0.000000  0.000000  0.000001  0.000005
                                 0.000024  0.000029 -0.000005  0.000007 -0.000000 -0.000001 -0.000001  0.000001 -0.000001  0.000001
                                -0.000000 -0.000001  0.000003 -0.000004 -0.000000  0.000000  0.000000 -0.000000  0.000000  0.000000
                                -0.000000 -0.000000 -0.000001  0.000000  0.000000  0.000000 -0.000000  0.000000 -0.000000  0.000000
                                -0.000000 -0.000000 -0.000001 -0.000000 -0.000001  0.000003 -0.000000 -0.000000  0.000000  0.000000
                                -0.000000  0.000000 -0.000000  0.000000  0.000000 -0.000000

   2.2   2   -12.0186  -89.6116 -0.000006 -0.000022 -0.000087 -0.000327 -0.001195 -0.004146 -0.013097 -0.036656 -0.084975 -0.151200
                                -0.169287 -0.004747 -0.000351  0.297181  0.469263 -0.000076  0.313029 -0.028396  0.075423 -0.009626
                                 0.003339 -0.000868  0.000349 -0.000130  0.000041 -0.000012  0.000000  0.000001  0.000006  0.000023
                                 0.000058  0.000142  0.000034  0.000303  0.000339  0.000213 -0.000097  0.000120 -0.000181  0.000129
                                -0.000046  0.000054  0.000000 -0.000016 -0.000001  0.000000 -0.000156  0.000000  0.000041 -0.000000
                                 0.000001 -0.000000 -0.000005  0.000000 -0.000012  0.000000  0.000011 -0.000000 -0.000003 -0.000000
                                 0.000000  0.000004  0.000008  0.000019 -0.000032  0.000017 -0.000000  0.000000 -0.000002  0.000006
                                 0.000031  0.000000  0.000003 -0.000000 -0.000019  0.000000

   3.2   2    -6.5196  -79.4893  0.000000  0.000000  0.000000  0.000000  0.000001  0.000003  0.000011  0.000031  0.000073  0.000129
                                 0.000142 -0.000039  0.000046 -0.000304 -0.000325 -0.000384  0.000305 -0.000488  0.000688 -0.000537
                                -0.000013 -0.000085 -0.000040  0.000015 -0.000001  0.000000  0.000171  0.001505  0.008892  0.035013
                                 0.101968  0.219301 -0.000654  0.324398  0.332876  0.197634  0.047449  0.001408 -0.002833  0.005530
                                -0.004265  0.003301 -0.002013  0.001027 -0.000111  0.000028  0.000007  0.000000 -0.000308 -0.000000
                                 0.000018  0.000000 -0.000003 -0.000000 -0.000239 -0.000000 -0.000013 -0.000000  0.000006  0.000000
                                 0.000000  0.000003  0.000004 -0.000009  0.000089  0.000000 -0.000001 -0.000000  0.000008 -0.000025
                                -0.000095 -0.000001 -0.000014 -0.000000  0.000073  0.000000

   4.2   2    -1.3410  -32.7088  0.000002  0.000008  0.000029  0.000110  0.000403  0.001399  0.004425  0.012447  0.028989  0.052178
                                 0.058213 -0.002689 -0.005236 -0.125846 -0.244367  0.048251 -0.281579  0.239025 -0.147437  0.471961
                                 0.477118  0.217115  0.028845  0.000758 -0.000221  0.000057  0.000001  0.000006  0.000034  0.000133
                                 0.000402  0.000774  0.000085  0.001122  0.001183 -0.000077  0.000081 -0.003394 -0.003704 -0.007513
                                -0.006581 -0.000021 -0.002053  0.000113 -0.000291  0.000066 -0.002530  0.000000 -0.006395 -0.000000
                                -0.001483  0.000000 -0.000078 -0.000000 -0.000273  0.000000 -0.000562  0.000000 -0.000262 -0.000000
                                 0.000236  0.001742  0.005642  0.009396  0.007510  0.001341  0.000150  0.000044 -0.000454 -0.002253
                                -0.001649 -0.000038  0.000334  0.000000  0.000790 -0.000000

   5.2   2    -0.3482  -16.6957 -0.000000 -0.000001 -0.000003 -0.000009 -0.000034 -0.000120 -0.000376 -0.001065 -0.002461 -0.004492
                                -0.004809 -0.001590  0.003511  0.008029  0.033104 -0.031687  0.071786 -0.076483  0.060417 -0.074672
                                -0.044237 -0.029130  0.030191  0.024345 -0.011436  0.003217 -0.000010 -0.000086 -0.000509 -0.002005
                                -0.005924 -0.012499 -0.000299 -0.018106 -0.017676  0.000833  0.042900  0.001008  0.076832  0.024686
                                 0.099116 -0.009297  0.075714 -0.021589 -0.005413  0.001733  0.005711 -0.000000  0.019959  0.000000
                                 0.010709 -0.000000 -0.005440 -0.000000  0.002448  0.000000  0.003425 -0.000000 -0.004688 -0.000000
                                 0.009702  0.071104  0.245696  0.386502  0.355091  0.101694  0.008495  0.001942 -0.002995 -0.017059
                                -0.032816 -0.000296  0.000432 -0.000000  0.008001 -0.000000

   6.2   0    -0.0094   -8.3723 -0.000000 -0.000001 -0.000004 -0.000017 -0.000061 -0.000212 -0.000672 -0.001885 -0.004413 -0.007892
                                -0.009001  0.002306 -0.002119  0.022327  0.027212  0.018663  0.000623  0.010618 -0.021301 -0.056511
                                -0.108110 -0.057585  0.059309  0.334243  0.299405  0.364633  0.000007  0.000056  0.000340  0.001316
                                 0.003975  0.007602  0.001137  0.011427  0.012389 -0.002219 -0.019920 -0.030083  0.007576 -0.078432
                                 0.034168 -0.163658  0.102455 -0.251450 -0.104210 -0.127724  0.000627  0.000000  0.002558  0.000000
                                -0.001798  0.000000 -0.000572 -0.000000  0.000544 -0.000000  0.002818 -0.000000  0.005318  0.000000
                                 0.000052  0.000359  0.001491  0.001831  0.007841  0.023442  0.000087  0.000013  0.000330  0.001749
                                -0.003035  0.000027 -0.000296  0.000000 -0.000145 -0.000000

   7.2   0     0.0267   -4.8921  0.000000  0.000001  0.000003  0.000011  0.000038  0.000144  0.000415  0.001300  0.002642  0.005888
                                 0.002741  0.034964 -0.058085  0.042341 -0.243824  0.521785 -0.906367  1.037846 -0.902491  0.591765
                                -0.152855  0.277608 -0.332144  0.162549 -1.339732  1.490715 -0.000005 -0.000045 -0.000250 -0.001053
                                -0.002823 -0.008579  0.002964 -0.011061 -0.006633 -0.004563  0.054433 -0.100780  0.258116 -0.266483
                                 0.461539 -0.556587  0.899134 -0.706237  0.518066 -0.620152 -0.000633 -0.000000 -0.002951 -0.000000
                                -0.017808 -0.000000 -0.049512 -0.000000 -0.000401  0.000000 -0.004016 -0.000000 -0.017467  0.000000
                                -0.000222 -0.001553 -0.006311 -0.009062 -0.005737  0.118342 -0.000366 -0.000055 -0.000480  0.000861
                                -0.012060  0.000008  0.000070  0.000000  0.000550 -0.000000

                                   1 2py     1 2py     1 2py     1 2py     1 2py     1 2py     1 2py     1 2py     1 2py     1 2py  
                                   1 2py     1 2py     1 2py     1 2py     1 2py     1 2py     1 2py     1 2py     1 2py     1 2py  
                                   1 2py     1 2py     1 2py     1 2py     1 2py     1 2py     1 3d1-    1 3d1-    1 3d1-    1 3d1- 
                                   1 3d1-    1 3d1-    1 3d1-    1 3d1-    1 3d1-    1 3d1-    1 3d1-    1 3d1-    1 3d1-    1 3d1- 
                                   1 3d1-    1 3d1-    1 3d1-    1 3d1-    1 3d1-    1 3d1-    1 4f1-    1 4f3-    1 4f1-    1 4f3- 
                                   1 4f1-    1 4f3-    1 4f1-    1 4f3-    1 5g1-    1 5g3-    1 5g1-    1 5g3-    1 5g1-    1 5g3- 
                                   2 2py     2 2py     2 2py     2 2py     2 2py     2 2py     2 2py     2 2py     2 3d1-    2 3d1- 
                                   2 3d1-    2 3d1-    2 4f1-    2 4f3-    2 4f1-    2 4f3- 

   1.3   2   -78.9502 -270.5036  0.000014  0.000053  0.000206  0.000769  0.002805  0.009658  0.030133  0.082172  0.183297  0.308906
                                 0.340239  0.185140  0.005604  0.036940  0.012744 -0.016327  0.018490 -0.013994  0.007155 -0.002722
                                 0.000355 -0.000126  0.000047 -0.000017  0.000005 -0.000002  0.000000  0.000000  0.000001  0.000005
                                 0.000024  0.000029 -0.000005  0.000007 -0.000000 -0.000001 -0.000001  0.000001 -0.000001  0.000001
                                -0.000000 -0.000001  0.000003 -0.000004 -0.000000  0.000000  0.000000  0.000000  0.000000 -0.000000
                                -0.000000  0.000000 -0.000001 -0.000000  0.000000 -0.000000 -0.000000 -0.000000 -0.000000 -0.000000
                                -0.000000 -0.000000 -0.000001 -0.000000 -0.000001  0.000003 -0.000000 -0.000000  0.000000  0.000000
                                -0.000000  0.000000 -0.000000 -0.000000  0.000000  0.000000

   2.3   2   -12.0186  -89.6116 -0.000006 -0.000022 -0.000087 -0.000327 -0.001195 -0.004146 -0.013097 -0.036656 -0.084975 -0.151200
                                -0.169287 -0.004747 -0.000351  0.297181  0.469263 -0.000076  0.313029 -0.028396  0.075423 -0.009626
                                 0.003339 -0.000868  0.000349 -0.000130  0.000041 -0.000012  0.000000  0.000001  0.000006  0.000023
                                 0.000058  0.000142  0.000034  0.000303  0.000339  0.000213 -0.000097  0.000120 -0.000181  0.000129
                                -0.000046  0.000054  0.000000 -0.000016 -0.000001  0.000000 -0.000156  0.000000  0.000041 -0.000000
                                 0.000001  0.000000 -0.000005 -0.000000 -0.000012  0.000000  0.000011  0.000000 -0.000003  0.000000
                                 0.000000  0.000004  0.000008  0.000019 -0.000032  0.000017 -0.000000  0.000000 -0.000002  0.000006
                                 0.000031  0.000000  0.000003  0.000000 -0.000019 -0.000000

   3.3   2    -6.5196  -79.4893  0.000000  0.000000  0.000000  0.000000  0.000001  0.000003  0.000011  0.000031  0.000073  0.000129
                                 0.000142 -0.000039  0.000046 -0.000304 -0.000325 -0.000384  0.000305 -0.000488  0.000688 -0.000537
                                -0.000013 -0.000085 -0.000040  0.000015 -0.000001  0.000000  0.000171  0.001505  0.008892  0.035013
                                 0.101968  0.219301 -0.000654  0.324398  0.332876  0.197634  0.047449  0.001408 -0.002833  0.005530
                                -0.004265  0.003301 -0.002013  0.001027 -0.000111  0.000028  0.000007 -0.000000 -0.000308  0.000000
                                 0.000018 -0.000000 -0.000003  0.000000 -0.000239  0.000000 -0.000013 -0.000000  0.000006 -0.000000
                                 0.000000  0.000003  0.000004 -0.000009  0.000089  0.000000 -0.000001 -0.000000  0.000008 -0.000025
                                -0.000095 -0.000001 -0.000014  0.000000  0.000073 -0.000000

   4.3   2    -1.3410  -32.7088  0.000002  0.000008  0.000029  0.000110  0.000403  0.001399  0.004425  0.012447  0.028989  0.052178
                                 0.058213 -0.002689 -0.005236 -0.125846 -0.244367  0.048251 -0.281579  0.239025 -0.147437  0.471961
                                 0.477118  0.217115  0.028845  0.000758 -0.000221  0.000057  0.000001  0.000006  0.000034  0.000133
                                 0.000402  0.000774  0.000085  0.001122  0.001183 -0.000077  0.000081 -0.003394 -0.003704 -0.007513
                                -0.006581 -0.000021 -0.002053  0.000113 -0.000291  0.000066 -0.002530  0.000000 -0.006395 -0.000000
                                -0.001483  0.000000 -0.000078  0.000000 -0.000273  0.000000 -0.000562  0.000000 -0.000262 -0.000000
                                 0.000236  0.001742  0.005642  0.009396  0.007510  0.001341  0.000150  0.000044 -0.000454 -0.002253
                                -0.001649 -0.000038  0.000334 -0.000000  0.000790  0.000000

   5.3   2    -0.3482  -16.6957 -0.000000 -0.000001 -0.000003 -0.000009 -0.000034 -0.000120 -0.000376 -0.001065 -0.002461 -0.004492
                                -0.004809 -0.001590  0.003511  0.008029  0.033104 -0.031687  0.071786 -0.076483  0.060417 -0.074672
                                -0.044237 -0.029130  0.030191  0.024345 -0.011436  0.003217 -0.000010 -0.000086 -0.000509 -0.002005
                                -0.005924 -0.012499 -0.000299 -0.018106 -0.017676  0.000833  0.042900  0.001008  0.076832  0.024686
                                 0.099116 -0.009297  0.075714 -0.021589 -0.005413  0.001733  0.005711  0.000000  0.019959  0.000000
                                 0.010709  0.000000 -0.005440  0.000000  0.002448  0.000000  0.003425 -0.000000 -0.004688 -0.000000
                                 0.009702  0.071104  0.245696  0.386502  0.355091  0.101694  0.008495  0.001942 -0.002995 -0.017059
                                -0.032816 -0.000296  0.000432  0.000000  0.008001 -0.000000

   6.3   0    -0.0094   -8.3723 -0.000000 -0.000001 -0.000004 -0.000017 -0.000061 -0.000212 -0.000672 -0.001885 -0.004413 -0.007892
                                -0.009001  0.002306 -0.002119  0.022327  0.027212  0.018663  0.000623  0.010618 -0.021301 -0.056511
                                -0.108110 -0.057585  0.059309  0.334243  0.299405  0.364633  0.000007  0.000056  0.000340  0.001316
                                 0.003975  0.007602  0.001137  0.011427  0.012389 -0.002219 -0.019920 -0.030083  0.007576 -0.078432
                                 0.034168 -0.163658  0.102455 -0.251450 -0.104210 -0.127724  0.000627  0.000000  0.002558  0.000000
                                -0.001798  0.000000 -0.000572  0.000000  0.000544 -0.000000  0.002818 -0.000000  0.005318  0.000000
                                 0.000052  0.000359  0.001491  0.001831  0.007841  0.023442  0.000087  0.000013  0.000330  0.001749
                                -0.003035  0.000027 -0.000296 -0.000000 -0.000145 -0.000000

   7.3   0     0.0267   -4.8921  0.000000  0.000001  0.000003  0.000011  0.000038  0.000144  0.000415  0.001300  0.002642  0.005888
                                 0.002741  0.034964 -0.058085  0.042341 -0.243824  0.521785 -0.906367  1.037846 -0.902491  0.591765
                                -0.152855  0.277608 -0.332144  0.162549 -1.339732  1.490715 -0.000005 -0.000045 -0.000250 -0.001053
                                -0.002823 -0.008579  0.002964 -0.011061 -0.006633 -0.004563  0.054433 -0.100780  0.258116 -0.266483
                                 0.461539 -0.556587  0.899134 -0.706237  0.518066 -0.620152 -0.000633 -0.000000 -0.002951 -0.000000
                                -0.017808 -0.000000 -0.049512  0.000000 -0.000401 -0.000000 -0.004016  0.000000 -0.017467 -0.000000
                                -0.000222 -0.001553 -0.006311 -0.009062 -0.005737  0.118342 -0.000366 -0.000055 -0.000480  0.000861
                                -0.012060  0.000008  0.000070 -0.000000  0.000550  0.000000

                                   1 3d2-    1 3d2-    1 3d2-    1 3d2-    1 3d2-    1 3d2-    1 3d2-    1 3d2-    1 3d2-    1 3d2- 
                                   1 3d2-    1 3d2-    1 3d2-    1 3d2-    1 3d2-    1 3d2-    1 3d2-    1 3d2-    1 3d2-    1 3d2- 
                                   1 4f2-    1 4f2-    1 4f2-    1 4f2-    1 5g2-    1 5g4-    1 5g2-    1 5g4-    1 5g2-    1 5g4- 
                                   2 3d2-    2 3d2-    2 3d2-    2 3d2-    2 4f2-    2 4f2- 

   1.4   2    -6.5212  -79.4597  0.000171  0.001504  0.008889  0.034998  0.101923  0.219220 -0.000672  0.324286  0.332788  0.197775
                                 0.047821  0.001494 -0.002863  0.005624 -0.004164  0.003271 -0.001951  0.000980 -0.000104  0.000026
                                 0.000008 -0.000138  0.000030 -0.000009 -0.000164  0.000000  0.000014 -0.000000 -0.000002  0.000000
                                -0.000000  0.000003 -0.000011  0.000000  0.000001 -0.000003

   2.4   0     0.0269   -5.1211 -0.000008 -0.000063 -0.000414 -0.001473 -0.004996 -0.004683 -0.007202 -0.009840 -0.018870  0.012292
                                -0.036294  0.222962 -0.403332  0.583866 -0.744868  1.134343 -1.513286  1.396951 -0.639157  1.238240
                                -0.000267 -0.004176 -0.014519 -0.074956 -0.000381  0.000000 -0.002524  0.000000 -0.007687 -0.000000
                                 0.000385  0.001015  0.002930  0.000017 -0.000195 -0.000113

   3.4   0     0.0490  -11.1379  0.000019  0.000174  0.000998  0.004089  0.011426  0.030093 -0.006514  0.040463  0.029977  0.009466
                                -0.161559  0.231543 -0.668139  0.602992 -1.173261  1.281886 -2.125469  1.543352 -1.370884  1.107173
                                 0.001141  0.008371  0.046046  0.088226  0.000906 -0.000000  0.007036  0.000000  0.011722  0.000000
                                -0.000694 -0.003281 -0.003680 -0.000057  0.000309  0.000794

 HOMO     13.1    -0.245227 =      -6.6730eV
 LUMO      6.2    -0.009376 =      -0.2551eV
 LUMO-HOMO         0.235850 =       6.4178eV


 **********************************************************************************************************************************
 DATASETS  * FILE   NREC   LENGTH (MB)   RECORD NAMES
              1      22       22.27       500      610      700      900      950      970     1000      129      960     1700   
                                          VAR    BASINP    GEOM    SYMINP    ZMAT    AOBASIS   BASIS     P2S    ABASIS    OPER   
                                         1101     1401     1411     1412     1650     1100     1400     1410     1200     1210   
                                          SR      EKINR    POTR     PVPR    MOLCAS      S      EKIN      POT      H0       H01  
                                         1080     1600   
                                         AOSYM     SMH  

              2       4        3.78       700     1000      520     2100   
                                         GEOM     BASIS   MCVARS     RHF  

 PROGRAMS   *        TOTAL       RHF       INT
 CPU TIMES  *        66.89      3.67     62.40
 REAL TIME  *        77.63 SEC
 DISK USED  *         3.39 GB      
 SF USED    *         0.14 MB      
 GA USED    *         0.00 MB       (max)       0.00 MB       (current)
 **********************************************************************************************************************************
 SETTING SCF            =     -3457.96027999  AU                              
 SETTING _CC_NORM_MAX   =         2.00000000                                  


 PROGRAM * CCSD (Restricted open-shell coupled cluster)     Authors: C. Hampel, H.-J. Werner, 1991, M. Deegan, P.J. Knowles, 1992


 Convergence thresholds:  THRVAR = 1.00D-08  THRDEN = 1.00D-06

 CCSD(T)     terms to be evaluated (factor= 1.000)


 Number of closed-shell orbitals:  23 (  12   5   5   1 )
 Number of active  orbitals:        1 (   1   0   0   0 )
 Number of external orbitals:     311 ( 134  71  71  35 )

 Memory could be reduced to 316.59 Mwords without degradation in triples

 Number of N-1 electron functions:              47
 Number of N-2 electron functions:            1081
 Number of singly external CSFs:              4865
 Number of doubly external CSFs:          20775414
 Total number of CSFs:                    20780279

 Molecular orbitals read from record     2100.2  Type=RHF/CANONICAL (state 1.1)

 Integral transformation finished. Total CPU:  10.93 sec, npass=  1  Memory used:  34.79 MW

 Starting RMP2 calculation

 Wavefunction is spin-projected

 ITER.      SQ.NORM     CORR.ENERGY   TOTAL ENERGY   ENERGY CHANGE        DEN1      VAR(S)    VAR(P)  DIIS     TIME
   1      1.20386957    -1.47037589 -3459.43065588    -1.47037589    -0.00269920  0.36D-05  0.15D-02  1  1    14.21
   2      1.20745566    -1.47329264 -3459.43357263    -0.00291675    -0.00001058  0.64D-07  0.80D-05  2  2    17.46
   3      1.20769378    -1.47340990 -3459.43368989    -0.00011726    -0.00000003  0.12D-08  0.21D-07  3  3    20.90
   4      1.20769906    -1.47341071 -3459.43369070    -0.00000081    -0.00000000  0.41D-10  0.14D-09  4  4    24.68

 Norm of t1 vector:      0.01259257      S-energy:    -0.00019454      T1 diagnostic:  0.00004460
 Norm of t2 vector:      0.45556612      P-energy:    -1.47321617
                                         Alpha-Beta:  -1.02993294
                                         Alpha-Alpha: -0.22610998
                                         Beta-Beta:   -0.21717324

 Spin contamination <S**2-Sz**2-Sz>     0.00000000
  Reference energy                  -3457.960279992705
  RHF-RMP2 correlation energy          -1.473410709566
 !RHF-RMP2 energy                   -3459.433690702272
 (NB above energy spin projected)

 Starting RCCSD calculation

 ITER.      SQ.NORM     CORR.ENERGY   TOTAL ENERGY   ENERGY CHANGE        DEN1      VAR(S)    VAR(P)  DIIS     TIME
   1      1.17227188    -1.38327442 -3459.34355441    -1.38327442    -0.03879885  0.18D-01  0.63D-02  0  0    60.11
   2      1.19468753    -1.41773666 -3459.37801665    -0.03446223    -0.00683157  0.11D-02  0.35D-02  1  1    94.16
   3      1.20017057    -1.41150396 -3459.37178396     0.00623269    -0.00135351  0.16D-02  0.14D-03  2  2   128.20
   4      1.20754340    -1.41366142 -3459.37394141    -0.00215745    -0.00040841  0.50D-03  0.52D-04  3  3   163.07
   5      1.22124913    -1.41595798 -3459.37623798    -0.00229657    -0.00007710  0.12D-03  0.67D-05  4  4   198.58
   6      1.22686225    -1.41621569 -3459.37649568    -0.00025770    -0.00002634  0.37D-04  0.54D-05  5  5   257.74
   7      1.23124858    -1.41641519 -3459.37669518    -0.00019950    -0.00000895  0.13D-04  0.11D-05  6  6   335.15
   8      1.23355680    -1.41650171 -3459.37678170    -0.00008652    -0.00000252  0.32D-05  0.38D-06  6  1   372.86
   9      1.23486928    -1.41652564 -3459.37680564    -0.00002394    -0.00000051  0.52D-06  0.85D-07  6  2   417.62
  10      1.23522817    -1.41657310 -3459.37685310    -0.00004746    -0.00000014  0.12D-06  0.33D-07  6  4   472.09
  11      1.23534772    -1.41657194 -3459.37685193     0.00000117    -0.00000004  0.45D-07  0.70D-08  6  3   503.04
  12      1.23538435    -1.41657296 -3459.37685295    -0.00000102    -0.00000001  0.83D-08  0.29D-08  6  5   539.65
  13      1.23540444    -1.41657630 -3459.37685629    -0.00000334    -0.00000000  0.49D-08  0.47D-09  6  6   577.89
  14      1.23541682    -1.41657498 -3459.37685497     0.00000132    -0.00000000  0.13D-08  0.28D-09  6  1   635.07
  15      1.23541628    -1.41657559 -3459.37685558    -0.00000061    -0.00000000  0.59D-09  0.85D-10  6  2   678.51

 Norm of t1 vector:      0.22659443      S-energy:    -0.00025407      T1 diagnostic:  0.02329173
                                                                       D1 diagnostic:  0.09051407
 Norm of t2 vector:      0.42903524      P-energy:    -1.41632152
                                         Alpha-Beta:  -1.01959971
                                         Alpha-Alpha: -0.20299666
                                         Beta-Beta:   -0.19372515

 Singles amplitudes (print threshold =  0.500E-01):

         I         SYM. A    A   T(IA) [Alpha-Alpha]

        13         1         2      0.07284097
        13         1         5      0.07810272

 Spin contamination <S**2-Sz**2-Sz>     0.00000000

 Memory could be reduced to 346.70 Mwords without degradation in triples
 

  Correlated core orbitals:             1.1       2.1       3.1       4.1       5.1       6.1       7.1       8.1       9.1      10.1
                                        1.2       2.2       3.2       4.2       1.3       2.3       3.3       4.3       1.4
  Orbital energies:                  -629.6918  -88.9034  -78.9503  -20.4557  -15.3486  -12.0165   -6.5215   -6.5213   -2.2748   -1.3603
                                      -78.9505  -12.0191   -6.5202   -1.3437  -78.9505  -12.0191   -6.5202   -1.3437   -6.5215
 
  RCCSD core-core energy               -0.999783658885
  RCCSD core-valence energy            -0.110905916550
  RCCSD valence correlation energy     -0.305886013507
 

 RESULTS
 =======

  Reference energy                  -3457.960279992705
  RCCSD singles energy                 -0.000254068681
  RCCSD pair energy                    -1.416321520261
  RCCSD correlation energy             -1.416575588942
  Triples (T) contribution             -0.040904664676
  Total correlation energy             -1.457480253618
 
  RHF-RCCSD energy                  -3459.376855581647
  RHF-RCCSD[T] energy               -3459.425471327780
  RHF-RCCSD-T energy                -3459.416092676031
 !RHF-RCCSD(T) energy               -3459.417760246323

 Program statistics:

 Available memory in ccsd:               999995052
 Min. memory needed in ccsd:              57248825
 Max. memory used in ccsd:                84012667
 Max. memory used in cckext:              67082863 (15 integral passes)
 Max. memory used in cckint:              34794691 ( 1 integral passes)



 **********************************************************************************************************************************
 DATASETS  * FILE   NREC   LENGTH (MB)   RECORD NAMES
              1      22       22.27       500      610      700      900      950      970     1000      129      960     1700   
                                          VAR    BASINP    GEOM    SYMINP    ZMAT    AOBASIS   BASIS     P2S    ABASIS    OPER   
                                         1101     1401     1411     1412     1650     1100     1400     1410     1200     1210   
                                          SR      EKINR    POTR     PVPR    MOLCAS      S      EKIN      POT      H0       H01  
                                         1080     1600   
                                         AOSYM     SMH  

              2       4        3.78       700     1000      520     2100   
                                         GEOM     BASIS   MCVARS     RHF  

 PROGRAMS   *        TOTAL  RCCSD(T)       RHF       INT
 CPU TIMES  *      1453.34   1386.35      3.67     62.40
 REAL TIME  *      2157.98 SEC
 DISK USED  *        32.39 GB      
 SF USED    *         6.73 GB      
 GA USED    *         0.00 MB       (max)       0.00 MB       (current)
 **********************************************************************************************************************************
 SETTING CCSD           =     -3459.41776025  AU                              
 SETTING BIND           =        -0.24385086  AU                              
 Output type csv         
                                                                                                                                                                                                                                                                

  2.00,SCF,CCSD,BIND
   2.0,   -3457.960280,   -3459.417760,   -0.24385086
                                                  

 RCCSD(T)/USERDEF energy=  -3459.417760246323

        RCCSD(T)        RHF-SCF 
  -3459.41776025  -3457.96027999
 **********************************************************************************************************************************
 Molpro calculation terminated
 Variable memory released
