<?xml version="1.0"?>
<molpro xmlns="http://www.molpro.net/schema/molpro-output"
  xmlns:xsd="http://www.w3.org/1999/XMLSchema"
  xmlns:cml="http://www.xml-cml.org/schema"
  xmlns:stm="http://www.xml-cml.org/schema"
  xmlns:xhtml="http://www.w3.org/1999/xhtml">
 <!--

 Nodes     nprocs
 nid01367    11
 Number of processes for MPI-2 version of Molpro:   nprocs(total)=   12   nprocs(compute)=   11   nprocs(helper)=    1

 Using customized tuning parameters: mindgm=7; mindgv=16; mindgc=1; mindgr=1; noblas=0; minvec=7
 default implementation of scratch files=sf

 --><job>
  <!--

 Variables initialized (889), CPU time= 0.05 sec
 Commands  initialized (702), CPU time= 0.02 sec, 572 directives.
 Default parameters read. Elapsed time= 0.27 sec

 Checking input...
 Passed
1


                                         ***  PROGRAM SYSTEM MOLPRO  ***
                                       Copyright, TTI GmbH Stuttgart, 2015
                                    Version 2015.1 linked Dec 29 2018 15:55:43


 **********************************************************************************************************************************
 LABEL *   Calculation for Lu atom, singlet and triplet
  64 bit mpp version                                                                     DATE: 14-Apr-23          TIME: 11:14:56
 **********************************************************************************************************************************

 SHA1:             19cd028119e0e09f93f0674bd8af7968d9b3eff6
 **********************************************************************************************************************************
  -->
  <!--

 THRESHOLDS:

 ZERO    =  1.00D-12  ONEINT  =  1.00D-12  TWOINT  =  1.00D-15  PREFAC  =  1.00D-14  LOCALI  =  1.00D-09  EORDER  =  1.00D-04
 ENERGY  =  0.00D+00  ETEST   =  0.00D+00  EDENS   =  0.00D+00  THRDEDEF=  1.00D-06  GRADIENT=  1.00D-02  STEP    =  1.00D-03
 ORBITAL =  1.00D-05  CIVEC   =  1.00D-05  COEFF   =  1.00D-04  PRINTCI =  5.00D-02  PUNCHCI =  9.90D+01  OPTGRAD =  3.00D-04
 OPTENERG=  1.00D-06  OPTSTEP =  3.00D-04  THRGRAD =  1.00D-10  COMPRESS=  1.00D-11  VARMIN  =  1.00D-07  VARMAX  =  1.00D-03
 THRDOUB =  0.00D+00  THRDIV  =  1.00D-05  THRRED  =  1.00D-07  THRPSP  =  1.00D+00  THRDC   =  1.00D-10  THRCS   =  1.00D-10
 THRNRM  =  1.00D-08  THREQ   =  0.00D+00  THRDE   =  1.00D+00  THRREF  =  1.00D-05  SPARFAC =  1.00D+00  THRDLP  =  1.00D-07
 THRDIA  =  1.00D-10  THRDLS  =  1.00D-07  THRGPS  =  0.00D+00  THRKEX  =  0.00D+00  THRDIS  =  2.00D-01  THRVAR  =  1.00D-10
 THRLOC  =  1.00D-06  THRGAP  =  1.00D-06  THRLOCT = -1.00D+00  THRGAPT = -1.00D+00  THRORB  =  1.00D-06  THRMLTP =  0.00D+00
 THRCPQCI=  1.00D-10  KEXTA   =  0.00D+00  THRCOARS=  0.00D+00  SYMTOL  =  1.00D-06  GRADTOL =  1.00D-06  THROVL  =  1.00D-08
 THRORTH =  1.00D-08  GRID    =  1.00D-06  GRIDMAX =  1.00D-03  DTMAX   =  0.00D+00  THROCCDE=  1.00D-01  THROCCDE=  1.00D-01



 THRESHOLDS:

 ZERO    =  1.00D-12  ONEINT  =  1.00D-15  TWOINT  =  1.00D-15  PREFAC  =  1.00D-14  LOCALI  =  1.00D-09  EORDER  =  1.00D-04
 ENERGY  =  0.00D+00  ETEST   =  0.00D+00  EDENS   =  0.00D+00  THRDEDEF=  1.00D-06  GRADIENT=  1.00D-02  STEP    =  1.00D-03
 ORBITAL =  1.00D-05  CIVEC   =  1.00D-05  COEFF   =  1.00D-04  PRINTCI =  5.00D-02  PUNCHCI =  9.90D+01  OPTGRAD =  3.00D-04
 OPTENERG=  1.00D-06  OPTSTEP =  3.00D-04  THRGRAD =  1.00D-10  COMPRESS=  1.00D-11  VARMIN  =  1.00D-07  VARMAX  =  1.00D-03
 THRDOUB =  0.00D+00  THRDIV  =  1.00D-05  THRRED  =  1.00D-07  THRPSP  =  1.00D+00  THRDC   =  1.00D-10  THRCS   =  1.00D-10
 THRNRM  =  1.00D-08  THREQ   =  0.00D+00  THRDE   =  1.00D+00  THRREF  =  1.00D-05  SPARFAC =  1.00D+00  THRDLP  =  1.00D-07
 THRDIA  =  1.00D-10  THRDLS  =  1.00D-07  THRGPS  =  0.00D+00  THRKEX  =  0.00D+00  THRDIS  =  2.00D-01  THRVAR  =  1.00D-10
 THRLOC  =  1.00D-06  THRGAP  =  1.00D-06  THRLOCT = -1.00D+00  THRGAPT = -1.00D+00  THRORB  =  1.00D-06  THRMLTP =  0.00D+00
 THRCPQCI=  1.00D-10  KEXTA   =  0.00D+00  THRCOARS=  0.00D+00  SYMTOL  =  1.00D-06  GRADTOL =  1.00D-06  THROVL  =  1.00D-08
 THRORTH =  1.00D-08  GRID    =  1.00D-06  GRIDMAX =  1.00D-03  DTMAX   =  0.00D+00  THROCCDE=  1.00D-01  THROCCDE=  1.00D-01



Geometry recognized as XYZ


 Variable memory set to 1000000000 words,  buffer space   230000 words

 SETTING BASIS          =    USERDEF

 DO I                   =        13.00000000

 Running procedure=VIIIP4
  --><jobstep command="RHF-SCF" commandset="SCFPRO">
   <!--


 Recomputing integrals since basis changed


 Using spherical harmonics



 PROGRAM * SEWARD (Integral evaluation for generally contracted gaussian basis sets)     Author: Roland Lindh, 1990

 Geometry written to block  1 of record 700

 Orientation using atomic masses
 Molecule type: Atom
 Symmetry elements: X,Y,Z
 Rotational constants:       0.0000000      0.0000000      0.0000000 GHz  (calculated with average atomic masses)

 Point group  D2h


   --><cml:molecule>
    <cml:symmetry pointGroup="D2h"/>
    <cml:atomArray>
     <cml:atom id="a1" elementType="Lu" x3="0.0" y3="0.0" z3="0.0"/>
    </cml:atomArray>
    <cml:bondArray>
    </cml:bondArray>
   </cml:molecule><!--

 ATOMIC COORDINATES

 NR  ATOM    CHARGE       X              Y              Z

   1  LU     25.00    0.000000000    0.000000000    0.000000000

 NUCLEAR CHARGE:                   25
 NUMBER OF PRIMITIVE AOS:         516
 NUMBER OF SYMMETRY AOS:          389
 NUMBER OF CONTRACTIONS:          389   (  87Ag  +  63B3u +  63B2u +  31B1g +  63B1u +  31B2g +  31B3g +  20Au  )
 NUMBER OF CORE ORBITALS:           0   (   0Ag  +   0B3u +   0B2u +   0B1g +   0B1u +   0B2g +   0B3g +   0Au  )
 NUMBER OF VALENCE ORBITALS:       17   (   4Ag  +   3B3u +   3B2u +   1B1g +   3B1u +   1B2g +   1B3g +   1Au  )


 NUCLEAR REPULSION ENERGY    0.00000000

 EXTRA SYMMETRY OF AOS IN SYMMETRY 1:   1 1 1 1 1 1 1 1 1 1   1 1 1 1 1 1 1 1 1 1   1 1 1 1 1 1 1 1 1 1   1 2 3 2 3 2 3 2 3 2
                                        3 2 3 2 3 2 3 2 3 2   3 2 3 2 3 2 3 2 3 2   3 2 3 2 3 2 3 2 3 4   5 6 4 5 6 4 5 6 4 5
                                        6 4 5 6 4 5 6
 EXTRA SYMMETRY OF AOS IN SYMMETRY 2:   1 1 1 1 1 1 1 1 1 1   1 1 1 1 1 1 1 1 1 1   1 1 1 1 1 1 2 3 2 3   2 3 2 3 2 3 2 3 2 3
                                        2 3 2 3 2 3 2 3 2 3   2 3 2 3 4 5 6 4 5 6   4 5 6
 EXTRA SYMMETRY OF AOS IN SYMMETRY 3:   1 1 1 1 1 1 1 1 1 1   1 1 1 1 1 1 1 1 1 1   1 1 1 1 1 1 2 3 2 3   2 3 2 3 2 3 2 3 2 3
                                        2 3 2 3 2 3 2 3 2 3   2 3 2 3 4 5 6 4 5 6   4 5 6
 EXTRA SYMMETRY OF AOS IN SYMMETRY 4:   1 1 1 1 1 1 1 1 1 1   1 1 1 1 1 1 1 1 1 2   3 2 3 2 3 2 3 2 3 2   3
 EXTRA SYMMETRY OF AOS IN SYMMETRY 5:   1 1 1 1 1 1 1 1 1 1   1 1 1 1 1 1 1 1 1 1   1 1 1 1 1 1 2 3 2 3   2 3 2 3 2 3 2 3 2 3
                                        2 3 2 3 2 3 2 3 2 3   2 3 2 3 4 5 6 4 5 6   4 5 6
 EXTRA SYMMETRY OF AOS IN SYMMETRY 6:   1 1 1 1 1 1 1 1 1 1   1 1 1 1 1 1 1 1 1 2   3 2 3 2 3 2 3 2 3 2   3
 EXTRA SYMMETRY OF AOS IN SYMMETRY 7:   1 1 1 1 1 1 1 1 1 1   1 1 1 1 1 1 1 1 1 2   3 2 3 2 3 2 3 2 3 2   3
 EXTRA SYMMETRY OF AOS IN SYMMETRY 8:   1 1 1 1 1 1 1 1 1 1   1 1 1 1 2 3 2 3 2 3

 Eigenvalues of metric

         1 0.334E-06 0.975E-06 0.340E-05 0.187E-04 0.482E-04 0.711E-04 0.812E-04 0.812E-04
         2 0.961E-06 0.179E-05 0.251E-04 0.110E-03 0.535E-03 0.536E-03 0.536E-03 0.156E-02
         3 0.961E-06 0.179E-05 0.251E-04 0.110E-03 0.535E-03 0.536E-03 0.536E-03 0.156E-02
         4 0.812E-04 0.144E-03 0.238E-02 0.635E-02 0.105E-01 0.241E-01 0.241E-01 0.278E-01
         5 0.961E-06 0.179E-05 0.251E-04 0.110E-03 0.535E-03 0.536E-03 0.536E-03 0.156E-02
         6 0.812E-04 0.144E-03 0.238E-02 0.635E-02 0.105E-01 0.241E-01 0.241E-01 0.278E-01
         7 0.812E-04 0.144E-03 0.238E-02 0.635E-02 0.105E-01 0.241E-01 0.241E-01 0.278E-01
         8 0.536E-03 0.145E-01 0.220E-01 0.558E-01 0.111E+00 0.176E+00 0.268E+00 0.268E+00


 Contracted 2-electron integrals neglected if value below      1.0D-15
 AO integral compression algorithm  1   Integral accuracy      1.0D-15

     2532.573 MB (compressed) written to integral file ( 50.0%)

     Node minimum: 181.142 MB, node maximum: 293.339 MB


 NUMBER OF SORTED TWO-ELECTRON INTEGRALS:   33380080.     BUFFER LENGTH:  32768
 NUMBER OF SEGMENTS:   2  SEGMENT LENGTH:   31983937      RECORD LENGTH: 524288

 Memory used in sort:      32.54 MW

 SORT1 READ   632589735. AND WROTE    22015794. INTEGRALS IN     64 RECORDS. CPU TIME:    16.61 SEC, REAL TIME:    19.98 SEC
 SORT2 READ   243471794. AND WROTE   368240910. INTEGRALS IN   8008 RECORDS. CPU TIME:     2.45 SEC, REAL TIME:     3.77 SEC

 Node minimum:    33379029.  Node maximum:    33708496. integrals

 OPERATOR DM      FOR CENTER  0  COORDINATES:    0.000000    0.000000    0.000000


 **********************************************************************************************************************************
 DATASETS  * FILE   NREC   LENGTH (MB)   RECORD NAMES
              1      19       20.94       500      610      700      900      950      970     1000      129      960     1100
                                          VAR    BASINP    GEOM    SYMINP    ZMAT    AOBASIS   BASIS     P2S    ABASIS      S
                                         1400     1410     1420     1200     1210     1080     1600     1650     1700
                                           T        V       ECP      H0       H01     AOSYM     SMH    MOLCAS    OPER

 PROGRAMS   *        TOTAL       INT
 CPU TIMES  *        65.97     65.29
 REAL TIME  *        72.59 SEC
 DISK USED  *         5.44 GB
 GA USED    *         0.00 MB       (max)       0.00 MB       (current)
 **********************************************************************************************************************************


 PROGRAM * RHF-SCF (OPEN SHELL)       Authors: W. Meyer, H.-J. Werner


 NUMBER OF ELECTRONS:      11+    9-    SPACE SYMMETRY=7    SPIN SYMMETRY: Triplet
 CONVERGENCE THRESHOLDS:    1.00E-05 (Density)    1.00E-07 (Energy)
 MAX. NUMBER OF ITERATIONS:      150
 INTERPOLATION TYPE:            DIIS
 INTERPOLATION STEPS:              2 (START)      1 (STEP)
 LEVEL SHIFTS:                 -0.60 (CLOSED) -0.30 (OPEN)

 Number of closed-shell orbitals:    9 (   1   3   2   0   2   0   0   1 )
 Number of open-shell orbitals:      2 (   0   0   1   0   1   0   0   0 )



 Extra symmetries of mos in symmetry 2:   3   2   1
 Extra symmetries of mos in symmetry 3:   3   2   1
 Extra symmetries of mos in symmetry 5:   3   2   1
 Guess basis ATOMIC-GUESS,LU=ECP46_GUESS not found. No density guess!


 Molecular orbital dump at record        4202.2

 ITERATION    DDIFF          GRAD             ENERGY        2-EL.EN.            DIPOLE MOMENTS         DIIS   ORB.
    1      0.000D+00      0.000D+00      -172.53683046    423.750689    0.00000    0.00000    0.00000    0    start
    2      0.000D+00      0.401D+00      -148.57496735    125.929403    0.00000    0.00000    0.00000    0    diag,B
    3      0.150D+00      0.260D+00      -180.26917544    406.077369    0.00000    0.00000    0.00000    1    diag,B
    4      0.940D-01      0.357D+00      -196.32654446    357.076410    0.00000    0.00000    0.00000    2    diag,B
    5      0.611D-01      0.183D+00      -202.27719816    319.205285    0.00000    0.00000    0.00000    3    diag,B
    6      0.371D-01      0.687D-01      -203.33505351    297.118622    0.00000    0.00000    0.00000    4    diag,B
    7      0.215D-01      0.588D-02      -203.35336236    294.754918    0.00000    0.00000    0.00000    5    diag,B
    8      0.257D-02      0.244D-02      -203.34670678    294.785446    0.00000    0.00000    0.00000    6    diag,B
    9      0.877D-03      0.108D-02      -203.34520596    294.777519    0.00000    0.00000    0.00000    7    diag,B
   10      0.529D-03      0.582D-04      -203.34520691    294.785214    0.00000    0.00000    0.00000    8    orth
   11      0.419D-04      0.223D-04      -203.34520685    294.790352    0.00000    0.00000    0.00000    9    diag,B
   12      0.106D-04      0.602D-05      -203.34520685    294.791941    0.00000    0.00000    0.00000    9    diag,B
   13      0.272D-05      0.682D-06      -203.34520685    294.791915    0.00000    0.00000    0.00000    0    orth

 Final alpha occupancy:   1   3   3   0   3   0   0   1
 Final beta  occupancy:   1   3   2   0   2   0   0   1

 !RHF STATE 1.7 Energy               -203.345206848163
   --><property name="Energy" method="RHF" principal="true" stateSymmetry="7" stateNumber="1"
     value="-203.345206848163"/><!--
 Nuclear energy                         0.00000000
 One-electron energy                 -350.74116446
 Two-electron energy                  147.39595762
 Virial quotient                       -1.14318647
 !RHF STATE 1.7 Dipole moment           0.00000000     0.00000000     0.00000000
 Dipole moment /Debye                   0.00000000     0.00000000     0.00000000
   --><property name="Dipole moment" method="RHF" principal="true" stateSymmetry="7"
     stateNumber="1" value="0.0 0.0 0.0"/><!--

 ELECTRON ORBITALS
 =================


   Orb  Occ    Energy  Couls-En    Coefficients

                                   1 1s      1 1s      1 1s      1 1s      1 1s      1 1s      1 1s      1 1s      1 1s      1 1s
                                   1 1s      1 1s      1 1s      1 1s      1 1s      1 1s      1 1s      1 1s      1 1s      1 1s
                                   1 1s      1 1s      1 1s      1 1s      1 1s      1 1s      1 1s      1 1s      1 1s      1 1s
                                   1 1s      1 3d0     1 3d2+    1 3d0     1 3d2+    1 3d0     1 3d2+    1 3d0     1 3d2+    1 3d0
                                   1 3d2+    1 3d0     1 3d2+    1 3d0     1 3d2+    1 3d0     1 3d2+    1 3d0     1 3d2+    1 3d0
                                   1 3d2+    1 3d0     1 3d2+    1 3d0     1 3d2+    1 3d0     1 3d2+    1 3d0     1 3d2+    1 3d0
                                   1 3d2+    1 3d0     1 3d2+    1 3d0     1 3d2+    1 3d0     1 3d2+    1 3d0     1 3d2+    1 5g0
                                   1 5g4+    1 5g2+    1 5g0     1 5g4+    1 5g2+    1 5g0     1 5g4+    1 5g2+    1 5g0     1 5g4+
                                   1 5g2+    1 5g0     1 5g4+    1 5g2+    1 5g0     1 5g4+    1 5g2+

   1.1   2    -4.6922  -22.8213 -0.000000  0.000001 -0.000004  0.000013 -0.000036  0.000102 -0.000340  0.001924  0.006343 -0.004582
                                 0.007008 -0.013818 -0.005982  0.038718 -0.209192  0.253634 -0.148379  0.486373 -1.085040  0.054050
                                 1.087073  0.300147  0.009347 -0.017169  0.032152 -0.050731  0.038752 -0.015497  0.006009 -0.001555
                                 0.000277 -0.000000  0.000001  0.000002 -0.000003 -0.000006  0.000010  0.000018 -0.000030 -0.000057
                                 0.000098  0.000285 -0.000493 -0.000707  0.001224  0.000666 -0.001153 -0.000388  0.000672  0.000420
                                -0.000727 -0.000938  0.001624 -0.001530  0.002651  0.000533 -0.000924 -0.001811  0.003136  0.002586
                                -0.004479 -0.001287  0.002230  0.000255 -0.000442 -0.000091  0.000158  0.000024 -0.000042  0.000002
                                 0.000003 -0.000003 -0.000000 -0.000001  0.000000 -0.000006 -0.000013  0.000010  0.000006  0.000013
                                -0.000010 -0.000003 -0.000005  0.000004  0.000001  0.000002 -0.000001

   2.1   0    -1.8919  -14.9932 -0.000000  0.000000 -0.000000  0.000000 -0.000000  0.000000 -0.000000  0.000000  0.000000 -0.000000
                                 0.000000 -0.000000 -0.000000  0.000000 -0.000000  0.000000 -0.000000  0.000000 -0.000000  0.000000
                                -0.000000  0.000000  0.000000 -0.000000  0.000000 -0.000000  0.000000 -0.000000  0.000000 -0.000000
                                 0.000000 -0.000009 -0.000005  0.000045  0.000026 -0.000161 -0.000093  0.000517  0.000299 -0.001769
                                -0.001021  0.009907  0.005720 -0.026578 -0.015345  0.025852  0.014926 -0.012207 -0.007048 -0.082944
                                -0.047888  0.453284  0.261704  0.510613  0.294803  0.037530  0.021668  0.080264  0.046340 -0.134704
                                -0.077771  0.074388  0.042948 -0.016411 -0.009475  0.006132  0.003540 -0.001655 -0.000956 -0.000241
                                 0.000285  0.000215  0.003206 -0.003794 -0.002868  0.008252 -0.009764 -0.007381 -0.007746  0.009165
                                 0.006928  0.003170 -0.003751 -0.002836 -0.001054  0.001247  0.000943

   3.1   0    -1.8271  -14.8355  0.000000 -0.000000  0.000000 -0.000000  0.000000 -0.000001  0.000002 -0.000012 -0.000039  0.000028
                                -0.000041  0.000079  0.000036 -0.000213  0.001546 -0.002579  0.002024  0.004412 -0.020901  0.019761
                                 0.014718 -0.007970 -0.018770  0.000726 -0.003812  0.005266 -0.003765  0.001414 -0.000530  0.000134
                                -0.000024  0.000005 -0.000009 -0.000028  0.000048  0.000099 -0.000171 -0.000316  0.000547  0.001075
                                -0.001863 -0.005978  0.010354  0.015957 -0.027638 -0.015490  0.026830  0.007552 -0.013080  0.045357
                                -0.078561 -0.251683  0.435928 -0.297726  0.515676 -0.033053  0.057250 -0.025038  0.043366  0.048339
                                -0.083726 -0.028644  0.049613  0.006709 -0.011621 -0.002557  0.004428  0.000695 -0.001204  0.000242
                                 0.000477 -0.000361 -0.003301 -0.006510  0.004921 -0.008846 -0.017444  0.013186  0.008239  0.016247
                                -0.012282 -0.003381 -0.006667  0.005040  0.001125  0.002219 -0.001678

                                   1 2px     1 2px     1 2px     1 2px     1 2px     1 2px     1 2px     1 2px     1 2px     1 2px
                                   1 2px     1 2px     1 2px     1 2px     1 2px     1 2px     1 2px     1 2px     1 2px     1 2px
                                   1 2px     1 2px     1 2px     1 2px     1 2px     1 2px     1 4f1+    1 4f3+    1 4f1+    1 4f3+
                                   1 4f1+    1 4f3+    1 4f1+    1 4f3+    1 4f1+    1 4f3+    1 4f1+    1 4f3+    1 4f1+    1 4f3+
                                   1 4f1+    1 4f3+    1 4f1+    1 4f3+    1 4f1+    1 4f3+    1 4f1+    1 4f3+    1 4f1+    1 4f3+
                                   1 4f1+    1 4f3+    1 4f1+    1 4f3+    1 6h1+    1 6h3+    1 6h5+    1 6h1+    1 6h3+    1 6h5+
                                   1 6h1+    1 6h3+    1 6h5+

   1.2   2    -2.2580  -20.0500  0.000000 -0.000000  0.000000 -0.000000  0.000000 -0.000000  0.000000 -0.000001  0.000005 -0.000022
                                 0.000287 -0.000859  0.002542 -0.006064  0.005539  0.003868 -0.006650  0.002360 -0.014089 -0.014083
                                -0.003684  0.000699  0.013945 -0.000301  0.000126 -0.000028 -0.000014  0.000018  0.000075 -0.000096
                                 0.000005 -0.000007  0.027634 -0.035675  0.018132 -0.023409  0.136517 -0.176243  0.167091 -0.215714
                                 0.227821 -0.294115  0.189676 -0.244871  0.060588 -0.078219 -0.002502  0.003230  0.003171 -0.004094
                                -0.001664  0.002148  0.000550 -0.000709  0.000603 -0.000651  0.000874  0.001938 -0.002093  0.002808
                                 0.000562 -0.000607  0.000815

   2.2   2    -2.2779  -20.0743  0.000000  0.000000 -0.000000  0.000000 -0.000000  0.000000 -0.000000  0.000000 -0.000000  0.000000
                                -0.000000  0.000000 -0.000000  0.000000 -0.000000  0.000000 -0.000000  0.000000 -0.000000 -0.000000
                                -0.000000 -0.000000  0.000000 -0.000000  0.000000 -0.000000 -0.000019 -0.000014  0.000097  0.000075
                                 0.000002  0.000001  0.035666  0.027627  0.023295  0.018044  0.176140  0.136437  0.215567  0.166978
                                 0.294880  0.228413  0.245117  0.189867  0.077061  0.059691 -0.003379 -0.002617  0.004127  0.003197
                                -0.002155 -0.001669  0.000710  0.000550  0.000653 -0.000302 -0.000676  0.002102 -0.000973 -0.002175
                                 0.000599 -0.000277 -0.000620

   3.2   2    -3.6019  -19.9140 -0.000000  0.000001 -0.000002  0.000007 -0.000023  0.000068 -0.000190  0.000524 -0.001587  0.005860
                                -0.052814  0.138391 -0.278911  0.560116 -0.690056  0.157589  0.713543  0.047825  0.314312 -0.092373
                                 0.004394  0.003342  0.091823 -0.002170  0.000936 -0.000207 -0.000001  0.000002  0.000007 -0.000009
                                -0.000031  0.000040  0.000587 -0.000758 -0.000309  0.000398  0.002089 -0.002697  0.001363 -0.001759
                                 0.004309 -0.005563  0.004468 -0.005768  0.000357 -0.000461  0.000050 -0.000064 -0.000053  0.000068
                                 0.000029 -0.000038 -0.000010  0.000013  0.000008 -0.000009  0.000012  0.000032 -0.000034  0.000046
                                 0.000004 -0.000005  0.000006

   4.2   0    -1.1490   -9.2071 -0.000000  0.000000 -0.000000  0.000001 -0.000003  0.000010 -0.000027  0.000075 -0.000225  0.000827
                                -0.008502  0.024403 -0.058524  0.176817 -0.286448  0.083453  0.430697  0.066016  0.230326  3.503453
                                -0.949476 -0.398664 -3.452090  0.066922 -0.027238  0.005843 -0.000001  0.000001  0.000005 -0.000006
                                -0.000023  0.000029  0.000282 -0.000364 -0.000326  0.000421  0.000778 -0.001005 -0.000013  0.000017
                                 0.002386 -0.003081  0.000031 -0.000040 -0.013420  0.017326 -0.008861  0.011439  0.003110 -0.004015
                                -0.001444  0.001864  0.000453 -0.000584  0.000001 -0.000001  0.000001  0.000009 -0.000009  0.000013
                                -0.000107  0.000115 -0.000155

   5.2   0    -0.7480   -7.4858 -0.000000  0.000000 -0.000000  0.000000 -0.000000  0.000000 -0.000000  0.000000 -0.000000  0.000000
                                -0.000000  0.000000 -0.000000  0.000000 -0.000000  0.000000  0.000000  0.000000 -0.000000  0.000000
                                -0.000000  0.000000 -0.000000 -0.000000  0.000000 -0.000000 -0.000016 -0.000012  0.000091  0.000071
                                -0.000579 -0.000448 -0.005230 -0.004051 -0.016022 -0.012411 -0.041150 -0.031875 -0.068168 -0.052802
                                -0.064004 -0.049577 -0.034678 -0.026861  0.256262  0.198500  0.592120  0.458654 -0.000684 -0.000530
                                 0.071329  0.055251 -0.021457 -0.016620 -0.000144  0.000067  0.000149 -0.000756  0.000350  0.000782
                                 0.002907 -0.001346 -0.003009

                                   1 2py     1 2py     1 2py     1 2py     1 2py     1 2py     1 2py     1 2py     1 2py     1 2py
                                   1 2py     1 2py     1 2py     1 2py     1 2py     1 2py     1 2py     1 2py     1 2py     1 2py
                                   1 2py     1 2py     1 2py     1 2py     1 2py     1 2py     1 4f1-    1 4f3-    1 4f1-    1 4f3-
                                   1 4f1-    1 4f3-    1 4f1-    1 4f3-    1 4f1-    1 4f3-    1 4f1-    1 4f3-    1 4f1-    1 4f3-
                                   1 4f1-    1 4f3-    1 4f1-    1 4f3-    1 4f1-    1 4f3-    1 4f1-    1 4f3-    1 4f1-    1 4f3-
                                   1 4f1-    1 4f3-    1 4f1-    1 4f3-    1 6h1-    1 6h3-    1 6h5-    1 6h1-    1 6h3-    1 6h5-
                                   1 6h1-    1 6h3-    1 6h5-

   1.3   2    -2.2634  -20.0571 -0.000000  0.000000 -0.000000  0.000000 -0.000000  0.000001 -0.000003  0.000007 -0.000021  0.000075
                                -0.000602  0.001491 -0.002344  0.003913 -0.006383  0.005679  0.005912  0.002364 -0.006457 -0.012612
                                -0.002809  0.000608  0.012495 -0.000273  0.000115 -0.000025 -0.000006  0.000023  0.000031 -0.000119
                                 0.000002 -0.000006  0.011283 -0.043698  0.007391 -0.028627  0.055730 -0.215843  0.068204 -0.264155
                                 0.093080 -0.360498  0.077466 -0.300024  0.024644 -0.095445 -0.001032  0.003997  0.001296 -0.005021
                                -0.000679  0.002632  0.000224 -0.000869  0.000148 -0.000479  0.001070  0.000475 -0.001538  0.003440
                                 0.000137 -0.000444  0.000994

   2.3   2    -2.3024  -20.1037 -0.000000  0.000000 -0.000000  0.000000  0.000000 -0.000000  0.000000 -0.000000  0.000000 -0.000000
                                 0.000000 -0.000000  0.000000 -0.000000  0.000000 -0.000000 -0.000000 -0.000000 -0.000000  0.000000
                                 0.000000 -0.000000 -0.000000  0.000000 -0.000000  0.000000 -0.000023 -0.000006  0.000121  0.000031
                                -0.000006 -0.000002  0.043667  0.011275  0.028358  0.007322  0.215556  0.055656  0.263778  0.068107
                                 0.362314  0.093549  0.300399  0.077563  0.092514  0.023887 -0.004330 -0.001118  0.005081  0.001312
                                -0.002637 -0.000681  0.000868  0.000224  0.000266 -0.000534 -0.000276  0.000858 -0.001721 -0.000888
                                 0.000239 -0.000480 -0.000248

   3.3   +    -3.7351  -20.0896 -0.000000  0.000001 -0.000002  0.000008 -0.000025  0.000074 -0.000206  0.000568 -0.001720  0.006353
                                -0.057085  0.149303 -0.299996  0.590563 -0.712303  0.157840  0.738511  0.044294  0.297961 -0.119484
                                 0.000592  0.004681  0.118677 -0.002755  0.001182 -0.000261 -0.000001  0.000003  0.000004 -0.000017
                                -0.000023  0.000088  0.000078 -0.000301 -0.000460  0.001781 -0.000215  0.000831 -0.001145  0.004433
                                 0.000283 -0.001096  0.000771 -0.002987 -0.000518  0.002005  0.000079 -0.000305 -0.000086  0.000333
                                 0.000046 -0.000177 -0.000015  0.000059 -0.000002  0.000006 -0.000013  0.000001 -0.000002  0.000005
                                -0.000003  0.000008 -0.000019

   4.3   0    -1.1720   -9.3105  0.000000 -0.000000  0.000001 -0.000002  0.000006 -0.000017  0.000048 -0.000131  0.000394 -0.001447
                                 0.013623 -0.036900  0.080099 -0.205489  0.309125 -0.093850 -0.427232 -0.118201 -0.163191 -3.104928
                                 0.961976  0.358586  3.058114 -0.058717  0.023829 -0.005104  0.000000 -0.000001 -0.000002  0.000007
                                 0.000008 -0.000033 -0.000099  0.000384  0.000124 -0.000480 -0.000261  0.001011  0.000031 -0.000119
                                -0.000815  0.003156  0.000034 -0.000131  0.004416 -0.017102  0.002719 -0.010530 -0.000965  0.003739
                                 0.000442 -0.001713 -0.000138  0.000536 -0.000000  0.000000 -0.000001 -0.000002  0.000005 -0.000011
                                 0.000021 -0.000067  0.000150

   5.3   0    -0.7563   -7.5732  0.000000 -0.000000  0.000000 -0.000000 -0.000000  0.000000 -0.000000  0.000000 -0.000000  0.000000
                                -0.000000  0.000000 -0.000000  0.000000 -0.000000  0.000000 -0.000000  0.000000 -0.000000  0.000000
                                -0.000000  0.000000 -0.000000  0.000000 -0.000000  0.000000 -0.000019 -0.000005  0.000111  0.000029
                                -0.000711 -0.000184 -0.006650 -0.001717 -0.019860 -0.005128 -0.051673 -0.013342 -0.085200 -0.021999
                                -0.081128 -0.020947 -0.040609 -0.010485  0.328243  0.084752  0.723986  0.186932 -0.014670 -0.003788
                                 0.087807  0.022672 -0.026643 -0.006879 -0.000060  0.000121  0.000062 -0.000308  0.000617  0.000319
                                 0.001216 -0.002439 -0.001259

                                   1 3d2-    1 3d2-    1 3d2-    1 3d2-    1 3d2-    1 3d2-    1 3d2-    1 3d2-    1 3d2-    1 3d2-
                                   1 3d2-    1 3d2-    1 3d2-    1 3d2-    1 3d2-    1 3d2-    1 3d2-    1 3d2-    1 3d2-    1 5g2-
                                   1 5g4-    1 5g2-    1 5g4-    1 5g2-    1 5g4-    1 5g2-    1 5g4-    1 5g2-    1 5g4-    1 5g2-
                                   1 5g4-

   1.4   0    -1.8424  -14.8750 -0.000010  0.000055 -0.000195  0.000627 -0.002134  0.011880 -0.031744  0.030832 -0.014953 -0.091828
                                 0.508387  0.594047  0.060511  0.060370 -0.110902  0.064200 -0.014755  0.005588 -0.001516 -0.000210
                                 0.000556  0.002849 -0.007538  0.007559 -0.020000 -0.007054  0.018663  0.002893 -0.007653 -0.000963
                                 0.002547

   2.4   0    -0.8364   -7.2667  0.000002 -0.000008  0.000031 -0.000108  0.000413 -0.002770  0.008370 -0.008853  0.004867  0.047482
                                -0.280217 -0.322265  0.739063  0.538754 -0.135716  0.011511  0.010586 -0.005147  0.001503  0.000070
                                -0.000185 -0.001273  0.003367 -0.000391  0.001035  0.003679 -0.009735  0.000304 -0.000803  0.000281
                                -0.000744

                                   1 2pz     1 2pz     1 2pz     1 2pz     1 2pz     1 2pz     1 2pz     1 2pz     1 2pz     1 2pz
                                   1 2pz     1 2pz     1 2pz     1 2pz     1 2pz     1 2pz     1 2pz     1 2pz     1 2pz     1 2pz
                                   1 2pz     1 2pz     1 2pz     1 2pz     1 2pz     1 2pz     1 4f0     1 4f2+    1 4f0     1 4f2+
                                   1 4f0     1 4f2+    1 4f0     1 4f2+    1 4f0     1 4f2+    1 4f0     1 4f2+    1 4f0     1 4f2+
                                   1 4f0     1 4f2+    1 4f0     1 4f2+    1 4f0     1 4f2+    1 4f0     1 4f2+    1 4f0     1 4f2+
                                   1 4f0     1 4f2+    1 4f0     1 4f2+    1 6h2+    1 6h4+    1 6h0     1 6h2+    1 6h4+    1 6h0
                                   1 6h2+    1 6h4+    1 6h0

   1.5   2    -2.2634  -20.0571  0.000000 -0.000000  0.000000 -0.000000  0.000000 -0.000001  0.000003 -0.000007  0.000021 -0.000075
                                 0.000602 -0.001491  0.002344 -0.003913  0.006383 -0.005679 -0.005912 -0.002364  0.006457  0.012612
                                 0.002809 -0.000608 -0.012495  0.000273 -0.000115  0.000025  0.000014 -0.000018 -0.000075  0.000097
                                -0.000004  0.000005 -0.027637  0.035679 -0.018105  0.023374 -0.136511  0.176235 -0.167066  0.215681
                                -0.227999  0.294345 -0.189752  0.244969 -0.060365  0.077931  0.002528 -0.003264 -0.003176  0.004100
                                 0.001664 -0.002149 -0.000549  0.000709  0.000781 -0.000677 -0.000572  0.002512 -0.002175 -0.001839
                                 0.000726 -0.000628 -0.000531

   2.5   2    -2.3024  -20.1037 -0.000000  0.000000 -0.000000  0.000000 -0.000000  0.000000 -0.000000  0.000000 -0.000000  0.000000
                                -0.000000  0.000000 -0.000000  0.000000 -0.000000  0.000000  0.000000  0.000000  0.000000 -0.000000
                                 0.000000  0.000000  0.000000 -0.000000  0.000000 -0.000000 -0.000019 -0.000015  0.000099  0.000076
                                -0.000005 -0.000004  0.035654  0.027617  0.023154  0.017935  0.176001  0.136330  0.215374  0.166828
                                 0.295828  0.229147  0.245274  0.189989  0.075537  0.058511 -0.003535 -0.002739  0.004148  0.003213
                                -0.002153 -0.001668  0.000709  0.000549 -0.000201 -0.000523  0.000344 -0.000649 -0.001685  0.001108
                                -0.000181 -0.000470  0.000309

   3.5   +    -3.7351  -20.0896 -0.000000  0.000001 -0.000002  0.000008 -0.000025  0.000074 -0.000206  0.000568 -0.001720  0.006353
                                -0.057085  0.149303 -0.299996  0.590563 -0.712303  0.157840  0.738511  0.044294  0.297961 -0.119484
                                 0.000592  0.004681  0.118677 -0.002755  0.001182 -0.000261 -0.000002  0.000002  0.000011 -0.000014
                                -0.000056  0.000072  0.000190 -0.000245 -0.001126  0.001454 -0.000526  0.000679 -0.002804  0.003620
                                 0.000693 -0.000895  0.001889 -0.002439 -0.001268  0.001637  0.000193 -0.000249 -0.000210  0.000272
                                 0.000112 -0.000145 -0.000037  0.000048  0.000010 -0.000008 -0.000007 -0.000003  0.000003  0.000002
                                 0.000014 -0.000012 -0.000010

   4.5   0    -1.1720   -9.3105  0.000000 -0.000000  0.000001 -0.000002  0.000006 -0.000017  0.000048 -0.000131  0.000394 -0.001447
                                 0.013623 -0.036900  0.080099 -0.205489  0.309125 -0.093850 -0.427232 -0.118201 -0.163191 -3.104928
                                 0.961976  0.358586  3.058114 -0.058717  0.023829 -0.005104  0.000001 -0.000001 -0.000004  0.000006
                                 0.000021 -0.000027 -0.000243  0.000313  0.000303 -0.000392 -0.000640  0.000826  0.000075 -0.000097
                                -0.001996  0.002577  0.000083 -0.000107  0.010816 -0.013964  0.006660 -0.008598 -0.002365  0.003053
                                 0.001083 -0.001399 -0.000339  0.000437  0.000000 -0.000000 -0.000000  0.000008 -0.000007 -0.000006
                                -0.000110  0.000095  0.000080

   5.5   0    -0.7563   -7.5732  0.000000  0.000000 -0.000000  0.000000 -0.000000 -0.000000  0.000000 -0.000000  0.000000 -0.000000
                                 0.000000 -0.000000  0.000000 -0.000000  0.000000 -0.000000 -0.000000 -0.000000  0.000000  0.000000
                                 0.000000 -0.000000 -0.000000  0.000000 -0.000000  0.000000 -0.000016 -0.000012  0.000091  0.000070
                                -0.000581 -0.000450 -0.005430 -0.004206 -0.016215 -0.012560 -0.042190 -0.032681 -0.069566 -0.053885
                                -0.066240 -0.051310 -0.033157 -0.025684  0.268009  0.207599  0.591132  0.457889 -0.011978 -0.009278
                                 0.071694  0.055534 -0.021754 -0.016851  0.000045  0.000118 -0.000078  0.000233  0.000604 -0.000397
                                -0.000919 -0.002388  0.001570

                                   1 3d1+    1 3d1+    1 3d1+    1 3d1+    1 3d1+    1 3d1+    1 3d1+    1 3d1+    1 3d1+    1 3d1+
                                   1 3d1+    1 3d1+    1 3d1+    1 3d1+    1 3d1+    1 3d1+    1 3d1+    1 3d1+    1 3d1+    1 5g1+
                                   1 5g3+    1 5g1+    1 5g3+    1 5g1+    1 5g3+    1 5g1+    1 5g3+    1 5g1+    1 5g3+    1 5g1+
                                   1 5g3+

   1.6   0    -1.8424  -14.8750 -0.000010  0.000055 -0.000195  0.000627 -0.002134  0.011880 -0.031744  0.030832 -0.014953 -0.091828
                                 0.508387  0.594047  0.060511  0.060370 -0.110902  0.064200 -0.014755  0.005588 -0.001516 -0.000446
                                 0.000393  0.006044 -0.005330  0.016035 -0.014142 -0.014964  0.013197  0.006136 -0.005412 -0.002042
                                 0.001801

   2.6   0    -0.8364   -7.2667  0.000002 -0.000008  0.000031 -0.000108  0.000413 -0.002770  0.008370 -0.008853  0.004867  0.047482
                                -0.280217 -0.322265  0.739063  0.538754 -0.135716  0.011511  0.010586 -0.005147  0.001503  0.000148
                                -0.000131 -0.002700  0.002381 -0.000830  0.000732  0.007805 -0.006884  0.000644 -0.000568  0.000596
                                -0.000526

                                   1 3d1-    1 3d1-    1 3d1-    1 3d1-    1 3d1-    1 3d1-    1 3d1-    1 3d1-    1 3d1-    1 3d1-
                                   1 3d1-    1 3d1-    1 3d1-    1 3d1-    1 3d1-    1 3d1-    1 3d1-    1 3d1-    1 3d1-    1 5g1-
                                   1 5g3-    1 5g1-    1 5g3-    1 5g1-    1 5g3-    1 5g1-    1 5g3-    1 5g1-    1 5g3-    1 5g1-
                                   1 5g3-

   1.7   0    -1.8919  -14.9932 -0.000010  0.000052 -0.000186  0.000598 -0.002042  0.011440 -0.030689  0.029852 -0.014096 -0.095776
                                 0.523407  0.589606  0.043336  0.092680 -0.155542  0.085895 -0.018949  0.007080 -0.001911 -0.000152
                                 0.000403  0.002028 -0.005365  0.005219 -0.013809 -0.004899  0.012962  0.002005 -0.005305 -0.000667
                                 0.001764

   2.7   0    -0.8474   -7.3270  0.000001 -0.000005  0.000017 -0.000064  0.000274 -0.002095  0.006751 -0.007379  0.003931  0.050076
                                -0.291333 -0.310933  0.776650  0.435407 -0.021223 -0.045144  0.021282 -0.008948  0.002506  0.000050
                                -0.000131 -0.000901  0.002383 -0.000118  0.000311  0.002467 -0.006528  0.000225 -0.000596  0.000178
                                -0.000470

                                   1 4f2-    1 4f2-    1 4f2-    1 4f2-    1 4f2-    1 4f2-    1 4f2-    1 4f2-    1 4f2-    1 4f2-
                                   1 4f2-    1 4f2-    1 4f2-    1 4f2-    1 6h4-    1 6h2-    1 6h4-    1 6h2-    1 6h4-    1 6h2-


   1.8   2    -2.2779  -20.0743 -0.000023  0.000123  0.000002  0.045115  0.029466  0.222801  0.272673  0.372997  0.310051  0.097475
                                -0.004274  0.005220 -0.002725  0.000899 -0.000855  0.000494 -0.002752  0.001589 -0.000785  0.000453

   2.8   0    -0.7480   -7.4858 -0.000020  0.000115 -0.000732 -0.006615 -0.020266 -0.052051 -0.086226 -0.080960 -0.043864  0.324148
                                 0.748980 -0.000865  0.090225 -0.027141  0.000189 -0.000109  0.000990 -0.000571 -0.003807  0.002198

   3.8   0    -0.4807   -4.8169  0.000017 -0.000099  0.000617  0.004637  0.016543  0.039085  0.067108  0.058962  0.022203 -0.327854
                                -0.628257  0.896180  0.427672  0.011208 -0.000146  0.000084 -0.000567  0.000327  0.003136 -0.001811

 HOMO      1.8    -2.277867 =     -61.9839eV
 LUMO      2.1    -1.891904 =     -51.4813eV
 LUMO-HOMO         0.385963 =      10.5026eV


 **********************************************************************************************************************************
 DATASETS  * FILE   NREC   LENGTH (MB)   RECORD NAMES
              1      19       20.98       500      610      700      900      950      970     1000      129      960     1100
                                          VAR    BASINP    GEOM    SYMINP    ZMAT    AOBASIS   BASIS     P2S    ABASIS      S
                                         1400     1410     1420     1200     1210     1080     1600     1650     1700
                                           T        V       ECP      H0       H01     AOSYM     SMH    MOLCAS    OPER

              2       5        6.05       200      700     1000      520     4202
                                        OPTIONS   GEOM     BASIS   MCVARS     RHF

 PROGRAMS   *        TOTAL       RHF       INT
 CPU TIMES  *        67.67      1.69     65.29
 REAL TIME  *        74.83 SEC
 DISK USED  *         5.78 GB
 SF USED    *         0.09 MB
 GA USED    *         0.00 MB       (max)       0.00 MB       (current)
 **********************************************************************************************************************************
   -->
   <time start="11:14:56" end="11:16:10" cpu="67.67" system="5.43" real="74.83"/>
   <storage units="megabyte" memory="8001.84" sf="0.09" df="335.14" eaf="5443.07" ga="0.0"/>
  </jobstep><!--
  --><jobstep command="POP" commandset="POP">
   <!--


 PROGRAM * POP (Mulliken population analysis)


 Density matrix read from record         4202.2  Type=RHF/CHARGE (state 1.7)

 Population analysis by basis function type

 Unique atom        s        p        d        f        g    Total    Charge
   1  LU      1.99997  4.00022  0.00003 13.99952  0.00000 20.00000  + 5.00000


 **********************************************************************************************************************************
 DATASETS  * FILE   NREC   LENGTH (MB)   RECORD NAMES
              1      19       20.98       500      610      700      900      950      970     1000      129      960     1100
                                          VAR    BASINP    GEOM    SYMINP    ZMAT    AOBASIS   BASIS     P2S    ABASIS      S
                                         1400     1410     1420     1200     1210     1080     1600     1650     1700
                                           T        V       ECP      H0       H01     AOSYM     SMH    MOLCAS    OPER

              2       5        6.05       200      700     1000      520     4202
                                        OPTIONS   GEOM     BASIS   MCVARS     RHF

 PROGRAMS   *        TOTAL       POP       RHF       INT
 CPU TIMES  *        67.69      0.00      1.69     65.29
 REAL TIME  *        74.86 SEC
 DISK USED  *         5.78 GB
 SF USED    *         0.09 MB
 GA USED    *         0.00 MB       (max)       0.00 MB       (current)
 **********************************************************************************************************************************
   -->
   <time start="11:16:10" end="11:16:10" cpu="0.02" system="0.0" real="0.03"/>
   <storage units="megabyte" memory="8001.84" sf="0.09" df="335.14" eaf="5443.07" ga="0.0"/>
  </jobstep><!--
  --><jobstep command="MULTI" commandset="MULTI">
   <!--


 PROGRAM * MULTI (Direct Multiconfiguration SCF)       Authors: P.J. Knowles, H.-J. Werner (1984)     S.T. Elbert (1988)


 Number of closed-shell orbitals:   8 (   1   2   2   0   2   0   0   1 )
 Number of active  orbitals:        3 (   0   1   1   0   1   0   0   0 )
 Number of external orbitals:     378 (  86  60  60  31  60  31  31  19 )

 State symmetry 1

 Number of electrons:     4    Spin symmetry=Triplet   Space symmetry=7
 Number of states:        1
 Number of CSFs:          1   (1 determinants, 3 intermediate states)

 State symmetry 2

 Number of electrons:     4    Spin symmetry=Triplet   Space symmetry=6
 Number of states:        1
 Number of CSFs:          1   (1 determinants, 3 intermediate states)

 State symmetry 3

 Number of electrons:     4    Spin symmetry=Triplet   Space symmetry=4
 Number of states:        1
 Number of CSFs:          1   (1 determinants, 3 intermediate states)

 Molecular orbitals read from record     4202.2  Type=RHF/CANONICAL (state 1.7)
 *** IN SYMMETRY 1 ORBITAL  1 SYMMETRY CONTAMINATION OF 0.814D-02 HAS BEEN REMOVED

 EXTRA SYMMETRY OF MOS IN SYMMETRY 1:   1 2 3 1 2 3 1 2 3 4   5 6 1 2 3 4 1 5 6 2   3 1 2 3 1 2 3 1 1 4   5 3 2 3 1 6 5 6 2 1
                                        1 4 5 6 1 2 3 1 4 5   6 2 3 1 2 3 1 2 3 1   2 3 1 2 3 1 2 3 1 1   2 3 1 2 3 1 1 2 3 1
                                        1 1 1 1 1 1 4
 *** IN SYMMETRY 2 ORBITAL  1 SYMMETRY CONTAMINATION OF 0.461D+00 HAS BEEN REMOVED
 *** IN SYMMETRY 2 ORBITAL  2 SYMMETRY CONTAMINATION OF 0.439D+00 HAS BEEN REMOVED
 *** IN SYMMETRY 2 ORBITAL  3 SYMMETRY CONTAMINATION OF 0.987D-02 HAS BEEN REMOVED
 EXTRA SYMMETRY OF MOS IN SYMMETRY 2:   3 2 1 1 2 3 1 2 3 1   2 3 1 2 3 1 1 1 2 3   1 5 6 4 2 3 1 5 6 4   2 1 1 1 2 3 5 6 4 1
                                        2 3 1 1 2 3 1 2 3 1   1 2 3 1 2 3 1 1 1 1   1 1 3
 *** IN SYMMETRY 3 ORBITAL  1 SYMMETRY CONTAMINATION OF 0.239D+00 HAS BEEN REMOVED
 *** IN SYMMETRY 3 ORBITAL  2 SYMMETRY CONTAMINATION OF 0.208D+00 HAS BEEN REMOVED
 *** IN SYMMETRY 3 ORBITAL  3 SYMMETRY CONTAMINATION OF 0.548D-02 HAS BEEN REMOVED
 EXTRA SYMMETRY OF MOS IN SYMMETRY 3:   3 2 1 1 2 3 1 2 3 1   2 3 1 2 3 1 1 1 2 3   1 4 2 5 6 3 1 4 5 6   2 1 1 1 2 3 4 5 6 1
                                        2 3 1 1 2 3 1 2 3 1   1 2 3 1 2 3 1 1 1 1   1 1 3
 EXTRA SYMMETRY OF MOS IN SYMMETRY 4:   1 1 1 2 3 1 2 3 1 1   1 2 3 1 2 3 1 2 3 1   2 3 1 1 1 1 1 1 1 1   1
 *** IN SYMMETRY 5 ORBITAL  1 SYMMETRY CONTAMINATION OF 0.458D+00 HAS BEEN REMOVED
 *** IN SYMMETRY 5 ORBITAL  2 SYMMETRY CONTAMINATION OF 0.438D+00 HAS BEEN REMOVED
 *** IN SYMMETRY 5 ORBITAL  3 SYMMETRY CONTAMINATION OF 0.630D-02 HAS BEEN REMOVED
 EXTRA SYMMETRY OF MOS IN SYMMETRY 5:   3 2 1 1 2 3 1 2 3 1   2 3 1 2 3 1 1 1 2 3   1 6 2 3 4 1 1 6 5 4   2 1 1 1 2 3 6 5 4 1
                                        2 3 1 1 2 3 1 2 3 1   1 2 3 1 2 3 1 1 1 1   1 3 5
 EXTRA SYMMETRY OF MOS IN SYMMETRY 6:   1 1 1 3 2 1 3 2 1 1   1 3 2 1 3 2 1 3 2 1   3 2 1 1 1 1 1 1 1 1   1
 EXTRA SYMMETRY OF MOS IN SYMMETRY 7:   1 1 1 2 3 1 2 3 1 1   1 2 3 1 2 3 1 2 3 1   2 3 1 1 1 1 1 1 1 1   1
 *** IN SYMMETRY 8 ORBITAL  1 SYMMETRY CONTAMINATION OF 0.505D-02 HAS BEEN REMOVED
 EXTRA SYMMETRY OF MOS IN SYMMETRY 8:   1 1 1 1 1 1 3 2 1 3   2 1 1 3 2 1 1 1 1 1

 Wavefunction dump at record             5202.2

 Convergence thresholds  0.10E-01 (gradient)  0.10E-05 (energy)  0.10E-02 (step length)

 Weight factors for state symmetry  1:    0.33333
 Weight factors for state symmetry  2:    0.33333
 Weight factors for state symmetry  3:    0.33333

 Number of orbital rotations:      651   (     6 Core/Active    465 Core/Virtual   0 Active/Active    180 Active/Virtual)
 Total number of variables:        654


 ITER. MIC  NCI  NEG     ENERGY(VAR)     ENERGY(PROJ)   ENERGY CHANGE     GRAD(0)  GRAD(ORB)   GRAD(CI)     STEP       TIME

   1   37   12    0    -203.34177652    -203.34214515   -0.00036863    0.15582073 0.00000000 0.00000000  0.10D-01      0.86
   2   22   15    0    -203.34214484    -203.34214502   -0.00000018    0.14945406 0.00000002 0.00000000  0.50D-05      1.55

 ** WVFN ****  CONVERGENCE REACHED, FINAL GRADIENT:  0.15D-07



 Results for state 1.7
 =====================

 !MCSCF STATE 1.7 Energy             -203.342145024576
   --><property name="Energy" method="MCSCF" principal="true" stateSymmetry="7" stateNumber="1"
     value="-203.342145024576"/><!--
 Nuclear energy                         0.00000000
 Kinetic energy                       177.87548779
 One electron energy                 -350.74458945
 Two electron energy                  147.40244442
 Virial ratio                           2.14317126

 !MCSCF STATE 1.7 Dipole moment         0.00000000     0.00000000     0.00000000
 Dipole moment /Debye                   0.00000000     0.00000000     0.00000000
   --><property name="Dipole moment" method="MCSCF" principal="true" stateSymmetry="7"
     stateNumber="1" value="0.0 0.0 0.0"/><!--



 Results for state 1.6
 =====================

 !MCSCF STATE 1.6 Energy             -203.342145024576
   --><property name="Energy" method="MCSCF" principal="true" stateSymmetry="6" stateNumber="1"
     value="-203.342145024576"/><!--
 Nuclear energy                         0.00000000
 Kinetic energy                       177.87548779
 One electron energy                 -350.74458945
 Two electron energy                  147.40244442
 Virial ratio                           2.14317126

 !MCSCF STATE 1.6 Dipole moment         0.00000000     0.00000000     0.00000000
 Dipole moment /Debye                   0.00000000     0.00000000     0.00000000
   --><property name="Dipole moment" method="MCSCF" principal="true" stateSymmetry="6"
     stateNumber="1" value="0.0 0.0 0.0"/><!--



 Results for state 1.4
 =====================

 !MCSCF STATE 1.4 Energy             -203.342145024576
   --><property name="Energy" method="MCSCF" principal="true" stateSymmetry="4" stateNumber="1"
     value="-203.342145024576"/><!--
 Nuclear energy                         0.00000000
 Kinetic energy                       177.87548779
 One electron energy                 -350.74458945
 Two electron energy                  147.40244442
 Virial ratio                           2.14317126

 !MCSCF STATE 1.4 Dipole moment         0.00000000     0.00000000     0.00000000
 Dipole moment /Debye                   0.00000000     0.00000000     0.00000000
   --><property name="Dipole moment" method="MCSCF" principal="true" stateSymmetry="4"
     stateNumber="1" value="0.0 0.0 0.0"/><!--

 State-averaged charge density matrix saved on record  5202.2 (density set 1)


 NATURAL ORBITALS (state averaged)
 =================================

   Orb     Occ        Energy       Coefficients

                                   1 1s      1 1s      1 1s      1 1s      1 1s      1 1s      1 1s      1 1s      1 1s      1 1s
                                   1 1s      1 1s      1 1s      1 1s      1 1s      1 1s      1 1s      1 1s      1 1s      1 1s
                                   1 1s      1 1s      1 1s      1 1s      1 1s      1 1s      1 1s      1 1s      1 1s      1 1s
                                   1 1s      1 3d0     1 3d2+    1 3d0     1 3d2+    1 3d0     1 3d2+    1 3d0     1 3d2+    1 3d0
                                   1 3d2+    1 3d0     1 3d2+    1 3d0     1 3d2+    1 3d0     1 3d2+    1 3d0     1 3d2+    1 3d0
                                   1 3d2+    1 3d0     1 3d2+    1 3d0     1 3d2+    1 3d0     1 3d2+    1 3d0     1 3d2+    1 3d0
                                   1 3d2+    1 3d0     1 3d2+    1 3d0     1 3d2+    1 3d0     1 3d2+    1 3d0     1 3d2+    1 5g0
                                   1 5g4+    1 5g2+    1 5g0     1 5g4+    1 5g2+    1 5g0     1 5g4+    1 5g2+    1 5g0     1 5g4+
                                   1 5g2+    1 5g0     1 5g4+    1 5g2+    1 5g0     1 5g4+    1 5g2+

   1.1  2.00000    -4.692167    -0.000000  0.000001 -0.000004  0.000013 -0.000036  0.000102 -0.000340  0.001924  0.006342 -0.004581
                                 0.007007 -0.013816 -0.005981  0.038712 -0.209157  0.253587 -0.148348  0.486340 -1.084994  0.054018
                                 1.087035  0.300214  0.009322 -0.017152  0.032130 -0.050699  0.038729 -0.015489  0.006005 -0.001554
                                 0.000277  0.000000  0.000000  0.000000  0.000000  0.000000  0.000000  0.000000  0.000000  0.000000
                                 0.000000  0.000000  0.000000  0.000000  0.000000  0.000000  0.000000  0.000000  0.000000  0.000000
                                 0.000000  0.000000  0.000000  0.000000  0.000000  0.000000  0.000000  0.000000  0.000000  0.000000
                                 0.000000  0.000000  0.000000  0.000000  0.000000  0.000000  0.000000  0.000000  0.000000  0.000000
                                 0.000000  0.000000  0.000000  0.000000  0.000000  0.000000  0.000000  0.000000  0.000000  0.000000
                                 0.000000  0.000000  0.000000  0.000000  0.000000  0.000000  0.000000

                                   1 2px     1 2px     1 2px     1 2px     1 2px     1 2px     1 2px     1 2px     1 2px     1 2px
                                   1 2px     1 2px     1 2px     1 2px     1 2px     1 2px     1 2px     1 2px     1 2px     1 2px
                                   1 2px     1 2px     1 2px     1 2px     1 2px     1 2px     1 4f1+    1 4f3+    1 4f1+    1 4f3+
                                   1 4f1+    1 4f3+    1 4f1+    1 4f3+    1 4f1+    1 4f3+    1 4f1+    1 4f3+    1 4f1+    1 4f3+
                                   1 4f1+    1 4f3+    1 4f1+    1 4f3+    1 4f1+    1 4f3+    1 4f1+    1 4f3+    1 4f1+    1 4f3+
                                   1 4f1+    1 4f3+    1 4f1+    1 4f3+    1 6h1+    1 6h3+    1 6h5+    1 6h1+    1 6h3+    1 6h5+
                                   1 6h1+    1 6h3+    1 6h5+

   1.2  2.00000    -2.277739     0.000000  0.000000  0.000000  0.000000  0.000000  0.000000  0.000000  0.000000  0.000000  0.000000
                                 0.000000  0.000000  0.000000  0.000000  0.000000  0.000000  0.000000  0.000000  0.000000  0.000000
                                 0.000000  0.000000  0.000000  0.000000  0.000000  0.000000  0.000000  0.000023  0.000000 -0.000123
                                 0.000000 -0.000002  0.000000 -0.045115  0.000000 -0.029469  0.000000 -0.222807  0.000000 -0.272683
                                 0.000000 -0.373006  0.000000 -0.310032  0.000000 -0.097480  0.000000  0.004273  0.000000 -0.005220
                                 0.000000  0.002725  0.000000 -0.000899  0.000000  0.000000  0.000000  0.000000  0.000000  0.000000
                                 0.000000  0.000000  0.000000

   2.2  2.00000    -2.277739     0.000000  0.000000  0.000000  0.000000  0.000000  0.000000  0.000000  0.000000  0.000000  0.000000
                                 0.000000  0.000000  0.000000  0.000000  0.000000  0.000000  0.000000  0.000000  0.000000  0.000000
                                 0.000000  0.000000  0.000000  0.000000  0.000000  0.000000 -0.000023  0.000000  0.000123  0.000000
                                 0.000002  0.000000  0.045115  0.000000  0.029469  0.000000  0.222807  0.000000  0.272683  0.000000
                                 0.373006  0.000000  0.310032  0.000000  0.097480  0.000000 -0.004273  0.000000  0.005220  0.000000
                                -0.002725  0.000000  0.000899  0.000000  0.000000  0.000000  0.000000  0.000000  0.000000  0.000000
                                 0.000000  0.000000  0.000000

   3.2  1.33333    -3.438373    -0.000000  0.000001 -0.000002  0.000008 -0.000024  0.000071 -0.000198  0.000545 -0.001651  0.006097
                                -0.054873  0.143652 -0.289086  0.574835 -0.700829  0.157639  0.725625  0.046628  0.306082 -0.106023
                                 0.002436  0.004017  0.105343 -0.002464  0.001060 -0.000235  0.000000  0.000000  0.000000  0.000000
                                 0.000000  0.000000  0.000000  0.000000  0.000000  0.000000  0.000000  0.000000  0.000000  0.000000
                                 0.000000  0.000000  0.000000  0.000000  0.000000  0.000000  0.000000  0.000000  0.000000  0.000000
                                 0.000000  0.000000  0.000000  0.000000  0.000000  0.000000  0.000000  0.000000  0.000000  0.000000
                                 0.000000  0.000000  0.000000

                                   1 2py     1 2py     1 2py     1 2py     1 2py     1 2py     1 2py     1 2py     1 2py     1 2py
                                   1 2py     1 2py     1 2py     1 2py     1 2py     1 2py     1 2py     1 2py     1 2py     1 2py
                                   1 2py     1 2py     1 2py     1 2py     1 2py     1 2py     1 4f1-    1 4f3-    1 4f1-    1 4f3-
                                   1 4f1-    1 4f3-    1 4f1-    1 4f3-    1 4f1-    1 4f3-    1 4f1-    1 4f3-    1 4f1-    1 4f3-
                                   1 4f1-    1 4f3-    1 4f1-    1 4f3-    1 4f1-    1 4f3-    1 4f1-    1 4f3-    1 4f1-    1 4f3-
                                   1 4f1-    1 4f3-    1 4f1-    1 4f3-    1 6h1-    1 6h3-    1 6h5-    1 6h1-    1 6h3-    1 6h5-
                                   1 6h1-    1 6h3-    1 6h5-

   1.3  2.00000    -2.277739     0.000000  0.000000  0.000000  0.000000  0.000000  0.000000  0.000000  0.000000  0.000000  0.000000
                                 0.000000  0.000000  0.000000  0.000000  0.000000  0.000000  0.000000  0.000000  0.000000  0.000000
                                 0.000000  0.000000  0.000000  0.000000  0.000000  0.000000  0.000000  0.000023  0.000000 -0.000123
                                 0.000000 -0.000002  0.000000 -0.045115  0.000000 -0.029469  0.000000 -0.222807  0.000000 -0.272683
                                 0.000000 -0.373006  0.000000 -0.310032  0.000000 -0.097480  0.000000  0.004273  0.000000 -0.005220
                                 0.000000  0.002725  0.000000 -0.000899  0.000000  0.000000  0.000000  0.000000  0.000000  0.000000
                                 0.000000  0.000000  0.000000

   2.3  2.00000    -2.277739     0.000000  0.000000  0.000000  0.000000  0.000000  0.000000  0.000000  0.000000  0.000000  0.000000
                                 0.000000  0.000000  0.000000  0.000000  0.000000  0.000000  0.000000  0.000000  0.000000  0.000000
                                 0.000000  0.000000  0.000000  0.000000  0.000000  0.000000 -0.000023  0.000000  0.000123  0.000000
                                 0.000002  0.000000  0.045115  0.000000  0.029469  0.000000  0.222807  0.000000  0.272683  0.000000
                                 0.373006  0.000000  0.310032  0.000000  0.097480  0.000000 -0.004273  0.000000  0.005220  0.000000
                                -0.002725  0.000000  0.000899  0.000000  0.000000  0.000000  0.000000  0.000000  0.000000  0.000000
                                 0.000000  0.000000  0.000000

   3.3  1.33333    -3.438373    -0.000000  0.000001 -0.000002  0.000008 -0.000024  0.000071 -0.000198  0.000545 -0.001651  0.006097
                                -0.054873  0.143652 -0.289086  0.574835 -0.700829  0.157639  0.725625  0.046628  0.306082 -0.106023
                                 0.002436  0.004017  0.105343 -0.002464  0.001060 -0.000235  0.000000  0.000000  0.000000  0.000000
                                 0.000000  0.000000  0.000000  0.000000  0.000000  0.000000  0.000000  0.000000  0.000000  0.000000
                                 0.000000  0.000000  0.000000  0.000000  0.000000  0.000000  0.000000  0.000000  0.000000  0.000000
                                 0.000000  0.000000  0.000000  0.000000  0.000000  0.000000  0.000000  0.000000  0.000000  0.000000
                                 0.000000  0.000000  0.000000

                                   1 2pz     1 2pz     1 2pz     1 2pz     1 2pz     1 2pz     1 2pz     1 2pz     1 2pz     1 2pz
                                   1 2pz     1 2pz     1 2pz     1 2pz     1 2pz     1 2pz     1 2pz     1 2pz     1 2pz     1 2pz
                                   1 2pz     1 2pz     1 2pz     1 2pz     1 2pz     1 2pz     1 4f0     1 4f2+    1 4f0     1 4f2+
                                   1 4f0     1 4f2+    1 4f0     1 4f2+    1 4f0     1 4f2+    1 4f0     1 4f2+    1 4f0     1 4f2+
                                   1 4f0     1 4f2+    1 4f0     1 4f2+    1 4f0     1 4f2+    1 4f0     1 4f2+    1 4f0     1 4f2+
                                   1 4f0     1 4f2+    1 4f0     1 4f2+    1 6h2+    1 6h4+    1 6h0     1 6h2+    1 6h4+    1 6h0
                                   1 6h2+    1 6h4+    1 6h0

   1.5  2.00000    -2.277739     0.000000  0.000000  0.000000  0.000000  0.000000  0.000000  0.000000  0.000000  0.000000  0.000000
                                 0.000000  0.000000  0.000000  0.000000  0.000000  0.000000  0.000000  0.000000  0.000000  0.000000
                                 0.000000  0.000000  0.000000  0.000000  0.000000  0.000000  0.000000 -0.000023  0.000000  0.000123
                                 0.000000  0.000002  0.000000  0.045115  0.000000  0.029469  0.000000  0.222807  0.000000  0.272683
                                 0.000000  0.373006  0.000000  0.310032  0.000000  0.097480  0.000000 -0.004273  0.000000  0.005220
                                 0.000000 -0.002725  0.000000  0.000899  0.000000  0.000000  0.000000  0.000000  0.000000  0.000000
                                 0.000000  0.000000  0.000000

   2.5  2.00000    -2.277739     0.000000  0.000000  0.000000  0.000000  0.000000  0.000000  0.000000  0.000000  0.000000  0.000000
                                 0.000000  0.000000  0.000000  0.000000  0.000000  0.000000  0.000000  0.000000  0.000000  0.000000
                                 0.000000  0.000000  0.000000  0.000000  0.000000  0.000000 -0.000023  0.000000  0.000123  0.000000
                                 0.000002  0.000000  0.045115  0.000000  0.029469  0.000000  0.222807  0.000000  0.272683  0.000000
                                 0.373006  0.000000  0.310032  0.000000  0.097480  0.000000 -0.004273  0.000000  0.005220  0.000000
                                -0.002725  0.000000  0.000899  0.000000  0.000000  0.000000  0.000000  0.000000  0.000000  0.000000
                                 0.000000  0.000000  0.000000

   3.5  1.33333    -3.438373    -0.000000  0.000001 -0.000002  0.000008 -0.000024  0.000071 -0.000198  0.000545 -0.001651  0.006097
                                -0.054873  0.143652 -0.289086  0.574835 -0.700829  0.157639  0.725625  0.046628  0.306082 -0.106023
                                 0.002436  0.004017  0.105343 -0.002464  0.001060 -0.000235 -0.000000  0.000000  0.000000  0.000000
                                 0.000000  0.000000  0.000000  0.000000  0.000000  0.000000  0.000000  0.000000  0.000000  0.000000
                                 0.000000  0.000000  0.000000  0.000000  0.000000  0.000000 -0.000000  0.000000  0.000000  0.000000
                                -0.000000  0.000000  0.000000  0.000000  0.000000  0.000000  0.000000  0.000000  0.000000  0.000000
                                 0.000000  0.000000  0.000000

                                   1 4f2-    1 4f2-    1 4f2-    1 4f2-    1 4f2-    1 4f2-    1 4f2-    1 4f2-    1 4f2-    1 4f2-
                                   1 4f2-    1 4f2-    1 4f2-    1 4f2-    1 6h4-    1 6h2-    1 6h4-    1 6h2-    1 6h4-    1 6h2-


   1.8  2.00000    -2.277739    -0.000023  0.000123  0.000002  0.045115  0.029469  0.222807  0.272683  0.373006  0.310032  0.097480
                                -0.004273  0.005220 -0.002725  0.000899  0.000000  0.000000  0.000000  0.000000  0.000000  0.000000

 Total charge:   5.000000000000


 EXTRA SYMMETRY OF MOS IN SYMMETRY 1:   1 2 3 1 2 3 1 3 2 4   6 5 1 3 2 1 5 4 6 2   3 1 2 3 1 2 3 1 1 5   6 4 3 2 1 6 5 4 2 3
                                        1 6 5 4 1 3 2 1 5 4   6 3 2 1 2 3 1 3 2 1   3 2 1 3 2 1 2 3 1 1   2 3 1 2 3 1 1 2 3 1
                                        1 1 1 1 1 1 1
 EXTRA SYMMETRY OF MOS IN SYMMETRY 2:   3 2 1 1 2 3 1 2 3 1   3 2 1 3 2 1 1 1 3 2   1 5 6 4 2 3 1 5 6 4   3 2 1 1 3 2 6 5 4 1
                                        3 2 1 1 3 2 1 3 2 1   1 2 3 1 2 3 1 1 1 1   1 1 1
 EXTRA SYMMETRY OF MOS IN SYMMETRY 3:   3 2 1 1 3 2 1 2 3 1   2 3 1 3 2 1 1 1 3 2   1 4 5 6 2 3 1 6 5 4   3 2 1 1 3 2 6 5 4 1
                                        3 2 1 1 3 2 1 3 2 1   1 3 2 1 2 3 1 1 1 1   1 1 1
 EXTRA SYMMETRY OF MOS IN SYMMETRY 4:   1 1 1 3 2 1 2 3 1 1   1 3 2 1 3 2 1 3 2 1   3 2 1 1 1 1 1 1 1 1   1
 EXTRA SYMMETRY OF MOS IN SYMMETRY 5:   3 2 1 1 2 3 1 2 3 1   2 3 1 3 2 1 1 1 2 3   1 6 4 5 3 2 1 6 4 5   2 3 1 1 2 3 6 4 5 1
                                        2 3 1 1 2 3 1 2 3 1   1 2 3 1 3 2 1 1 1 1   1 1 1
 EXTRA SYMMETRY OF MOS IN SYMMETRY 6:   1 1 1 2 3 1 2 3 1 1   1 2 3 1 2 3 1 2 3 1   2 3 1 1 1 1 1 1 1 1   1
 EXTRA SYMMETRY OF MOS IN SYMMETRY 7:   1 1 1 2 3 1 3 2 1 1   1 2 3 1 2 3 1 2 3 1   3 2 1 1 1 1 1 1 1 1   1
 EXTRA SYMMETRY OF MOS IN SYMMETRY 8:   1 1 1 1 1 1 3 2 1 3   2 1 1 2 3 1 1 1 1 1

 Natural orbital dump (state averaged) at molpro section  5202.2    (Orbital set 2)


 CI vector for state symmetry 1
 ==============================

 2 a a           1.0000000

 TOTAL ENERGIES                      -203.34214502

 CI vector for state symmetry 2
 ==============================

 a 2 a           1.0000000

 TOTAL ENERGIES                      -203.34214502

 CI vector for state symmetry 3
 ==============================

 a a 2           1.0000000

 TOTAL ENERGIES                      -203.34214502



 **********************************************************************************************************************************
 DATASETS  * FILE   NREC   LENGTH (MB)   RECORD NAMES
              1      20       36.87       500      610      700      900      950      970     1000      129      960     1100
                                          VAR    BASINP    GEOM    SYMINP    ZMAT    AOBASIS   BASIS     P2S    ABASIS      S
                                         1400     1410     1420     1200     1210     1080     1600     1650     1700     1380
                                           T        V       ECP      H0       H01     AOSYM     SMH    MOLCAS    OPER     JKOP

              2       6        9.38       200      700     1000      520     4202     5202
                                        OPTIONS   GEOM     BASIS   MCVARS     RHF     MCSCF

 PROGRAMS   *        TOTAL     MULTI       POP       RHF       INT
 CPU TIMES  *        70.27      2.56      0.00      1.69     65.29
 REAL TIME  *        77.67 SEC
 DISK USED  *         5.78 GB
 SF USED    *        61.27 MB
 GA USED    *         0.00 MB       (max)       0.00 MB       (current)
 **********************************************************************************************************************************
   -->
   <time start="11:16:10" end="11:16:13" cpu="2.58" system="0.22" real="2.81"/>
   <storage units="megabyte" memory="8001.84" sf="61.27" df="335.14" eaf="5443.07" ga="0.0"/>
  </jobstep><!--
  --><jobstep command="RHF-SCF" commandset="SCFPRO">
   <!--


 PROGRAM * RHF-SCF (OPEN SHELL)       Authors: W. Meyer, H.-J. Werner


 NUMBER OF ELECTRONS:      11+    9-    SPACE SYMMETRY=7    SPIN SYMMETRY: Triplet
 CONVERGENCE THRESHOLDS:    1.00E-05 (Density)    1.00E-07 (Energy)
 MAX. NUMBER OF ITERATIONS:        0
 INTERPOLATION TYPE:            DIIS
 INTERPOLATION STEPS:              2 (START)      1 (STEP)
 LEVEL SHIFTS:                 -0.60 (CLOSED) -0.30 (OPEN)

 Number of closed-shell orbitals:    9 (   1   3   2   0   2   0   0   1 )
 Number of open-shell orbitals:      2 (   0   0   1   0   1   0   0   0 )


 Molecular orbitals read from record     5202.2  Type=MCSCF/NATURAL (state averaged)

 Molecular orbital dump at record        2128.2

 ITERATION    DDIFF          GRAD             ENERGY        2-EL.EN.            DIPOLE MOMENTS         DIIS   ORB.
    1      0.000D+00      0.000D+00      -203.34214502    294.804889    0.00000    0.00000    0.00000    0    start

 Final alpha occupancy:   1   3   3   0   3   0   0   1
 Final beta  occupancy:   1   3   2   0   2   0   0   1

 !RHF STATE 1.7 Energy               -203.342145024577
   --><property name="Energy" method="RHF" principal="true" stateSymmetry="7" stateNumber="1"
     value="-203.342145024577"/><!--
 Nuclear energy                         0.00000000
 One-electron energy                 -350.74458945
 Two-electron energy                  147.40244442
 Virial quotient                       -1.14317126
 !RHF STATE 1.7 Dipole moment           0.00000000     0.00000000     0.00000000
 Dipole moment /Debye                   0.00000000     0.00000000     0.00000000
   --><property name="Dipole moment" method="RHF" principal="true" stateSymmetry="7"
     stateNumber="1" value="0.0 0.0 0.0"/><!--

 Orbital energies:

         1.1          2.1          3.1
     -4.692167    -1.788658    -1.788658

         1.2          2.2          3.2          4.2          5.2
     -2.277739    -2.277739    -3.438373    -1.155734    -0.746416

         1.3          2.3          3.3          4.3          5.3
     -2.277739    -2.277739    -3.438373    -1.155734    -0.746416

         1.4          2.4
     -1.788658    -0.832847

         1.5          2.5          3.5          4.5          5.5
     -2.277739    -2.277739    -3.438373    -1.155734    -0.746416

         1.6          2.6
     -1.788658    -0.832847

         1.7          2.7
     -1.788658    -0.832847

         1.8          2.8          3.8
     -2.277739    -0.746416    -0.479738

 HOMO      1.8    -2.277739 =     -61.9804eV
 LUMO      2.1    -1.788658 =     -48.6719eV
 LUMO-HOMO         0.489081 =      13.3086eV


 **********************************************************************************************************************************
 DATASETS  * FILE   NREC   LENGTH (MB)   RECORD NAMES
              1      20       36.87       500      610      700      900      950      970     1000      129      960     1100
                                          VAR    BASINP    GEOM    SYMINP    ZMAT    AOBASIS   BASIS     P2S    ABASIS      S
                                         1400     1410     1420     1200     1210     1080     1600     1650     1700     1380
                                           T        V       ECP      H0       H01     AOSYM     SMH    MOLCAS    OPER     JKOP

              2       7       12.90       200      700     1000      520     4202     5202     2128
                                        OPTIONS   GEOM     BASIS   MCVARS     RHF     MCSCF     RHF

 PROGRAMS   *        TOTAL       RHF     MULTI       POP       RHF       INT
 CPU TIMES  *        70.42      0.15      2.56      0.00      1.69     65.29
 REAL TIME  *        77.84 SEC
 DISK USED  *         5.78 GB
 SF USED    *        61.27 MB
 GA USED    *         0.00 MB       (max)       0.00 MB       (current)
 **********************************************************************************************************************************
   -->
   <time start="11:16:13" end="11:16:13" cpu="0.15" system="0.0" real="0.17"/>
   <storage units="megabyte" memory="8001.84" sf="61.27" df="335.14" eaf="5443.07" ga="0.0"/>
  </jobstep><!--
 SETTING SCF(13)        =      -203.34214502  AU
 SETTING _CC_NORM_MAX   =         2.00000000
  --><jobstep command="RCCSD(T)" commandset="CCSD">
   <!--


 PROGRAM * CCSD (Restricted open-shell coupled cluster)     Authors: C. Hampel, H.-J. Werner, 1991, M. Deegan, P.J. Knowles, 1992


 Convergence thresholds:  THRVAR = 1.00D-08  THRDEN = 1.00D-06

 CCSD(T)     terms to be evaluated (factor= 1.000)


 Number of closed-shell orbitals:   9 (   1   3   2   0   2   0   0   1 )
 Number of active  orbitals:        2 (   0   0   1   0   1   0   0   0 )
 Number of external orbitals:     378 (  86  60  60  31  60  31  31  19 )

 Memory could be reduced to 130.54 Mwords without degradation in triples

 Number of N-1 electron functions:              20
 Number of N-2 electron functions:             190
 Number of singly external CSFs:              1180
 Number of doubly external CSFs:           2630954
 Total number of CSFs:                     2632134

 Molecular orbitals read from record     2128.2  Type=RHF/CANONICAL (state 1.7)

 Integral transformation finished. Total CPU:   3.73 sec, npass=  1  Memory used:  24.55 MW

 Starting RMP2 calculation

 Wavefunction is spin-projected

 ITER.      SQ.NORM     CORR.ENERGY   TOTAL ENERGY   ENERGY CHANGE        DEN1      VAR(S)    VAR(P)  DIIS     TIME
   1      1.58714333    -2.30662190  -205.64876693    -2.30662190    -0.03727293  0.27D-04  0.21D-01  1  1     4.64
   2      1.65349123    -2.35065350  -205.69279853    -0.04403160    -0.00079678  0.50D-05  0.15D-02  2  2     4.95
   3      1.66617622    -2.35747318  -205.69961821    -0.00681968    -0.00006136  0.19D-04  0.22D-03  3  3     5.30
   4      1.67146621    -2.35910402  -205.70124905    -0.00163084     0.00000233  0.68D-04  0.15D-04  4  4     5.80
   5      1.67183180    -2.35916693  -205.70131196    -0.00006291    -0.00000070  0.28D-04  0.81D-05  5  5     6.62
   6      1.67238853    -2.35923528  -205.70138030    -0.00006834    -0.00000058  0.68D-06  0.77D-06  6  6     7.18
   7      1.67249918    -2.35924943  -205.70139445    -0.00001415     0.00000084  0.38D-05  0.89D-07  6  1     7.66
   8      1.67252424    -2.35924636  -205.70139138     0.00000307    -0.00000001  0.22D-07  0.20D-07  6  2     8.12
   9      1.67253889    -2.35925366  -205.70139868    -0.00000730    -0.00000000  0.43D-08  0.47D-08  6  4     8.56
  10      1.67253762    -2.35925369  -205.70139872    -0.00000004     0.00000000  0.83D-08  0.93D-09  6  3     9.01

 Norm of t1 vector:      0.04410228      S-energy:    -0.00802515      T1 diagnostic:  0.00401522
 Norm of t2 vector:      0.81889719      P-energy:    -2.35122854
                                         Alpha-Beta:  -1.57065758
                                         Alpha-Alpha: -0.41495906
                                         Beta-Beta:   -0.36561190

 Spin contamination <S**2-Sz**2-Sz>     0.00000000
  Reference energy                   -203.342145024576
   --><property name="energy" method="Reference" stateSymmetry="1" stateNumber="1"
     value="-203.342145024576"/><!--
  RHF-RMP2 correlation energy          -2.359253693490
   --><property name="energy" method="RHF-RMP2 correlation" stateSymmetry="1" stateNumber="1"
     value="-2.35925369348964"/><!--
 !RHF-RMP2 energy                    -205.701398718066
   --><property name="energy" method="RHF-RMP2" principal="true" stateSymmetry="7"
     stateNumber="1" value="-205.701398718066"/><!--
 (NB above energy spin projected)

 Starting RCCSD calculation

 ITER.      SQ.NORM     CORR.ENERGY   TOTAL ENERGY   ENERGY CHANGE        DEN1      VAR(S)    VAR(P)  DIIS     TIME
   1      1.23956774    -1.52500252  -204.86714754    -1.52500252    -0.24156143  0.15D-02  0.61D-01  0  0    12.71
   2      1.35640512    -1.76299538  -205.10514040    -0.23799286    -0.02987234  0.40D-03  0.24D-01  0  0    15.08
   3      1.35503907    -1.69568754  -205.03783256     0.06730784     0.00699823  0.58D-03  0.20D-01  1  1    17.86
   4      1.37464148    -1.70986124  -205.05200626    -0.01417370    -0.00196868  0.13D-02  0.37D-02  2  2    20.50
   5      1.39544509    -1.71958590  -205.06173093    -0.00972467    -0.00197725  0.30D-02  0.25D-02  3  3    23.11
   6      1.40660606    -1.72221934  -205.06436436    -0.00263344    -0.00244439  0.19D-03  0.24D-02  4  4    26.20
   7      1.49235180    -1.73019593  -205.07234095    -0.00797659    -0.00182709  0.40D-03  0.20D-02  5  5    28.32
   8      1.51415156    -1.73160520  -205.07375023    -0.00140928    -0.00188801  0.65D-04  0.21D-02  6  6    31.39
   9      1.52342726    -1.73203399  -205.07417901    -0.00042879    -0.00193823  0.20D-04  0.22D-02  7  7    34.69
  10      1.54665068    -1.73327413  -205.07541915    -0.00124014    -0.00179001  0.23D-04  0.19D-02  8  8    38.30
  11      1.59838412    -1.73555987  -205.07770489    -0.00228574    -0.00178551  0.57D-04  0.19D-02  9  9    41.55
  12      1.61004491    -1.73598991  -205.07813493    -0.00043004    -0.00180693  0.89D-05  0.19D-02 10 10    45.07
  13      1.57826693    -1.73486336  -205.07700839     0.00112655    -0.00176207  0.56D-05  0.19D-02 11 11    49.01
  14      1.48916235    -1.73119904  -205.07334407     0.00366432    -0.00157411  0.61D-04  0.17D-02 12 12    54.21
  15      1.48046757    -1.73064395  -205.07278898     0.00055509    -0.00142607  0.21D-03  0.16D-02 13 13    59.27
  16      1.52695487    -1.73015940  -205.07230442     0.00048456    -0.00093805  0.87D-05  0.12D-02 14 14    67.93
  17      1.54112189    -1.73155801  -205.07370304    -0.00139861    -0.00076694  0.29D-04  0.83D-03 15 15    73.48
  18      1.58941910    -1.73212525  -205.07427028    -0.00056724    -0.00074240  0.39D-04  0.81D-03 15  6    84.95
  19      1.65019497    -1.73235403  -205.07449906    -0.00022878    -0.00074609  0.62D-05  0.87D-03 15 15    89.18
  20      1.66916148    -1.73312274  -205.07526777    -0.00076871    -0.00072484  0.25D-05  0.76D-03 15  1    93.86
  21      1.67805456    -1.73336813  -205.07551315    -0.00024539    -0.00072106  0.19D-05  0.76D-03 15  2   102.50
  22      1.68098949    -1.73343612  -205.07558115    -0.00006800    -0.00072791  0.20D-05  0.78D-03 15 14   107.46
  23      1.69158310    -1.73361276  -205.07575778    -0.00017664    -0.00072518  0.26D-05  0.76D-03 15  3   115.99
  24      1.68371434    -1.73329297  -205.07543799     0.00031979    -0.00070019  0.12D-04  0.74D-03 15 13   123.04
  25      1.68275143    -1.73335092  -205.07549595    -0.00005796    -0.00069420  0.40D-05  0.74D-03 15 15   130.32
  26      1.68136660    -1.73305323  -205.07519826     0.00029769    -0.00068812  0.97D-05  0.73D-03 15  4   135.53
  27      1.67723572    -1.73254967  -205.07469469     0.00050356    -0.00067048  0.47D-04  0.72D-03 15  9   142.64
  28      1.69011405    -1.73254420  -205.07468922     0.00000547    -0.00058601  0.76D-04  0.64D-03 15  8   148.70
  29      1.72017205    -1.73209774  -205.07424276     0.00044646    -0.00049927  0.19D-04  0.58D-03 15  5   156.36
  30      1.72055816    -1.73167971  -205.07382473     0.00041803    -0.00052363  0.68D-05  0.56D-03 15  1   162.40
  31      1.74166734    -1.73117052  -205.07331555     0.00050919    -0.00049285  0.21D-04  0.54D-03 15  3   171.47
  32      1.73639261    -1.73252653  -205.07467155    -0.00135600    -0.00042565  0.61D-04  0.55D-03 15  1   177.00
  33      1.77837347    -1.73162364  -205.07376867     0.00090288    -0.00039720  0.13D-03  0.46D-03 15  6   187.05
  34      1.79937331    -1.73141798  -205.07356300     0.00020567    -0.00039670  0.53D-04  0.45D-03 15  8   193.98
  35      1.81562474    -1.73146432  -205.07360935    -0.00004635    -0.00038383  0.26D-05  0.42D-03 15  5   200.82
  36      1.80751323    -1.73180368  -205.07394870    -0.00033935    -0.00036769  0.23D-04  0.42D-03 15  6   205.36
  37      1.81850435    -1.73161006  -205.07375508     0.00019362    -0.00037150  0.20D-04  0.41D-03 15  3   213.18
  38      1.81936465    -1.73167068  -205.07381570    -0.00006062    -0.00037481  0.13D-04  0.41D-03 15 14   220.20
  39      1.81986334    -1.73153904  -205.07368406     0.00013164    -0.00037617  0.84D-05  0.41D-03 15  2   228.44
  40      1.81986759    -1.73155124  -205.07369627    -0.00001221    -0.00037581  0.88D-05  0.41D-03 15  6   231.81
  41      1.81940817    -1.73165084  -205.07379586    -0.00009959    -0.00037664  0.92D-05  0.41D-03 15  2   237.11
  42      1.81198467    -1.73178024  -205.07392527    -0.00012940    -0.00037127  0.50D-05  0.42D-03 15  3   245.52
  43      1.80953921    -1.73158662  -205.07373164     0.00019362    -0.00039033  0.30D-04  0.50D-03 15  1   249.37
  44      1.82050543    -1.73176217  -205.07390719    -0.00017555    -0.00037100  0.18D-04  0.41D-03 15 14   254.68
  45      1.82012491    -1.73174122  -205.07388625     0.00002095    -0.00037135  0.19D-04  0.41D-03 15  3   266.38
  46      1.81525119    -1.73170165  -205.07384668     0.00003957    -0.00038269  0.18D-04  0.46D-03 15 14   273.18
  47      1.81881155    -1.73178928  -205.07393431    -0.00008763    -0.00037259  0.18D-04  0.43D-03 15  3   279.99
  48      1.81589516    -1.73186973  -205.07401476    -0.00008045    -0.00037338  0.85D-05  0.43D-03 15  1   285.11
  49      1.81643837    -1.73167768  -205.07382270     0.00019206    -0.00037996  0.19D-04  0.45D-03 15  3   294.47
  50      1.80585931    -1.73204052  -205.07418555    -0.00036285    -0.00036635  0.62D-04  0.45D-03 15  8   301.25
  51      1.80865265    -1.73190583  -205.07405085     0.00013469    -0.00037307  0.19D-04  0.44D-03 15 14   307.94
  52      1.80922310    -1.73188413  -205.07402915     0.00002170    -0.00037417  0.17D-04  0.44D-03 15  1   314.05
  53      1.81006199    -1.73190412  -205.07404914    -0.00001999    -0.00037125  0.19D-04  0.43D-03 15  3   320.75
  54      1.81170298    -1.73180151  -205.07394654     0.00010261    -0.00038447  0.15D-04  0.46D-03 15  8   327.45
  55      1.81709556    -1.73196935  -205.07411438    -0.00016784    -0.00036975  0.24D-04  0.42D-03 15  6   336.06
  56      1.80958820    -1.73138086  -205.07352588     0.00058850    -0.00036329  0.88D-04  0.43D-03 15  4   341.00
  57      1.81391425    -1.73159725  -205.07374227    -0.00021639    -0.00036873  0.39D-04  0.42D-03 15 13   347.08
  58      1.80960512    -1.73156476  -205.07370978     0.00003249    -0.00038245  0.28D-04  0.46D-03 15  6   354.41
  59      1.81254323    -1.73181907  -205.07396409    -0.00025431    -0.00037343  0.31D-04  0.43D-03 15  4   359.45
  60      1.81297672    -1.73162131  -205.07376634     0.00019776    -0.00037115  0.36D-04  0.42D-03 15  6   368.53
  61      1.81035179    -1.73152499  -205.07367001     0.00009633    -0.00037820  0.31D-04  0.44D-03 15  4   373.49
  62      1.81019988    -1.73143434  -205.07357936     0.00009065    -0.00036756  0.66D-04  0.43D-03 15 13   380.20
  63      1.81295200    -1.73154799  -205.07369302    -0.00011365    -0.00036558  0.64D-04  0.44D-03 15  9   387.35
  64      1.81523638    -1.73159367  -205.07373869    -0.00004568    -0.00037034  0.27D-04  0.43D-03 15 15   396.02
  65      1.80817185    -1.73159034  -205.07373536     0.00000333    -0.00038012  0.39D-04  0.45D-03 15 13   400.97
  66      1.80897789    -1.73151422  -205.07365924     0.00007612    -0.00037174  0.56D-04  0.43D-03 15  9   410.10
  67      1.80992748    -1.73158106  -205.07372609    -0.00006684    -0.00036931  0.57D-04  0.44D-03 15 15   418.40
  68      1.81024194    -1.73157200  -205.07371702     0.00000907    -0.00037091  0.47D-04  0.44D-03 15 13   427.06
  69      1.80923216    -1.73164593  -205.07379095    -0.00007393    -0.00038246  0.33D-04  0.45D-03 15  9   434.22
  70      1.80902039    -1.73151498  -205.07366001     0.00013095    -0.00037224  0.53D-04  0.43D-03 15 15   445.35
  71      1.80978311    -1.73155939  -205.07370441    -0.00004440    -0.00037102  0.48D-04  0.44D-03 15  9   454.17
  72      1.80836245    -1.73158368  -205.07372870    -0.00002429    -0.00037801  0.39D-04  0.44D-03 15 15   462.51
  73      1.80884148    -1.73152261  -205.07366764     0.00006107    -0.00037218  0.51D-04  0.43D-03 15  9   468.28
  74      1.80926742    -1.73156602  -205.07371105    -0.00004341    -0.00037003  0.55D-04  0.44D-03 15 13   478.34
  75      1.80931499    -1.73155390  -205.07369893     0.00001212    -0.00037158  0.48D-04  0.44D-03 15 15   484.65
  76      1.80924608    -1.73161262  -205.07375765    -0.00005872    -0.00037970  0.32D-04  0.45D-03 15  9   492.60
  77      1.80887900    -1.73152095  -205.07366597     0.00009167    -0.00037256  0.50D-04  0.43D-03 15 13   496.58
  78      1.80917244    -1.73154805  -205.07369307    -0.00002710    -0.00037168  0.48D-04  0.44D-03 15  9   506.27
  79      1.80877798    -1.73158158  -205.07372661    -0.00003354    -0.00037715  0.36D-04  0.44D-03 15 13   513.85
  80      1.80879672    -1.73152651  -205.07367153     0.00005507    -0.00037263  0.49D-04  0.43D-03 15  9   522.27
  81      1.80901551    -1.73154752  -205.07369255    -0.00002101    -0.00037211  0.47D-04  0.44D-03 15 13   529.01
  82      1.80898220    -1.73155816  -205.07370318    -0.00001064    -0.00037034  0.55D-04  0.44D-03 15 15   536.23
  83      1.80931550    -1.73160027  -205.07374530    -0.00004211    -0.00037825  0.32D-04  0.44D-03 15  9   541.78
  84      1.80884383    -1.73152630  -205.07367133     0.00007397    -0.00037297  0.47D-04  0.43D-03 15 13   545.92
  85      1.80898618    -1.73154537  -205.07369039    -0.00001906    -0.00037231  0.47D-04  0.44D-03 15 15   552.52
  86      1.80908702    -1.73158590  -205.07373093    -0.00004054    -0.00037710  0.34D-04  0.44D-03 15 13   558.44
  87      1.80881370    -1.73152927  -205.07367430     0.00005663    -0.00037303  0.47D-04  0.44D-03 15 15   563.24
  88      1.80893426    -1.73154569  -205.07369072    -0.00001642    -0.00037256  0.46D-04  0.44D-03 15 13   567.77
  89      1.80895517    -1.73157632  -205.07372135    -0.00003063    -0.00037616  0.36D-04  0.44D-03 15 15   575.61
  90      1.80878644    -1.73153199  -205.07367702     0.00004433    -0.00037309  0.46D-04  0.44D-03 15 13   579.60
  91      1.80888902    -1.73154600  -205.07369102    -0.00001401    -0.00037278  0.45D-04  0.44D-03 15 15   589.81
  92      1.80889534    -1.73157043  -205.07371546    -0.00002443    -0.00037545  0.38D-04  0.44D-03 15 13   594.83
  93      1.80876759    -1.73153480  -205.07367982     0.00003564    -0.00037317  0.46D-04  0.44D-03 15 15   603.51
  94      1.80885500    -1.73154664  -205.07369167    -0.00001185    -0.00037298  0.45D-04  0.44D-03 15 13   608.82
  95      1.80887129    -1.73156673  -205.07371175    -0.00002008    -0.00037495  0.39D-04  0.44D-03 15 15   614.50
  96      1.80875785    -1.73153747  -205.07368250     0.00002925    -0.00037324  0.45D-04  0.44D-03 15 13   619.85
  97      1.80883188    -1.73154739  -205.07369242    -0.00000992    -0.00037315  0.44D-04  0.44D-03 15 15   626.04
  98      1.80886075    -1.73156420  -205.07370922    -0.00001681    -0.00037461  0.40D-04  0.44D-03 15 13   632.95
  99      1.80879667    -1.73155343  -205.07369845     0.00001077    -0.00037067  0.54D-04  0.44D-03 15  9   641.00

 Norm of t1 vector:      0.04955571      S-energy:    -0.00685449      T1 diagnostic:  0.00631790
                                                                       D1 diagnostic:  0.01434489
 Norm of t2 vector:      0.89796487      P-energy:    -1.72469894
                                         Alpha-Beta:  -1.25500730
                                         Alpha-Alpha: -0.24949115
                                         Beta-Beta:   -0.22020049

 Doubles amplitudes (print threshold =  0.500E-01):

         I         J         SYM. A    SYM. B    A         B      T(IJ, AB) [Beta-Beta]

         5         2         2         3         1         1      0.06990821
         5         2         3         2         1         1     -0.06990821
        11         8         2         3         1         1      0.08451533
        11         8         3         2         1         1     -0.08451533
         9         3         2         5         1         1      0.08321418
         9         3         5         2         1         1     -0.08321418
        11         6         2         5         1         1     -0.07931500
        11         6         5         2         1         1      0.07931500
         8         6         3         5         1         2     -0.06415305
         8         6         3         5         2         1     -0.09600188
         8         6         5         3         1         2      0.09600188
         8         6         5         3         2         1      0.06415305
         9         6         3         5         1         2     -0.12798064
         9         6         3         5         2         1     -0.08536272
         9         6         5         3         1         2      0.08536272
         9         6         5         3         2         1      0.12798064
        11         2         3         5         2         1     -0.08385402
        11         2         5         3         1         2      0.08385402
        11         3         3         5         1         2      0.09872091
        11         3         3         5         2         1      0.06388183
        11         3         5         3         1         2     -0.06388183
        11         3         5         3         2         1     -0.09872091

         I         J         SYM. A    SYM. B    A         B      T(IJ, AB) [Alpha-Beta]

         2         2         1         1         2         2     -0.05748720
         2         2         3         3         2         1     -0.06858898
         2         2         4         4         1         1     -0.05695669
         3         2         3         3         2         1     -0.07892702
         3         2         5         5         2         1     -0.12019457
         2         3         3         3         2         1     -0.10895854
         2         3         5         5         2         1     -0.09081687
         3         3         6         6         1         1     -0.06380275
         5         5         1         1         2         2     -0.05722693
         5         5         3         3         2         1     -0.06947273
         5         5         4         4         1         1     -0.05734485
         6         5         5         5         2         1     -0.07859010
         5         6         3         3         2         1     -0.05670746
         5         6         5         5         2         1     -0.05127209
         6         6         3         3         2         1      0.15600188
         6         6         5         5         2         1      0.14056580
         6         6         7         7         1         1     -0.06438223
         9         8         3         3         2         1      0.07919320
         9         8         5         5         2         1      0.13314089
         8         9         3         3         2         1      0.10741387
         8         9         5         5         2         1      0.10629686
         9         9         1         1         1         1     -0.07384758
         9         9         3         3         2         1      0.10703696
         9         9         5         5         2         1      0.05741874
        11        11         3         3         2         1      0.08328204
        11        11         5         5         2         1      0.08322408
         5         3         2         3         1         1     -0.08626002
         3         5         2         3         1         1     -0.05456870
         2         6         2         3         1         1      0.05431267
         3         6         2         3         1         1     -0.09571854
         8        11         2         3         1         1     -0.06005898
        11         9         2         3         1         1      0.10827329
         9        11         2         3         1         1      0.08586851
         8         2         2         5         1         1      0.07758901
         2         8         2         5         1         1      0.10227369
         8         3         2         5         1         1     -0.06701486
         3         9         2         5         1         1     -0.06368095
        11         5         2         5         1         1      0.07355787
         5        11         2         5         1         1      0.10731727
        11         6         2         5         1         1     -0.08461971
         8         6         5         3         2         1      0.05134352
         6         8         3         5         2         1      0.06858049
         9         6         3         5         2         1     -0.05250413
         9         6         5         3         2         1      0.05516652
         6         9         5         3         2         1     -0.07281412
        11         2         3         5         2         1     -0.06305482
        11         3         5         3         2         1     -0.06381632

 ?CONVERGENCE NOT REACHED AFTER MAX. ITERATIONS

 ?ERROR: NO CONVERGENCE. TRIPLES WILL NOT BE DONE. THIS CAN BE AVOIDED USING THE NOCHECK OPTION.

 Spin contamination <S**2-Sz**2-Sz>     0.00000000


 RESULTS
 =======

  Reference energy                   -203.342145024576
   --><property name="energy" method="Reference" stateSymmetry="1" stateNumber="1"
     value="-203.342145024576"/><!--
  RCCSD singles energy                 -0.006854491042
   --><property name="energy" method="RCCSD singles" stateSymmetry="1" stateNumber="1"
     value="-0.685449104176361E-02"/><!--
  RCCSD pair energy                    -1.724698938130
   --><property name="energy" method="RCCSD pair" stateSymmetry="1" stateNumber="1"
     value="-1.72469893812973"/><!--
  RCCSD correlation energy             -1.731553429171
   --><property name="energy" method="RCCSD correlation" stateSymmetry="1" stateNumber="1"
     value="-1.73155342917149"/><!--

 !RHF-RCCSD energy                   -205.073698453748
   --><property name="energy" method="RHF-RCCSD" principal="true" stateSymmetry="1"
     stateNumber="1" value="-205.073698453748"/><!--

 Program statistics:

 Available memory in ccsd:               999998822
 Min. memory needed in ccsd:               7724741
 Max. memory used in ccsd:                10959672
 Max. memory used in cckext:               8342868 (99 integral passes)
 Max. memory used in cckint:              24550338 ( 1 integral passes)


 ? Error
 ? No convergence. This error exit can be avoided using the NOCHECK option
 ? The problem occurs in ccsd
   --><error type="Error" location="ccsd"
     message="No convergence. This error exit can be avoided using the NOCHECK option"/><!--
  --></jobstep><!--
  -->
  <input>
  <!--
 --></job><!--
--></molpro>
