<?xml version="1.0"?>
<molpro xmlns="http://www.molpro.net/schema/molpro-output"
  xmlns:xsd="http://www.w3.org/1999/XMLSchema"
  xmlns:cml="http://www.xml-cml.org/schema"
  xmlns:stm="http://www.xml-cml.org/schema"
  xmlns:xhtml="http://www.w3.org/1999/xhtml">
 <!--

 Nodes     nprocs
 nid01693    11
 Number of processes for MPI-2 version of Molpro:   nprocs(total)=   12   nprocs(compute)=   11   nprocs(helper)=    1

 Using customized tuning parameters: mindgm=7; mindgv=16; mindgc=1; mindgr=1; noblas=0; minvec=7
 default implementation of scratch files=sf

 --><job>
  <!--

 Variables initialized (889), CPU time= 0.02 sec
 Commands  initialized (702), CPU time= 0.01 sec, 572 directives.
 Default parameters read. Elapsed time= 0.12 sec

 Checking input...
 Passed
1


                                         ***  PROGRAM SYSTEM MOLPRO  ***
                                       Copyright, TTI GmbH Stuttgart, 2015
                                    Version 2015.1 linked Dec 29 2018 15:55:43


 **********************************************************************************************************************************
 LABEL *   Calculation for GdH3 atom, singlet and triplet
  64 bit mpp version                                                                     DATE: 27-Dec-22          TIME: 18:26:03
 **********************************************************************************************************************************

 SHA1:             19cd028119e0e09f93f0674bd8af7968d9b3eff6
 **********************************************************************************************************************************
  -->
  <!--

 THRESHOLDS:

 ZERO    =  1.00D-12  ONEINT  =  1.00D-12  TWOINT  =  1.00D-15  PREFAC  =  1.00D-14  LOCALI  =  1.00D-09  EORDER  =  1.00D-04
 ENERGY  =  0.00D+00  ETEST   =  0.00D+00  EDENS   =  0.00D+00  THRDEDEF=  1.00D-06  GRADIENT=  1.00D-02  STEP    =  1.00D-03
 ORBITAL =  1.00D-05  CIVEC   =  1.00D-05  COEFF   =  1.00D-04  PRINTCI =  5.00D-02  PUNCHCI =  9.90D+01  OPTGRAD =  3.00D-04
 OPTENERG=  1.00D-06  OPTSTEP =  3.00D-04  THRGRAD =  1.00D-10  COMPRESS=  1.00D-11  VARMIN  =  1.00D-07  VARMAX  =  1.00D-03
 THRDOUB =  0.00D+00  THRDIV  =  1.00D-05  THRRED  =  1.00D-07  THRPSP  =  1.00D+00  THRDC   =  1.00D-10  THRCS   =  1.00D-10
 THRNRM  =  1.00D-08  THREQ   =  0.00D+00  THRDE   =  1.00D+00  THRREF  =  1.00D-05  SPARFAC =  1.00D+00  THRDLP  =  1.00D-07
 THRDIA  =  1.00D-10  THRDLS  =  1.00D-07  THRGPS  =  0.00D+00  THRKEX  =  0.00D+00  THRDIS  =  2.00D-01  THRVAR  =  1.00D-10
 THRLOC  =  1.00D-06  THRGAP  =  1.00D-06  THRLOCT = -1.00D+00  THRGAPT = -1.00D+00  THRORB  =  1.00D-06  THRMLTP =  0.00D+00
 THRCPQCI=  1.00D-10  KEXTA   =  0.00D+00  THRCOARS=  0.00D+00  SYMTOL  =  1.00D-06  GRADTOL =  1.00D-06  THROVL  =  1.00D-08
 THRORTH =  1.00D-08  GRID    =  1.00D-06  GRIDMAX =  1.00D-03  DTMAX   =  0.00D+00  THROCCDE=  1.00D-01  THROCCDE=  1.00D-01



 THRESHOLDS:

 ZERO    =  1.00D-12  ONEINT  =  1.00D-12  TWOINT  =  1.00D-15  PREFAC  =  1.00D-14  LOCALI  =  1.00D-09  EORDER  =  1.00D-04
 ENERGY  =  0.00D+00  ETEST   =  0.00D+00  EDENS   =  0.00D+00  THRDEDEF=  1.00D-06  GRADIENT=  1.00D-02  STEP    =  1.00D-03
 ORBITAL =  1.00D-05  CIVEC   =  1.00D-05  COEFF   =  1.00D-04  PRINTCI =  5.00D-02  PUNCHCI =  9.90D+01  OPTGRAD =  3.00D-04
 OPTENERG=  1.00D-06  OPTSTEP =  3.00D-04  THRGRAD =  1.00D-10  COMPRESS=  1.00D-11  VARMIN  =  1.00D-07  VARMAX  =  1.00D-03
 THRDOUB =  0.00D+00  THRDIV  =  1.00D-05  THRRED  =  1.00D-07  THRPSP  =  1.00D+00  THRDC   =  1.00D-10  THRCS   =  1.00D-10
 THRNRM  =  1.00D-08  THREQ   =  0.00D+00  THRDE   =  1.00D+00  THRREF  =  1.00D-05  SPARFAC =  1.00D+00  THRDLP  =  1.00D-07
 THRDIA  =  1.00D-10  THRDLS  =  1.00D-07  THRGPS  =  0.00D+00  THRKEX  =  0.00D+00  THRDIS  =  2.00D-01  THRVAR  =  1.00D-10
 THRLOC  =  1.00D-06  THRGAP  =  1.00D-06  THRLOCT = -1.00D+00  THRGAPT = -1.00D+00  THRORB  =  1.00D-06  THRMLTP =  0.00D+00
 THRCPQCI=  1.00D-10  KEXTA   =  0.00D+00  THRCOARS=  0.00D+00  SYMTOL  =  1.00D-06  GRADTOL =  1.00D-06  THROVL  =  1.00D-15
 THRORTH =  1.00D-08  GRID    =  1.00D-06  GRIDMAX =  1.00D-03  DTMAX   =  0.00D+00  THROCCDE=  1.00D-01  THROCCDE=  1.00D-01



 Variable memory set to 1000000000 words,  buffer space   230000 words

 SETTING BASIS          =    USERDEF
 SETTING GD_CCSD        =      -108.94859710
 SETTING H_CCSD         =        -0.49982987
 SETTING NE             =        20.00000000
 SETTING SYMM           =         4.00000000
 SETTING SS             =         8.00000000
 SETTING A1             =         7.00000000
 SETTING B1             =         3.00000000
 SETTING B2             =         3.00000000
 SETTING A2             =         1.00000000
 ZUNIT=ANG

  --><jobstep command="RHF-SCF" commandset="SCFPRO">
   <!--


 Recomputing integrals since basis changed


 Using spherical harmonics



 PROGRAM * SEWARD (Integral evaluation for generally contracted gaussian basis sets)     Author: Roland Lindh, 1990

 Geometry written to block  1 of record 700

 Orientation using atomic masses
 Molecule type: Asymmetric top,     Order of principal axis = 2
 Symmetry elements: X,Y
 Rotational constants:      57.0282906    230.3063998     75.7971123 GHz  (calculated with average atomic masses)

 Point group  C2v


   --><cml:molecule>
    <cml:symmetry pointGroup="C2v"/>
    <cml:atomArray>
     <cml:atom id="a1" elementType="Gd" x3="0.0" y3="0.0" z3="-0.132901912198645E-01"/>
     <cml:atom id="a2" elementType="H" x3="0.0" y3="1.81865334794732" z3="1.03670980878014"/>
     <cml:atom id="a3" elementType="H" x3="0.0" y3="-1.81865334794732" z3="1.03670980878014"/>
    </cml:atomArray>
    <cml:bondArray>
     <cml:bond atomRefs2="a1 a2"/>
     <cml:bond atomRefs2="a1 a3"/>
    </cml:bondArray>
   </cml:molecule><!--

 ATOMIC COORDINATES

 NR  ATOM    CHARGE       X              Y              Z

   1  GD     18.00    0.000000000    0.000000000   -0.025114822
   2  H1      1.00    0.000000000    3.436756743    1.959097609
   3  H2      1.00    0.000000000   -3.436756743    1.959097609

 Bond lengths in Bohr (Angstrom)

 1-2  3.968424862  1-3  3.968424862
     ( 2.100000000)     ( 2.100000000)

 Bond angles

  2-1-3  120.00000000

 NUCLEAR CHARGE:                   20
 NUMBER OF PRIMITIVE AOS:         646
 NUMBER OF SYMMETRY AOS:          494
 NUMBER OF CONTRACTIONS:          494   ( 188A1  + 114B1  + 125B2  +  67A2  )
 NUMBER OF CORE ORBITALS:           0   (   0A1  +   0B1  +   0B2  +   0A2  )
 NUMBER OF VALENCE ORBITALS:       19   (   8A1  +   4B1  +   5B2  +   2A2  )


 NUCLEAR REPULSION ENERGY    9.21709533


 Eigenvalues of metric

         1 0.113E-06 0.296E-06 0.614E-06 0.722E-06 0.727E-06 0.738E-06 0.132E-05 0.385E-05
         2 0.616E-06 0.727E-06 0.439E-05 0.139E-04 0.238E-04 0.447E-04 0.883E-04 0.148E-03
         3 0.607E-06 0.721E-06 0.427E-05 0.128E-04 0.235E-04 0.311E-04 0.437E-04 0.602E-04
         4 0.727E-06 0.238E-04 0.148E-03 0.537E-03 0.824E-03 0.912E-03 0.396E-02 0.798E-02


 Contracted 2-electron integrals neglected if value below      1.0D-15
 AO integral compression algorithm  1   Integral accuracy      1.0D-15

     8064.598 MB (compressed) written to integral file ( 53.1%)

     Node minimum: 404.488 MB, node maximum: 1094.975 MB


 NUMBER OF SORTED TWO-ELECTRON INTEGRALS:  172340752.     BUFFER LENGTH:  32768
 NUMBER OF SEGMENTS:   6  SEGMENT LENGTH:   31978800      RECORD LENGTH: 524288

 Memory used in sort:      32.54 MW

 SORT1 READ  1896767167. AND WROTE    88863945. INTEGRALS IN    257 RECORDS. CPU TIME:    35.44 SEC, REAL TIME:    49.42 SEC
 SORT2 READ   977110733. AND WROTE  1895377561. INTEGRALS IN  18986 RECORDS. CPU TIME:     2.63 SEC, REAL TIME:     4.52 SEC

 Node minimum:   172225131.  Node maximum:   172451116. integrals

 OPERATOR DM      FOR CENTER  0  COORDINATES:    0.000000    0.000000    0.000000


 **********************************************************************************************************************************
 DATASETS  * FILE   NREC   LENGTH (MB)   RECORD NAMES
              1      19       22.81       500      610      700      900      950      970     1000      129      960     1100
                                          VAR    BASINP    GEOM    SYMINP    ZMAT    AOBASIS   BASIS     P2S    ABASIS      S
                                         1400     1410     1420     1200     1210     1080     1600     1650     1700
                                           T        V       ECP      H0       H01     AOSYM     SMH    MOLCAS    OPER

 PROGRAMS   *        TOTAL       INT
 CPU TIMES  *       122.55    122.30
 REAL TIME  *       140.58 SEC
 DISK USED  *        20.00 GB
 GA USED    *         0.00 MB       (max)       0.00 MB       (current)
 **********************************************************************************************************************************


 PROGRAM * RHF-SCF (OPEN SHELL)       Authors: W. Meyer, H.-J. Werner


 NUMBER OF ELECTRONS:      14+    6-    SPACE SYMMETRY=4    SPIN SYMMETRY: Nonet
 CONVERGENCE THRESHOLDS:    1.00E-05 (Density)    1.00E-07 (Energy)
 MAX. NUMBER OF ITERATIONS:      200
 INTERPOLATION TYPE:            DIIS
 INTERPOLATION STEPS:              2 (START)      1 (STEP)
 LEVEL SHIFTS:                 -0.60 (CLOSED) -0.30 (OPEN)

 Number of closed-shell orbitals:    6 (   4   1   1   0 )
 Number of open-shell orbitals:      8 (   3   2   2   1 )


 Guess basis ATOMIC-GUESS,GD=ECP46_GUESS not found. No density guess!


 Molecular orbital dump at record        2100.2

 ITERATION    DDIFF          GRAD             ENERGY        2-EL.EN.            DIPOLE MOMENTS         DIIS   ORB.
    1      0.000D+00      0.000D+00       -72.06240111    368.539673    0.00000    0.00000    3.65376    0    start
    2      0.000D+00      0.178D+00       -24.91205213     20.870634    0.00000    0.00000  -55.01943    0    diag,B
    3      0.143D+02      0.487D-01       -73.11363927    366.293739    0.00000    0.00000    4.18254    1    diag,B
    4      0.143D+02      0.176D+00       -77.64834118    356.626721    0.00000    0.00000    4.14203    2    diag,B
    5      0.603D-01      0.159D+00       -83.01568926    343.870944    0.00000    0.00000    4.07542    3    diag,B
    6      0.807D-01      0.140D+00       -83.33445313    343.087913    0.00000    0.00000    4.06013    4    diag,B
    7      0.152D-01      0.139D+00       -83.59785222    342.383086    0.00000    0.00000    4.04192    5    diag,B
    8      0.183D-01      0.138D+00       -83.62684691    342.312982    0.00000    0.00000    4.04151    6    diag,B
    9      0.735D-03      0.138D+00       -83.62766625    342.311577    0.00000    0.00000    4.04112    7    diag,B
   10      0.106D-02      0.138D+00       -83.72080481    342.062422    0.00000    0.00000    4.10456    8    orth
   11      0.642D-02      0.138D+00       -83.80302442    341.842683    0.00000    0.00000    4.12823    9    diag,B
   12      0.663D-02      0.137D+00       -83.92667557    341.532772    0.00000    0.00000    4.10848    9    diag,B
   13      0.449D-02      0.137D+00       -83.88446816    341.614869    0.00000    0.00000    4.16446    9    diag,B
   14      0.325D-01      0.137D+00       -84.78965790    339.253057    0.00000    0.00000    4.09539    9    diag,B
   15      0.967D-02      0.134D+00       -85.22584834    338.106209    0.00000    0.00000    4.01597    9    diag,B
   16      0.849D-02      0.132D+00       -85.41409162    337.576433    0.00000    0.00000    4.06611    9    diag,B
   17      0.504D-02      0.131D+00       -85.21247620    338.112719    0.00000    0.00000    4.05317    9    diag,B
   18      0.739D-02      0.132D+00       -85.34038791    337.773486    0.00000    0.00000    4.10819    9    diag,B
   19      0.231D-01      0.132D+00       -84.54117327    339.928155    0.00000    0.00000    3.96236    9    diag,B
   20      0.199D-01      0.135D+00       -85.19531663    338.173396    0.00000    0.00000    4.08361    9    orth
   21      0.182D-01      0.132D+00       -85.24295827    338.051653    0.00000    0.00000    4.07364    9    diag,B
   22      0.284D-02      0.132D+00       -84.60856542    339.756458    0.00000    0.00000    4.09445    9    diag,B
   23      0.325D-01      0.134D+00       -85.58088843    337.109288    0.00000    0.00000    3.98052    9    diag,B
   24      0.662D-01      0.131D+00       -86.15597306    335.536170    0.00000    0.00000    4.04837    9    diag,B
   25      0.915D-02      0.129D+00       -86.91840415    333.397925    0.00000    0.00000    4.06167    9    diag,B
   26      0.147D-01      0.126D+00       -86.86312175    333.562010    0.00000    0.00000    4.07808    9    diag,B
   27      0.614D-02      0.126D+00       -84.83958929    339.053338    0.00000    0.00000    4.29281    9    diag,B
   28      0.623D-01      0.133D+00       -88.09622410    330.019112    0.00000    0.00000    4.00551    9    diag,B
   29      0.781D-01      0.121D+00       -88.06400512    330.118025    0.00000    0.00000    3.95383    9    diag,B
   30      0.291D-02      0.121D+00       -88.91029942    327.593667    0.00000    0.00000    3.89417    9    orth
   31      0.226D-01      0.117D+00       -88.92002246    327.552314    0.00000    0.00000    3.88977    9    diag,B
   32      0.241D-02      0.118D+00       -88.25978787    329.501264    0.00000    0.00000    3.75708    9    diag,B
   33      0.970D-02      0.120D+00       -88.73182116    328.121476    0.00000    0.00000    3.84199    9    diag,B
   34      0.126D-01      0.119D+00       -88.47598413    328.859575    0.00000    0.00000    3.95823    9    diag,B
   35      0.436D-02      0.120D+00       -88.10669510    329.947351    0.00000    0.00000    4.00348    9    diag,B
   36      0.559D-02      0.121D+00       -86.93416180    333.336745    0.00000    0.00000    3.97773    9    diag,B
   37      0.223D-01      0.126D+00       -87.22727070    332.495056    0.00000    0.00000    3.95824    9    diag,B
   38      0.921D-02      0.125D+00       -87.65511208    331.248090    0.00000    0.00000    4.00976    9    diag,B
   39      0.831D-02      0.123D+00       -88.30268754    329.341477    0.00000    0.00000    3.99981    9    diag,B
   40      0.160D-01      0.121D+00       -87.65297037    331.262158    0.00000    0.00000    3.92870    9    orth
   41      0.137D-01      0.123D+00       -86.82528254    333.649367    0.00000    0.00000    3.95892    9    diag,B
   42      0.211D-01      0.127D+00       -86.66185497    334.068373    0.00000    0.00000    4.19921    9    diag,B
   43      0.121D-01      0.127D+00       -87.52673699    331.605857    0.00000    0.00000    3.99932    9    diag,B
   44      0.326D-01      0.124D+00       -85.21088193    338.117728    0.00000    0.00000    4.01114    9    diag,B
   45      0.765D-01      0.132D+00       -86.61516616    334.231901    0.00000    0.00000    4.11509    9    diag,B
   46      0.445D-01      0.127D+00       -86.54463557    334.414956    0.00000    0.00000    3.96549    9    diag,B
   47      0.113D-01      0.128D+00       -87.45219681    331.836376    0.00000    0.00000    3.96287    9    diag,B
   48      0.232D-01      0.124D+00       -86.21865565    335.328007    0.00000    0.00000    4.18611    9    diag,B
   49      0.484D-01      0.128D+00       -87.47686447    331.755405    0.00000    0.00000    4.00505    9    diag,B
   50      0.484D-01      0.124D+00       -85.44048871    337.485498    0.00000    0.00000    4.01440    9    orth
   51      0.619D-01      0.132D+00       -86.03157790    335.860762    0.00000    0.00000    4.13493    9    diag,B
   52      0.192D-01      0.129D+00       -86.96946988    333.214566    0.00000    0.00000    3.99165    9    diag,B
   53      0.356D-01      0.126D+00       -87.12814203    332.768556    0.00000    0.00000    3.98258    9    diag,B
   54      0.195D-02      0.125D+00       -85.91106441    336.190543    0.00000    0.00000    4.15695    9    diag,B
   55      0.440D-01      0.130D+00       -86.12485053    335.588232    0.00000    0.00000    4.02088    9    diag,B
   56      0.210D-01      0.129D+00       -86.82065321    333.646877    0.00000    0.00000    4.00339    9    diag,B
   57      0.185D-01      0.127D+00       -86.07395928    335.735907    0.00000    0.00000    4.14259    9    diag,B
   58      0.285D-01      0.129D+00       -86.94720125    333.277612    0.00000    0.00000    4.00859    9    diag,B
   59      0.328D-01      0.126D+00       -86.43603325    334.735524    0.00000    0.00000    4.00967    9    fixocc
     Orbital  1.3 strongly deviates from fixed occupation: 1.89676  (now: 2.00)
     Orbital  2.3 strongly deviates from fixed occupation: 1.10120  (now: 1.00)
     Note:  Use {hf,nitord=N} to fix occupations at iteration N
            Use {gthresh,occdev=1.0} to suppress deviation warnings
   60      0.190D-01      0.128D+00       -85.71969329    336.719308    0.00000    0.00000    4.14120    9    orth
   61      0.251D-01      0.130D+00       -86.54678878    334.410476    0.00000    0.00000    4.01911    9    diag,B
     Orbital  1.3 strongly deviates from fixed occupation: 1.74472  (now: 2.00)
     Orbital  2.3 strongly deviates from fixed occupation: 1.25504  (now: 1.00)
   62      0.328D-01      0.128D+00       -87.03590396    333.034017    0.00000    0.00000    4.00291    9    diag,B
   63      0.117D-01      0.126D+00       -85.88464578    336.260894    0.00000    0.00000    4.13698    9    diag,B
   64      0.390D-01      0.130D+00       -86.55612352    334.383713    0.00000    0.00000    4.02755    9    diag,B
     Orbital  1.3 strongly deviates from fixed occupation: 1.68483  (now: 2.00)
     Orbital  2.3 strongly deviates from fixed occupation: 1.31510  (now: 1.00)
   65      0.277D-01      0.127D+00       -86.65154170    334.127711    0.00000    0.00000    4.01573    9    diag,B
   66      0.205D-02      0.127D+00       -85.73780632    336.667553    0.00000    0.00000    4.13327    9    diag,B
   67      0.303D-01      0.130D+00       -86.72159753    333.917814    0.00000    0.00000    4.02368    9    diag,B
     Orbital  1.3 strongly deviates from fixed occupation: 1.71981  (now: 2.00)
     Orbital  2.3 strongly deviates from fixed occupation: 1.28011  (now: 1.00)
   68      0.353D-01      0.127D+00       -86.87532242    333.492955    0.00000    0.00000    4.01050    9    diag,B
   69      0.235D-02      0.126D+00       -85.73653757    336.670949    0.00000    0.00000    4.13084    9    diag,B
   70      0.373D-01      0.130D+00       -86.52265078    334.477902    0.00000    0.00000    4.03259    9    orth
     Orbital  1.3 strongly deviates from fixed occupation: 1.71815  (now: 2.00)
     Orbital  2.3 strongly deviates from fixed occupation: 1.28170  (now: 1.00)
   71      0.303D-01      0.128D+00       -86.85812540    333.541573    0.00000    0.00000    4.01509    9    diag,B
   72      0.758D-02      0.126D+00       -85.76625867    336.588276    0.00000    0.00000    4.12755    9    diag,B
   73      0.356D-01      0.130D+00       -86.70512148    333.963872    0.00000    0.00000    4.02980    9    diag,B
     Orbital  1.3 strongly deviates from fixed occupation: 1.70556  (now: 2.00)
     Orbital  2.3 strongly deviates from fixed occupation: 1.29441  (now: 1.00)
   74      0.336D-01      0.127D+00       -86.75677315    333.829912    0.00000    0.00000    4.01771    9    diag,B
   75      0.247D-02      0.127D+00       -85.68773939    336.805506    0.00000    0.00000    4.12670    9    diag,B
   76      0.344D-01      0.130D+00       -86.65347438    334.109724    0.00000    0.00000    4.03173    9    diag,B
     Orbital  1.3 strongly deviates from fixed occupation: 1.72372  (now: 2.00)
     Orbital  2.3 strongly deviates from fixed occupation: 1.27620  (now: 1.00)
   77      0.346D-01      0.127D+00       -86.87925815    333.481621    0.00000    0.00000    4.01574    9    diag,B
   78      0.423D-02      0.126D+00       -85.72496408    336.702523    0.00000    0.00000    4.12482    9    diag,B
   79      0.372D-01      0.130D+00       -86.64332130    334.138132    0.00000    0.00000    4.03389    9    diag,B
     Orbital  1.3 strongly deviates from fixed occupation: 1.71294  (now: 2.00)
     Orbital  2.3 strongly deviates from fixed occupation: 1.28700  (now: 1.00)
   80      0.332D-01      0.127D+00       -86.80365210    333.696635    0.00000    0.00000    4.01900    9    orth
   81      0.266D-02      0.127D+00       -85.70220216    336.765353    0.00000    0.00000    4.12399    9    diag,B
   82      0.353D-01      0.130D+00       -86.70099294    333.975473    0.00000    0.00000    4.03252    9    diag,B
     Orbital  1.3 strongly deviates from fixed occupation: 1.71743  (now: 2.00)
     Orbital  2.3 strongly deviates from fixed occupation: 1.28252  (now: 1.00)
   83      0.352D-01      0.127D+00       -86.82620740    333.632630    0.00000    0.00000    4.01834    9    diag,B
   84      0.199D-02      0.126D+00       -85.69262725    336.791885    0.00000    0.00000    4.12336    9    diag,B
   85      0.362D-01      0.130D+00       -86.66025585    334.090378    0.00000    0.00000    4.03432    9    diag,B
     Orbital  1.3 strongly deviates from fixed occupation: 1.71957  (now: 2.00)
     Orbital  2.3 strongly deviates from fixed occupation: 1.28037  (now: 1.00)
   86      0.345D-01      0.127D+00       -86.84065887    333.591434    0.00000    0.00000    4.01878    9    diag,B
   87      0.308D-02      0.126D+00       -85.70367020    336.761286    0.00000    0.00000    4.12260    9    diag,B
   88      0.363D-01      0.130D+00       -86.68991056    334.006649    0.00000    0.00000    4.03401    9    diag,B
     Orbital  1.3 strongly deviates from fixed occupation: 1.71607  (now: 2.00)
     Orbital  2.3 strongly deviates from fixed occupation: 1.28389  (now: 1.00)
   89      0.349D-01      0.127D+00       -86.81245332    333.671667    0.00000    0.00000    4.01971    9    diag,B
   90      0.197D-02      0.127D+00       -85.68834778    336.803645    0.00000    0.00000    4.12238    9    orth
   91      0.358D-01      0.130D+00       -86.68976790    334.007074    0.00000    0.00000    4.03410    9    diag,B
     Orbital  1.3 strongly deviates from fixed occupation: 1.71960  (now: 2.00)
     Orbital  2.3 strongly deviates from fixed occupation: 1.28036  (now: 1.00)
   92      0.353D-01      0.127D+00       -86.83509583    333.607291    0.00000    0.00000    4.01924    9    diag,B
   93      0.229D-02      0.126D+00       -85.69333950    336.789859    0.00000    0.00000    4.12199    9    diag,B
   94      0.364D-01      0.130D+00       -86.68253282    334.027449    0.00000    0.00000    4.03467    9    diag,B
     Orbital  1.3 strongly deviates from fixed occupation: 1.71820  (now: 2.00)
     Orbital  2.3 strongly deviates from fixed occupation: 1.28176  (now: 1.00)
   95      0.350D-01      0.127D+00       -86.82485593    333.636381    0.00000    0.00000    4.01983    9    diag,B
   96      0.225D-02      0.126D+00       -85.69161128    336.794607    0.00000    0.00000    4.12178    9    diag,B
   97      0.361D-01      0.130D+00       -86.69641733    333.988255    0.00000    0.00000    4.03437    9    diag,B
     Orbital  1.3 strongly deviates from fixed occupation: 1.71836  (now: 2.00)
     Orbital  2.3 strongly deviates from fixed occupation: 1.28160  (now: 1.00)
   98      0.354D-01      0.127D+00       -86.82385798    333.639240    0.00000    0.00000    4.01985    9    diag,B
   99      0.201D-02      0.126D+00       -85.68789378    336.804897    0.00000    0.00000    4.12166    9    diag,B
  100      0.362D-01      0.130D+00       -86.68972778    334.007135    0.00000    0.00000    4.03467    9    orth
     Orbital  1.3 strongly deviates from fixed occupation: 1.71923  (now: 2.00)
     Orbital  2.3 strongly deviates from fixed occupation: 1.28073  (now: 1.00)
  101      0.353D-01      0.127D+00       -86.82975299    333.622463    0.00000    0.00000    4.01983    9    diag,B
  102      0.220D-02      0.126D+00       -85.69055445    336.797535    0.00000    0.00000    4.12150    9    diag,B
  103      0.363D-01      0.130D+00       -86.69326268    333.997140    0.00000    0.00000    4.03469    9    diag,B
     Orbital  1.3 strongly deviates from fixed occupation: 1.71846  (now: 2.00)
     Orbital  2.3 strongly deviates from fixed occupation: 1.28151  (now: 1.00)
  104      0.353D-01      0.127D+00       -86.82358794    333.639992    0.00000    0.00000    4.02006    9    diag,B
  105      0.205D-02      0.126D+00       -85.68797296    336.804667    0.00000    0.00000    4.12144    9    diag,B
  106      0.361D-01      0.130D+00       -86.69540764    333.991088    0.00000    0.00000    4.03465    9    diag,B
     Orbital  1.3 strongly deviates from fixed occupation: 1.71902  (now: 2.00)
     Orbital  2.3 strongly deviates from fixed occupation: 1.28094  (now: 1.00)
  107      0.354D-01      0.127D+00       -86.82695045    333.630435    0.00000    0.00000    4.01999    9    diag,B
  108      0.206D-02      0.126D+00       -85.68821378    336.804006    0.00000    0.00000    4.12137    9    diag,B
  109      0.362D-01      0.130D+00       -86.69315582    333.997437    0.00000    0.00000    4.03478    9    diag,B
     Orbital  1.3 strongly deviates from fixed occupation: 1.71894  (now: 2.00)
     Orbital  2.3 strongly deviates from fixed occupation: 1.28102  (now: 1.00)
  110      0.354D-01      0.127D+00       -86.82628840    333.632311    0.00000    0.00000    4.02007    9    orth
  111      0.209D-02      0.126D+00       -85.68841881    336.803434    0.00000    0.00000    4.12132    9    diag,B
  112      0.362D-01      0.130D+00       -86.69586970    333.989773    0.00000    0.00000    4.03474    9    diag,B
     Orbital  1.3 strongly deviates from fixed occupation: 1.71884  (now: 2.00)
     Orbital  2.3 strongly deviates from fixed occupation: 1.28113  (now: 1.00)
  113      0.354D-01      0.127D+00       -86.82511864    333.635640    0.00000    0.00000    4.02011    9    diag,B
  114      0.203D-02      0.126D+00       -85.68745068    336.806112    0.00000    0.00000    4.12130    9    diag,B
  115      0.362D-01      0.130D+00       -86.69513302    333.991853    0.00000    0.00000    4.03477    9    diag,B
     Orbital  1.3 strongly deviates from fixed occupation: 1.71906  (now: 2.00)
     Orbital  2.3 strongly deviates from fixed occupation: 1.28090  (now: 1.00)
  116      0.354D-01      0.127D+00       -86.82658882    333.631458    0.00000    0.00000    4.02009    9    diag,B
  117      0.206D-02      0.126D+00       -85.68792863    336.804790    0.00000    0.00000    4.12126    9    diag,B
  118      0.362D-01      0.130D+00       -86.69529563    333.991390    0.00000    0.00000    4.03480    9    diag,B
     Orbital  1.3 strongly deviates from fixed occupation: 1.71892  (now: 2.00)
     Orbital  2.3 strongly deviates from fixed occupation: 1.28104  (now: 1.00)
  119      0.354D-01      0.127D+00       -86.82551383    333.634513    0.00000    0.00000    4.02014    9    diag,B
  120      0.205D-02      0.126D+00       -85.68757619    336.805763    0.00000    0.00000    4.12125    9    orth
  121      0.362D-01      0.130D+00       -86.69605531    333.989246    0.00000    0.00000    4.03478    9    diag,B
     Orbital  1.3 strongly deviates from fixed occupation: 1.71899  (now: 2.00)
     Orbital  2.3 strongly deviates from fixed occupation: 1.28097  (now: 1.00)
  122      0.355D-01      0.127D+00       -86.82584623    333.633569    0.00000    0.00000    4.02013    9    diag,B
  123      0.204D-02      0.126D+00       -85.68746690    336.806066    0.00000    0.00000    4.12124    9    diag,B
  124      0.362D-01      0.130D+00       -86.69556729    333.990622    0.00000    0.00000    4.03481    9    diag,B
     Orbital  1.3 strongly deviates from fixed occupation: 1.71902  (now: 2.00)
     Orbital  2.3 strongly deviates from fixed occupation: 1.28095  (now: 1.00)
  125      0.355D-01      0.127D+00       -86.82598478    333.633174    0.00000    0.00000    4.02014    9    diag,B
  126      0.205D-02      0.126D+00       -85.68758609    336.805736    0.00000    0.00000    4.12122    9    diag,B
  127      0.362D-01      0.130D+00       -86.69600592    333.989383    0.00000    0.00000    4.03480    9    diag,B
     Orbital  1.3 strongly deviates from fixed occupation: 1.71898  (now: 2.00)
     Orbital  2.3 strongly deviates from fixed occupation: 1.28099  (now: 1.00)
  128      0.355D-01      0.127D+00       -86.82562590    333.634195    0.00000    0.00000    4.02015    9    diag,B
  129      0.204D-02      0.126D+00       -85.68738366    336.806296    0.00000    0.00000    4.12122    9    diag,B
  130      0.362D-01      0.130D+00       -86.69600662    333.989381    0.00000    0.00000    4.03480    9    orth
     Orbital  1.3 strongly deviates from fixed occupation: 1.71902  (now: 2.00)
     Orbital  2.3 strongly deviates from fixed occupation: 1.28094  (now: 1.00)
  131      0.355D-01      0.127D+00       -86.82591040    333.633386    0.00000    0.00000    4.02014    9    diag,B
  132      0.204D-02      0.126D+00       -85.68744484    336.806127    0.00000    0.00000    4.12121    9    diag,B
  133      0.362D-01      0.130D+00       -86.69594511    333.989554    0.00000    0.00000    4.03481    9    diag,B


 ?APPARENTLY NO CONVERGENCE, EXIT AFTER THREE FURTHER ITERATIONS


     Orbital  1.3 strongly deviates from fixed occupation: 1.71900  (now: 2.00)
     Orbital  2.3 strongly deviates from fixed occupation: 1.28096  (now: 1.00)
  134      0.355D-01      0.127D+00       -86.82576596    333.633796    0.00000    0.00000    4.02015    9    diag,B
  135      0.204D-02      0.126D+00       -85.67283704    336.837184    0.00000    0.00000    4.14598    9    orth
     Orbital  1.1 strongly deviates from fixed occupation: 1.41982  (now: 2.00)
     Orbital  2.1 strongly deviates from fixed occupation: 0.79143  (now: 2.00)
     Orbital  3.1 strongly deviates from fixed occupation: 0.74256  (now: 2.00)
     Orbital  4.1 strongly deviates from fixed occupation: 0.65870  (now: 2.00)
     Orbital  5.1 strongly deviates from fixed occupation: 0.28754  (now: 1.00)
     Orbital  6.1 strongly deviates from fixed occupation: 0.38122  (now: 1.00)
     Orbital  7.1 strongly deviates from fixed occupation: 0.52867  (now: 1.00)
     Orbital  1.2 strongly deviates from fixed occupation: 0.65315  (now: 2.00)
     Orbital  2.2 strongly deviates from fixed occupation: 0.54179  (now: 1.00)
     Orbital  3.2 strongly deviates from fixed occupation: 0.61495  (now: 1.00)
     Orbital  1.3 strongly deviates from fixed occupation: 0.77943  (now: 2.00)
     Orbital  2.3 strongly deviates from fixed occupation: 0.48779  (now: 1.00)
     Orbital  3.3 strongly deviates from fixed occupation: 0.42521  (now: 1.00)
     Orbital  1.4 strongly deviates from fixed occupation: 0.47779  (now: 1.00)
  136      0.381D-01      0.130D+00       -63.86434547    181.902787    0.00000    0.00000    2.57616    0    orth

 Final alpha occupancy:   7   3   3   1
 Final beta  occupancy:   4   1   1   0

 !RHF STATE 1.4 Energy                -63.864345465058
   --><property name="Energy" method="RHF" principal="true" stateSymmetry="4" stateNumber="1"
     value="-63.8643454650578"/><!--
 Nuclear energy                         9.21709533
 One-electron energy                 -164.03283423
 Two-electron energy                   90.95139349
 Virial quotient                       -0.42846485
 !RHF STATE 1.4 Dipole moment           0.00000000     0.00000000     2.57616265
 Dipole moment /Debye                   0.00000000     0.00000000     6.54752347
   --><property name="Dipole moment" method="RHF" principal="true" stateSymmetry="4"
     stateNumber="1" value="0.0 0.0 2.57616265191834"/><!--

 ELECTRON ORBITALS
 =================


   Orb  Occ    Energy  Couls-En    Coefficients

                                   1 1s      1 1s      1 1s      1 1s      1 1s      1 1s      1 1s      1 1s      1 1s      1 1s
                                   1 1s      1 1s      1 1s      1 1s      1 1s      1 1s      1 1s      1 1s      1 1s      1 1s
                                   1 1s      1 1s      1 1s      1 1s      1 1s      1 1s      1 1s      1 1s      1 1s      1 1s
                                   1 1s      1 1s      1 2pz     1 2pz     1 2pz     1 2pz     1 2pz     1 2pz     1 2pz     1 2pz
                                   1 2pz     1 2pz     1 2pz     1 2pz     1 2pz     1 2pz     1 2pz     1 2pz     1 2pz     1 2pz
                                   1 2pz     1 2pz     1 2pz     1 2pz     1 2pz     1 2pz     1 2pz     1 2pz     1 2pz     1 2pz
                                   1 2pz     1 2pz     1 3d0     1 3d2+    1 3d0     1 3d2+    1 3d0     1 3d2+    1 3d0     1 3d2+
                                   1 3d0     1 3d2+    1 3d0     1 3d2+    1 3d0     1 3d2+    1 3d0     1 3d2+    1 3d0     1 3d2+
                                   1 3d0     1 3d2+    1 3d0     1 3d2+    1 3d0     1 3d2+    1 3d0     1 3d2+    1 3d0     1 3d2+
                                   1 3d0     1 3d2+    1 3d0     1 3d2+    1 3d0     1 3d2+    1 3d0     1 3d2+    1 3d0     1 3d2+
                                   1 3d0     1 3d2+    1 3d0     1 3d2+    1 3d0     1 3d2+    1 4f0     1 4f2+    1 4f0     1 4f2+
                                   1 4f0     1 4f2+    1 4f0     1 4f2+    1 4f0     1 4f2+    1 4f0     1 4f2+    1 4f0     1 4f2+
                                   1 4f0     1 4f2+    1 4f0     1 4f2+    1 4f0     1 4f2+    1 4f0     1 4f2+    1 4f0     1 4f2+
                                   1 4f0     1 4f2+    1 4f0     1 4f2+    1 5g0     1 5g4+    1 5g2+    1 5g0     1 5g4+    1 5g2+
                                   1 5g0     1 5g4+    1 5g2+    1 5g0     1 5g4+    1 5g2+    1 5g0     1 5g4+    1 5g2+    1 5g0
                                   1 5g4+    1 5g2+    1 5g0     1 5g4+    1 5g2+    1 5g0     1 5g4+    1 5g2+    1 5g0     1 5g4+
                                   1 5g2+    1 6h2+    1 6h4+    1 6h0     1 6h2+    1 6h4+    1 6h0     1 6h2+    1 6h4+    1 6h0
                                   2 1s      2 1s      2 1s      2 1s      2 1s      2 1s      2 2pz     2 2py     2 2pz     2 2py
                                   2 2pz     2 2py     2 3d0     2 3d2+    2 3d1-    2 3d0     2 3d2+    2 3d1-

   1.1   2     0.0550   -9.7231 -0.000000  0.000000 -0.000002  0.000029  0.000127  0.000394  0.000833  0.001850 -0.000716  0.000431
                                 0.028379  0.379635 -0.049856 -0.166571 -0.022076  0.555881  0.038614  0.001880 -0.056465 -0.000050
                                -0.000228 -0.000673 -0.001912 -0.060503 -0.472825  0.164448  0.339059  0.025889  0.034405 -0.001447
                                 0.002460 -0.001021  0.000000 -0.000000  0.000000 -0.000000  0.000000 -0.000000  0.000000 -0.000001
                                 0.000005 -0.000048 -0.000496 -0.000331  0.012743 -0.015795  0.025211  0.050132  0.025675  0.012139
                                -0.004242  0.000192  0.000643 -0.007028 -0.006708  0.002734  0.012055  0.002048  0.003400 -0.010805
                                 0.000519 -0.000382 -0.000000  0.000000  0.000000 -0.000000 -0.000000  0.000000  0.000002 -0.000002
                                -0.000027  0.000041 -0.000226  0.000352  0.001219 -0.001358 -0.003006  0.001579  0.000693 -0.003570
                                 0.008850 -0.019020  0.000065 -0.000095  0.000352 -0.000694 -0.000857  0.001378  0.003458  0.000990
                                 0.012726 -0.002836  0.001348 -0.005051  0.001910 -0.001943 -0.000617  0.000173  0.000556  0.001542
                                 0.000448  0.003021  0.000102 -0.000755 -0.000160  0.000067 -0.000000  0.000000  0.000002 -0.000001
                                -0.000020  0.000015 -0.000101  0.000195  0.000586 -0.000235  0.001025 -0.001943  0.004583 -0.011759
                                -0.000398  0.000157 -0.001142  0.000885  0.000306 -0.011792  0.002086 -0.000498 -0.001778 -0.002115
                                 0.001253  0.001737  0.000076  0.000211 -0.000010 -0.000010  0.000000  0.000148  0.000003  0.000051
                                -0.000276 -0.000111 -0.000053  0.000676  0.000591  0.000190  0.001300  0.001779  0.000013 -0.001102
                                 0.001079 -0.001315  0.001194 -0.000996  0.001090 -0.000886  0.000826 -0.001017  0.000282 -0.000102
                                 0.000340  0.000008  0.000031  0.000012  0.000007  0.000020  0.000016  0.000144  0.000174 -0.000111
                                 0.001272  0.013797  0.055270  0.127353  0.061987  0.022620 -0.001416 -0.002775 -0.006831 -0.016117
                                -0.005002 -0.012559 -0.000325 -0.001199  0.001188 -0.000897 -0.002480  0.001923

   2.1   2     3.7466   -5.2279 -0.000000  0.000003 -0.000016  0.000293  0.001283  0.003984  0.008419  0.018725 -0.007504  0.026525
                                -0.278232 -1.271697 -2.463153  5.203969 15.391989 -4.591753-18.653948-11.902712 -5.924570 -0.000512
                                -0.002307 -0.006811 -0.019332  0.433748  2.177778-17.160745  8.759043 22.005470  7.395984  0.188869
                                -0.065185  0.013910 -0.000000  0.000001 -0.000002  0.000007 -0.000010  0.000013 -0.000028  0.000081
                                -0.000332  0.003048  0.033323  0.046117  0.306292  0.368387  1.157275  0.768479 -0.622357  0.315427
                                -0.216624 -0.012307 -0.047898 -0.241393 -0.364274 -0.459941 -1.215409  0.102058  0.165209 -0.375888
                                -0.024805  0.004230 -0.000033  0.000013  0.000173 -0.000069 -0.000725  0.000289  0.003871 -0.001541
                                -0.071841  0.028622 -0.659307  0.262970  1.392093 -0.556896 -0.566680  0.228687 -1.882954  0.771792
                                -1.267937  0.560081  0.171856 -0.068488  1.264060 -0.504471 -1.921333  0.767764  1.319444 -0.535609
                                 1.609827 -0.678097  1.405360 -0.656716 -1.345621  0.568142  0.809484 -0.500792 -0.461195  0.315833
                                 0.182435 -0.006019 -0.073206  0.016294  0.020483 -0.005220  0.000114 -0.000070 -0.000878  0.000537
                                 0.008259 -0.005104  0.022864 -0.016775 -0.262445  0.152133 -0.123307  0.066853  1.425956 -0.873877
                                 0.197682 -0.119906  0.475443 -0.286311 -1.555894  0.965088  1.023596 -0.582642 -0.709645  0.348251
                                 0.358525 -0.159910 -0.100208  0.074685  0.000750 -0.000012 -0.000140 -0.001920  0.000041 -0.000047
                                 0.007627 -0.000131 -0.001136 -0.015890  0.000232  0.000677  0.062124 -0.000823 -0.016109 -0.055770
                                 0.011144 -0.021370  0.079030  0.001529  0.076433 -0.043527  0.007598 -0.035858  0.018368  0.000148
                                 0.017661  0.000032 -0.000047 -0.000195  0.000359 -0.000061 -0.000657  0.001845  0.001113 -0.007415
                                -0.000191  0.001056 -0.027738  0.087320 -0.164965  0.682483  0.000081  0.005137  0.022577 -0.035632
                                 0.089995 -0.065398  0.001704  0.050319  0.024270 -0.066688 -0.057568 -0.042698

   3.1   2     3.8781   -4.1944 -0.000001  0.000004 -0.000019  0.000355  0.001557  0.004838  0.010227  0.022767 -0.009140  0.032238
                                -0.336826 -1.533597 -3.248360  7.766358 31.769493-18.154268-44.002625-16.846955 -2.204596 -0.000621
                                -0.002801 -0.008271 -0.023498  0.525346  2.674290-31.670815 36.588657 29.692915  6.124805  0.171434
                                -0.056118  0.011674  0.000000 -0.000001  0.000006 -0.000018  0.000024 -0.000031  0.000067 -0.000191
                                 0.000784 -0.007202 -0.078738 -0.109452 -0.748881 -0.931463 -3.090697 -4.247535  7.568617 -7.382983
                                 1.543960  0.029077  0.113240  0.585790  0.921502  1.144383  3.686381 -0.640683 -2.008733  1.871527
                                 0.163639 -0.028341 -0.000033 -0.000057  0.000171  0.000296 -0.000716 -0.001244  0.003825  0.006641
                                -0.071049 -0.123426 -0.653215 -1.136117  1.385523  2.416805 -0.569349 -0.999347 -1.921087 -3.372178
                                -1.184123 -1.464615  0.170035  0.295474  1.253677  2.181899 -1.909450 -3.327507  1.332728  2.340474
                                 1.665088  2.895417  0.642395 -2.300884 -0.130972  3.682598  0.579476  0.698016 -0.306293 -0.302293
                                 0.075635 -0.058578 -0.036053  0.000852  0.010399  0.001028  0.000070  0.000113 -0.000538 -0.000865
                                 0.005086  0.008233  0.014859  0.027269 -0.162452 -0.250748 -0.085664 -0.126768  1.019550  1.647953
                                 0.121874  0.194616  0.298097  0.473458 -1.784755 -2.946195  1.144659  1.828937  0.202493  0.415332
                                 0.006955 -0.021378 -0.028360 -0.037154  0.000735 -0.000730  0.000707 -0.002448  0.003117 -0.002133
                                 0.008680 -0.009480  0.008224 -0.025499  0.031499 -0.024668  0.102170 -0.119367  0.104301 -0.329218
                                 0.496547 -0.338194  0.016389 -0.148998 -0.028735  0.240631 -0.247642  0.297691 -0.025276  0.021905
                                -0.034428 -0.000320 -0.000488 -0.000240 -0.000386  0.000255 -0.000449 -0.008130 -0.005826 -0.005577
                                 0.002651 -0.028898  0.467685 -1.622272  6.355431 -1.077540 -0.074724 -0.114556  0.861918  1.644287
                                -0.388041 -0.722826 -0.073810 -0.047589  0.097293  0.241890  0.731841 -0.731033

   4.1   2     5.6120   -2.1898 -0.000000  0.000001 -0.000003  0.000063  0.000276  0.000858  0.001815  0.004049 -0.001634  0.005892
                                -0.063447 -0.301262 -0.583605  1.099342  2.028669 -0.284527  8.679335  6.731708  9.077959 -0.000110
                                -0.000496 -0.001467 -0.004176  0.100119  0.516097 -2.645344 -1.357010-13.831830 -6.679810 -0.077596
                                 0.026645 -0.005679  0.000006 -0.000022  0.000089 -0.000270  0.000362 -0.000473  0.001027 -0.002937
                                 0.012043 -0.110867 -1.217711 -1.708587-12.028404-14.977612-44.230849-15.428027  9.335725 -6.452975
                                 4.769470  0.448473  1.756752  9.341904 14.954248 18.874913 38.805087 -1.682265 -5.212816  4.927714
                                 0.433739 -0.075762 -0.000002 -0.000008  0.000009  0.000043 -0.000039 -0.000182  0.000209  0.000974
                                -0.003922 -0.018106 -0.037024 -0.166288  0.080285  0.347962 -0.030792 -0.136590 -0.064745 -0.424653
                                 0.005942  0.030268  0.009445  0.043336  0.071738  0.318823 -0.110326 -0.482998  0.064906  0.324258
                                 0.021331  0.202710 -0.036371 -0.348133  0.184053  0.459753  0.011909  0.561166 -0.059538 -0.618379
                                -0.068662 -0.248125  0.016066  0.038650 -0.003931 -0.007822 -0.000085  0.000070  0.000613 -0.000508
                                -0.001968  0.001559  0.190027 -0.161710  0.860232 -0.727539  0.880274 -0.746677 -1.155682  1.045101
                                -0.239858  0.200882 -0.791882  0.666888  0.919466 -0.963777 -0.595133  0.472189  0.589420  0.022849
                                -0.349615 -0.096428  0.046674 -0.078930  0.002116  0.002627 -0.008780 -0.006638 -0.009914  0.032320
                                 0.022736  0.030327 -0.100552 -0.051833 -0.081043  0.265632  0.174762  0.259614 -0.842474 -0.126004
                                -0.233326  0.771559 -0.027302  0.181622 -0.581315  0.062746 -0.162608  0.330789 -0.025846  0.065614
                                -0.109365 -0.000205 -0.000130 -0.000007  0.001995  0.000872 -0.002466 -0.007442 -0.001876  0.003622
                                 0.000072  0.015213  0.073720 -0.405091  1.594098 -3.116269 -0.052520 -0.206240  0.068021  0.335989
                                -0.224938 -0.324087 -0.063332 -0.028940 -0.023812  0.102250  0.067440  0.019516

   5.1   +     3.0541   -1.7197  0.000008 -0.000050  0.000263 -0.004835 -0.021204 -0.065857 -0.139151 -0.309460  0.123993 -0.437001
                                 4.562946 20.607831 40.332568-85.472095********** 92.097209391.376279250.938692101.481336  0.008460
                                 0.038138  0.112569  0.319504 -7.103701-35.297311288.203252****************************** -3.812058
                                 1.308854 -0.278528  0.000004 -0.000015  0.000062 -0.000186  0.000249 -0.000325  0.000705 -0.002016
                                 0.008261 -0.075901 -0.830081 -1.153708 -7.863230 -9.777971-29.881520-15.961823 10.190718 -9.196782
                                 6.217886  0.306482  1.194012  6.155477  9.649697 12.050230 30.043717 -2.346181 -6.709592  6.950256
                                 0.606464 -0.106105 -0.000015 -0.000014  0.000080  0.000073 -0.000336 -0.000308  0.001794  0.001645
                                -0.033366 -0.030539 -0.307370 -0.280633  0.654215  0.595968 -0.271700 -0.246462 -0.881562 -0.819298
                                -0.608662 -0.860283  0.079903  0.073079  0.590249  0.538433 -0.900188 -0.820349  0.619328  0.563123
                                 0.795092  0.777302  0.972456  2.684796 -0.742658 -1.660874  0.737272  2.584914 -0.536704 -2.028335
                                 0.030900 -0.114167 -0.033374 -0.058096  0.010274  0.020872  0.000003 -0.000007 -0.000025  0.000051
                                 0.000346 -0.000159  0.006868  0.015836  0.013368  0.070781  0.021648  0.071050  0.007949 -0.159740
                                 0.002600 -0.019446 -0.000725 -0.064190  0.339822  0.803594  0.079010 -0.032311  0.242282  0.522578
                                -0.247073 -0.464711 -0.038064 -0.045947 -0.001223  0.002916 -0.000894  0.004996 -0.011771  0.003648
                                -0.014371  0.033440 -0.010558  0.041072 -0.094163  0.030577 -0.121148  0.262114 -0.096764  0.377585
                                -0.786716  0.318077 -0.226974  0.529814 -0.176368  0.175656 -0.334255  0.158187 -0.083070  0.154599
                                -0.077943  0.000026 -0.000026  0.000036 -0.000210  0.000116 -0.000250  0.000051 -0.000422 -0.000188
                                -0.000953  0.009968 -0.168620  0.406039  4.622580 -5.351506  0.003526  0.004644 -0.545900 -0.936783
                                -0.854978 -1.622706  0.028921  0.017123  0.037169 -0.111567 -0.446159  0.495081

   6.1   +     5.4331   -0.0630 -0.000013  0.000083 -0.000438  0.008059  0.035347  0.109816  0.232165  0.516886 -0.207568  0.743041
                                -7.934538-37.754286-71.914141149.411321378.084812-78.729488********************-58.293494 -0.014101
                                -0.063582 -0.187751 -0.533467 12.448998 64.714182**********122.669839308.192615 86.629645  2.439074
                                -0.842178  0.179884 -0.000005  0.000019 -0.000079  0.000238 -0.000319  0.000417 -0.000904  0.002586
                                -0.010604  0.097618  1.072031  1.503742 10.568249 13.131454 37.745095 13.305126 -8.933709  9.524066
                                -2.667367 -0.394858 -1.546453 -8.211862-13.111098-16.329991-32.955135  0.987079  3.117259 -2.640156
                                -0.263429  0.046803  0.000016  0.000006 -0.000084 -0.000030  0.000351  0.000124 -0.001880 -0.000664
                                 0.035132  0.012410  0.326251  0.115277 -0.695673 -0.247684  0.277579  0.101961  0.966276  0.342871
                                 0.263268 -0.128578 -0.084326 -0.029789 -0.628713 -0.222272  0.960548  0.340640 -0.677850 -0.243379
                                -0.617990 -0.209142 -0.136326  0.867313 -0.365420 -3.069064 -0.339188 -1.234358  0.206288  0.754079
                                -0.044598 -0.116542  0.020808  0.059376 -0.005914 -0.016880 -0.000063 -0.000044  0.000455  0.000323
                                -0.001601 -0.001115  0.134033  0.096227  0.617840  0.442814  0.629662  0.453567 -0.943608 -0.785172
                                -0.175221 -0.124942 -0.576215 -0.413265  0.932036  0.908855 -1.032036 -1.295651 -0.195970 -0.602803
                                 0.062669  0.239801  0.006264 -0.033134 -0.000518  0.002957 -0.001800  0.002993 -0.011305  0.007435
                                -0.007394  0.034023 -0.021622  0.027948 -0.092437  0.063412 -0.080188  0.294894 -0.196439  0.120271
                                -0.332172  0.224528 -0.072318  0.215363 -0.122565 -0.162103  0.130216 -0.158087  0.038060 -0.032761
                                 0.033638  0.000074  0.000348  0.000022 -0.001766 -0.002337 -0.002176  0.004540  0.011066  0.002847
                                -0.000712  0.025908 -0.074927  0.365942 -9.246150  0.770955 -0.170383 -0.292535  0.122666  0.197160
                                 1.381405  2.455163 -0.019689 -0.063491  0.107547  0.003198  0.048411 -0.139872

   7.1   +     5.4788   -1.2699  0.000010 -0.000064  0.000339 -0.006224 -0.027299 -0.084812 -0.179312 -0.399256  0.160361 -0.574087
                                 6.130459 29.173365 55.827967******************** 65.969008194.792373117.158339 47.860846  0.010890
                                 0.049105  0.145005  0.412049 -9.619820-50.056350352.199187********************-67.824320 -1.889336
                                 0.653669 -0.139738  0.000001 -0.000003  0.000013 -0.000040  0.000053 -0.000070  0.000151 -0.000431
                                 0.001769 -0.016271 -0.178275 -0.248562 -1.725270 -2.071734 -5.328423 -0.394508 -1.911097  4.193312
                                 0.690056  0.065758  0.256648  1.344404  2.099792  2.445967  4.044373 -0.251859 -0.418815  0.994110
                                 0.059317 -0.009974 -0.000003 -0.000017  0.000018  0.000087 -0.000075 -0.000364  0.000405  0.001948
                                -0.007647 -0.036349 -0.072547 -0.337182  0.158679  0.724584 -0.063224 -0.301245 -0.238555 -1.015917
                                -0.196057 -1.023432  0.018455  0.087191  0.140944  0.649731 -0.217718 -0.995451  0.156713  0.709332
                                 0.200024  0.909977  0.436972  2.415268 -0.705666 -4.072897  0.104371  0.371168 -0.083136 -0.450620
                                -0.026304 -0.119032  0.003019  0.007134 -0.000465  0.000108 -0.000047 -0.000081  0.000338  0.000584
                                -0.000871 -0.001675  0.117029  0.193014  0.518756  0.866542  0.544651  0.908455 -0.868950 -1.475745
                                -0.139435 -0.236062 -0.472730 -0.796389  0.915000  1.547457 -0.947311 -1.586493 -0.103951 -0.185050
                                -0.048188 -0.085287 -0.019578 -0.030485 -0.003121  0.004788 -0.002787  0.012483 -0.017830  0.011557
                                -0.037521  0.056183 -0.034322  0.109171 -0.154769  0.103311 -0.382513  0.550471 -0.368648  0.389846
                                -0.533877  0.385819 -0.255992  0.318100 -0.254627 -0.078354  0.048579 -0.103096 -0.012564  0.016855
                                -0.012533 -0.000298 -0.000303 -0.000235 -0.001380 -0.000420 -0.001153 -0.001182 -0.000293 -0.001858
                                 0.000438  0.019194  0.163864 -0.199531 -6.204528 -1.956227 -0.082522 -0.208225 -0.073099 -0.031228
                                 0.644593  1.406910 -0.022630  0.164142 -0.221111  0.011939 -0.236553  0.252664

   8.1   0    -0.1453   -5.4610  0.000000 -0.000000  0.000001 -0.000017 -0.000076 -0.000238 -0.000505 -0.001128  0.000445 -0.000514
                                -0.011473 -0.193818  0.029694  0.070905 -0.110521 -0.176912 -0.484975 -0.873772 -1.166672  0.000030
                                 0.000138  0.000407  0.001163  0.026019  0.252270 -0.045059 -0.031997  0.636071  1.116251  0.027629
                                -0.014280  0.004224  0.000000 -0.000000  0.000000 -0.000000  0.000000 -0.000000  0.000000 -0.000001
                                 0.000003 -0.000026 -0.000277 -0.000289  0.001743 -0.006443 -0.003269  0.015241 -0.031510 -0.066424
                                -0.108654  0.000105  0.000378 -0.000667  0.000663  0.003637  0.014415  0.047140  0.133585 -0.170049
                                -0.013776  0.003162  0.000000  0.000000 -0.000000 -0.000001  0.000001  0.000003 -0.000003 -0.000018
                                 0.000056  0.000327  0.000517  0.003044 -0.001538 -0.007592  0.001584  0.004216  0.000574  0.005075
                                -0.006980 -0.011925 -0.000135 -0.000785 -0.000973 -0.005896  0.001692  0.009603 -0.001513 -0.003961
                                -0.007271 -0.017369  0.002006  0.023480  0.005740  0.027939  0.007312  0.050431  0.004477 -0.028170
                                 0.007687  0.038143 -0.002225 -0.010255  0.000853  0.002988 -0.000000 -0.000000  0.000001  0.000002
                                -0.000009 -0.000019 -0.000121 -0.000276 -0.000151 -0.000284 -0.000303 -0.000464 -0.001796 -0.001139
                                -0.000102 -0.000229 -0.000099 -0.000340  0.004108  0.009500  0.011680  0.019081  0.012604  0.019099
                                -0.005948 -0.013371  0.004685  0.007906 -0.000005  0.000010 -0.000007 -0.000037 -0.000020  0.000018
                                 0.000036  0.000079 -0.000053 -0.000147 -0.000277  0.000370 -0.000704 -0.000180 -0.000126  0.001500
                                -0.001562  0.001961  0.000782 -0.001697  0.000661  0.004322 -0.002643  0.004549 -0.001491  0.001065
                                -0.002451  0.000004  0.000009  0.000008  0.000015  0.000058  0.000003  0.000018 -0.000059  0.000020
                                 0.003707  0.041033  0.174014  0.425532  0.613175  0.367459  0.003620  0.005608  0.025350  0.034402
                                 0.053183  0.046865  0.000156  0.000763 -0.000893 -0.000504 -0.002108  0.002914

   9.1   0    -0.0050   -1.4421 -0.000000  0.000000 -0.000000  0.000004  0.000016  0.000049  0.000103  0.000229 -0.000091  0.000232
                                -0.001007  0.007765 -0.018011  0.025738  0.105478 -0.033788 -0.734741 -1.222031 -3.171444 -0.000006
                                -0.000028 -0.000083 -0.000236  0.000881 -0.007156 -0.099528  0.179756  1.549604  2.328473  0.334105
                                -0.041200  0.635588 -0.000000  0.000000 -0.000000  0.000000 -0.000000  0.000000 -0.000001  0.000002
                                -0.000008  0.000077  0.000834  0.001133  0.007002  0.009474  0.023467  0.013153 -0.017773  0.069333
                                -0.103535 -0.000309 -0.001192 -0.005617 -0.008683 -0.010218 -0.024974  0.504053  0.114381 -0.571844
                                -0.084634  0.514081 -0.000000 -0.000000  0.000000  0.000000 -0.000002 -0.000000  0.000008  0.000002
                                -0.000148 -0.000046 -0.001350 -0.000433  0.002894  0.001186 -0.001274 -0.000765 -0.003036 -0.000570
                                -0.001042  0.003348  0.000354  0.000110  0.002576  0.000845 -0.003934 -0.001436  0.002326  0.000484
                                 0.003771  0.003334  0.006755 -0.005523 -0.020937 -0.013989 -0.011866 -0.070763  0.021803  0.126772
                                 0.095599  0.048610  0.029569 -0.049829  0.158066 -0.032901 -0.000000  0.000000  0.000000 -0.000001
                                -0.000000  0.000006  0.000057  0.000020  0.000225 -0.000165  0.000208 -0.000043  0.000004  0.000895
                                -0.000055  0.000139 -0.000182  0.000308  0.000023 -0.002635 -0.007112 -0.002762 -0.005003 -0.022172
                                 0.015192  0.040882  0.034504 -0.038184 -0.000001 -0.000004 -0.000008  0.000007  0.000013  0.000029
                                -0.000014 -0.000040 -0.000082  0.000035  0.000090  0.000151 -0.000024 -0.000234 -0.000553 -0.000033
                                 0.000761  0.000942 -0.001103 -0.000909 -0.003423  0.001866  0.005358  0.007811 -0.001808 -0.003329
                                -0.013055 -0.000001 -0.000001 -0.000001 -0.000002 -0.000009 -0.000000 -0.000007  0.000010 -0.000005
                                -0.000554 -0.006107 -0.027249 -0.069642 -0.193667  0.825299  0.000154 -0.000647  0.000013 -0.003065
                                 0.042026  0.018461  0.000049 -0.000081  0.000185  0.001530  0.000950 -0.000620

                                   1 2px     1 2px     1 2px     1 2px     1 2px     1 2px     1 2px     1 2px     1 2px     1 2px
                                   1 2px     1 2px     1 2px     1 2px     1 2px     1 2px     1 2px     1 2px     1 2px     1 2px
                                   1 2px     1 2px     1 2px     1 2px     1 2px     1 2px     1 2px     1 2px     1 2px     1 2px
                                   1 3d1+    1 3d1+    1 3d1+    1 3d1+    1 3d1+    1 3d1+    1 3d1+    1 3d1+    1 3d1+    1 3d1+
                                   1 3d1+    1 3d1+    1 3d1+    1 3d1+    1 3d1+    1 3d1+    1 3d1+    1 3d1+    1 3d1+    1 3d1+
                                   1 3d1+    1 3d1+    1 4f1+    1 4f3+    1 4f1+    1 4f3+    1 4f1+    1 4f3+    1 4f1+    1 4f3+
                                   1 4f1+    1 4f3+    1 4f1+    1 4f3+    1 4f1+    1 4f3+    1 4f1+    1 4f3+    1 4f1+    1 4f3+
                                   1 4f1+    1 4f3+    1 4f1+    1 4f3+    1 4f1+    1 4f3+    1 4f1+    1 4f3+    1 4f1+    1 4f3+
                                   1 5g1+    1 5g3+    1 5g1+    1 5g3+    1 5g1+    1 5g3+    1 5g1+    1 5g3+    1 5g1+    1 5g3+
                                   1 5g1+    1 5g3+    1 5g1+    1 5g3+    1 5g1+    1 5g3+    1 5g1+    1 5g3+    1 6h1+    1 6h3+
                                   1 6h5+    1 6h1+    1 6h3+    1 6h5+    1 6h1+    1 6h3+    1 6h5+    2 2px     2 2px     2 2px
                                   2 3d1+    2 3d2-    2 3d1+    2 3d2-

   1.2   2     3.7623   -5.2101  0.000000 -0.000002  0.000007 -0.000020  0.000027 -0.000036  0.000078 -0.000222  0.000911 -0.008377
                                -0.091699 -0.127682 -0.876441 -1.106857 -3.411092 -1.584437  1.033096 -0.851800  0.764485  0.033840
                                 0.131974  0.685014  1.087169  1.384577  3.320307 -0.263285 -0.954372  0.694021  0.069234 -0.012163
                                -0.000028  0.000148 -0.000620  0.003312 -0.061478 -0.564411  1.192339 -0.485568 -1.620038 -1.069456
                                 0.147081  1.082280 -1.645424  1.133508  1.376786  1.207952 -1.141318  0.705087 -0.405525  0.142446
                                -0.059181  0.016656  0.000133 -0.000020 -0.001023  0.000150  0.009618 -0.001353  0.026125 -0.000991
                                -0.308195  0.054026 -0.145880  0.026690  1.664004 -0.282904  0.231293 -0.036144  0.556959 -0.087955
                                -1.810377  0.319753  1.177866 -0.143560 -0.784263  0.128578  0.390391 -0.050722 -0.124642  0.016062
                                 0.000743  0.000047 -0.001720 -0.000349  0.007414  0.000614 -0.014507 -0.002119  0.063406  0.000508
                                -0.042476 -0.029486  0.036541  0.061256 -0.019584 -0.016668  0.008465  0.013682 -0.000393  0.000024
                                 0.000234 -0.001060  0.000248  0.000223 -0.007853 -0.000826  0.000282 -0.003754  0.028391  0.111527
                                -0.022103  0.054491 -0.025423 -0.079381

   2.2   +     5.2787   -3.0018 -0.000006  0.000024 -0.000096  0.000288 -0.000387  0.000505 -0.001096  0.003135 -0.012855  0.118349
                                 1.299957  1.824494 12.848922 15.975972 46.677984 15.854388 -9.157192  6.002889 -5.780284 -0.478747
                                -1.875559 -9.978748-15.960823-20.029387-40.733147  1.836763  6.799928 -4.873735 -0.482013  0.084688
                                 0.000009 -0.000046  0.000193 -0.001035  0.019287  0.178207 -0.378192  0.153476  0.517492  0.193874
                                -0.046229 -0.342724  0.522410 -0.374685 -0.325266 -0.267527  0.127580 -0.078716  0.032418 -0.010377
                                 0.004238 -0.001190 -0.000034 -0.000111  0.000247  0.000805 -0.000699 -0.002594  0.081505  0.249909
                                 0.361972  1.132182  0.365039  1.166939 -0.499912 -1.589679 -0.099604 -0.313420 -0.328709 -1.040338
                                 0.416475  1.369334 -0.267592 -0.698915  0.171147  0.471700 -0.086938 -0.232066  0.027992  0.075303
                                 0.003458  0.003333 -0.012536 -0.011455  0.039348  0.037105 -0.103067 -0.091665  0.321360  0.297638
                                -0.277929 -0.257338  0.183364  0.251198 -0.089528 -0.123602  0.028440  0.040314  0.000164  0.000024
                                 0.000224 -0.001091 -0.001769 -0.001373  0.003413  0.001705  0.006089 -0.019751  0.099329  0.089522
                                -0.021559  0.013261 -0.056812 -0.129148

   3.2   +     5.3584   -3.8306  0.000002 -0.000008  0.000031 -0.000095  0.000127 -0.000167  0.000361 -0.001033  0.004237 -0.039009
                                -0.428544 -0.601685 -4.238110 -5.283098-15.275037 -4.969866  2.769507 -1.869752  1.782394  0.157810
                                 0.618381  3.291441  5.268520  6.630242 13.178113 -0.576700 -2.122498  1.526785  0.151556 -0.026648
                                -0.000009  0.000046 -0.000195  0.001043 -0.019419 -0.178759  0.377376 -0.153866 -0.540668 -0.144656
                                 0.046511  0.343294 -0.522142  0.383131  0.327663  0.111516 -0.100919  0.061905 -0.038596  0.013915
                                -0.005811  0.001649  0.000118 -0.000055 -0.000856  0.000401  0.002722 -0.001349 -0.266795  0.121410
                                -1.206368  0.554419 -1.235149  0.574831  1.639069 -0.761210  0.334969 -0.153779  1.108457 -0.511408
                                -1.371948  0.658871  0.831350 -0.378391 -0.545900  0.252716  0.275237 -0.123045 -0.088737  0.039495
                                -0.006267  0.000159  0.021866  0.000062 -0.070366  0.000879  0.178263  0.002862 -0.574155 -0.004825
                                 0.504723  0.028866 -0.289061  0.003893  0.134918 -0.009595 -0.041851  0.005930  0.000110 -0.000153
                                -0.000012  0.004206  0.000385 -0.001126 -0.006957 -0.003112  0.002426  0.031262 -0.004547  0.025132
                                -0.024634 -0.067701 -0.012761 -0.005673

   4.2   0     0.0039   -0.9566  0.000000 -0.000000  0.000000 -0.000001  0.000001 -0.000001  0.000003 -0.000009  0.000037 -0.000338
                                -0.003678 -0.005085 -0.034923 -0.038988 -0.110213 -0.078216  0.107495 -0.195394  0.657016  0.001362
                                 0.005276  0.027281  0.040797  0.045514  0.107379 -2.282146 -1.734666  2.463806  1.906305 -1.705764
                                 0.000000 -0.000001  0.000006 -0.000032  0.000586  0.005308 -0.010903  0.004179  0.012462  0.011284
                                -0.001397 -0.010112  0.015181 -0.009216 -0.010006 -0.031581  0.063663 -0.104792  0.145204 -0.227951
                                 0.288237 -0.604801  0.000000 -0.000000 -0.000001  0.000000  0.000005 -0.000003 -0.000054  0.000016
                                -0.000382  0.000174 -0.000243  0.000095  0.000933 -0.000540  0.000168 -0.000091  0.000425 -0.000217
                                -0.002032  0.001156  0.006544 -0.003753 -0.015593  0.000053  0.027691 -0.003566 -0.064289  0.032731
                                -0.000002  0.000008  0.000008 -0.000030 -0.000021  0.000083  0.000054 -0.000207 -0.000128  0.000506
                                 0.000276 -0.001146 -0.000520  0.002713  0.000679 -0.007990 -0.002825  0.011816 -0.000000 -0.000000
                                -0.000000  0.000000  0.000002 -0.000001 -0.000010  0.000003 -0.000012 -0.000302 -0.001633 -0.019965
                                -0.000007 -0.000061 -0.000846 -0.000147

   5.2   0     0.0127   -0.8826  0.000000 -0.000000  0.000001 -0.000002  0.000002 -0.000003  0.000006 -0.000018  0.000074 -0.000682
                                -0.007411 -0.010185 -0.067352 -0.081084 -0.220456 -0.152976  0.228493 -0.414992  1.263247  0.002745
                                 0.010620  0.053096  0.080543  0.092468  0.223133 -4.584119 -3.467527  4.965346  3.858008 -2.003615
                                -0.000000  0.000002 -0.000010  0.000055 -0.001021 -0.009257  0.019022 -0.007294 -0.021875 -0.020075
                                 0.002435  0.017637 -0.026485  0.016147  0.017580  0.056636 -0.114639  0.205476 -0.283883  0.423780
                                -0.621923  1.104487 -0.000000  0.000000  0.000001 -0.000000 -0.000008  0.000002  0.000101 -0.000001
                                 0.000720 -0.000070  0.000497 -0.000015 -0.001532  0.000355 -0.000313  0.000047 -0.000807  0.000100
                                 0.003630 -0.000662 -0.011496  0.002471  0.028325  0.001281 -0.053306 -0.004239  0.111753 -0.020465
                                 0.000005 -0.000006 -0.000018  0.000025  0.000049 -0.000068 -0.000121  0.000170  0.000284 -0.000426
                                -0.000631  0.000969  0.001320 -0.002197 -0.002403  0.006936  0.005512 -0.013115  0.000000  0.000000
                                -0.000000 -0.000000 -0.000003  0.000002  0.000011 -0.000001  0.000011  0.000177  0.002496  0.016104
                                 0.000071  0.000176  0.000975 -0.000116

                                   1 2py     1 2py     1 2py     1 2py     1 2py     1 2py     1 2py     1 2py     1 2py     1 2py
                                   1 2py     1 2py     1 2py     1 2py     1 2py     1 2py     1 2py     1 2py     1 2py     1 2py
                                   1 2py     1 2py     1 2py     1 2py     1 2py     1 2py     1 2py     1 2py     1 2py     1 2py
                                   1 3d1-    1 3d1-    1 3d1-    1 3d1-    1 3d1-    1 3d1-    1 3d1-    1 3d1-    1 3d1-    1 3d1-
                                   1 3d1-    1 3d1-    1 3d1-    1 3d1-    1 3d1-    1 3d1-    1 3d1-    1 3d1-    1 3d1-    1 3d1-
                                   1 3d1-    1 3d1-    1 4f1-    1 4f3-    1 4f1-    1 4f3-    1 4f1-    1 4f3-    1 4f1-    1 4f3-
                                   1 4f1-    1 4f3-    1 4f1-    1 4f3-    1 4f1-    1 4f3-    1 4f1-    1 4f3-    1 4f1-    1 4f3-
                                   1 4f1-    1 4f3-    1 4f1-    1 4f3-    1 4f1-    1 4f3-    1 4f1-    1 4f3-    1 4f1-    1 4f3-
                                   1 5g1-    1 5g3-    1 5g1-    1 5g3-    1 5g1-    1 5g3-    1 5g1-    1 5g3-    1 5g1-    1 5g3-
                                   1 5g1-    1 5g3-    1 5g1-    1 5g3-    1 5g1-    1 5g3-    1 5g1-    1 5g3-    1 6h1-    1 6h3-
                                   1 6h5-    1 6h1-    1 6h3-    1 6h5-    1 6h1-    1 6h3-    1 6h5-    2 1s      2 1s      2 1s
                                   2 1s      2 1s      2 1s      2 2py     2 2pz     2 2py     2 2pz     2 2py     2 2pz     2 3d1-
                                   2 3d0     2 3d2+    2 3d1-    2 3d0     2 3d2+

   1.3   2     3.7859   -4.8555  0.000000 -0.000002  0.000007 -0.000021  0.000029 -0.000037  0.000081 -0.000232  0.000951 -0.008740
                                -0.095713 -0.133324 -0.911593 -1.162703 -4.695735 -6.887274 12.098078-15.437184 -0.091736  0.035312
                                 0.137793  0.713043  1.133156  1.596226  5.927961 -0.192293  0.205952  0.753579  0.049140 -0.008677
                                 0.000010 -0.000053  0.000223 -0.001188  0.022056  0.202484 -0.427032  0.172012  0.515936 -0.667502
                                -0.052768 -0.388201  0.589768 -0.390305 -0.311936  4.645312 -7.225028 -0.607286  0.386289  0.097307
                                -0.014479  0.003002 -0.000058  0.000126  0.000446 -0.000969 -0.004185  0.009153 -0.010897  0.026810
                                 0.136674 -0.289147  0.069390 -0.141497 -0.731087  1.720451 -0.100749  0.219300 -0.244769  0.531022
                                 0.977431 -2.595109 -0.808532  1.939010  0.168993  0.236779 -0.105618 -0.016033  0.043797 -0.036803
                                 0.000707  0.002143 -0.003521 -0.007959  0.009390  0.025096 -0.032461 -0.071210  0.099472  0.244006
                                -0.425610 -0.728583  0.051786  0.192380  0.402536  0.558808 -0.081402 -0.110282  0.000501  0.000019
                                -0.000381  0.000129 -0.000759  0.000158  0.006203 -0.001063 -0.005273  0.002277 -0.018690  0.405437
                                -1.653521 11.236353 -1.208487 -0.067092 -0.021539  1.191751  0.728457 -2.437845 -1.392854  0.011607
                                 0.068692 -0.013234 -0.530225  0.003199  0.379017

   2.3   +     5.3171   -2.1786 -0.000007  0.000027 -0.000109  0.000330 -0.000443  0.000578 -0.001254  0.003589 -0.014719  0.135544
                                 1.489684  2.092633 14.776011 18.529193 56.367124 21.086662-13.828131 12.370319 -4.360383 -0.548437
                                -2.149997-11.467727-18.453819-23.665448-50.429825  1.745761  4.226435 -5.575784 -0.444162  0.077334
                                 0.000010 -0.000050  0.000212 -0.001137  0.021357  0.201338 -0.452645  0.208412  0.873306  1.116230
                                -0.051419 -0.391498  0.611818 -0.525684 -1.021207 -1.793377  2.677183  0.972589 -1.012001 -0.306132
                                 0.038061 -0.006582  0.000109 -0.000018 -0.000787  0.000124  0.002653 -0.000034 -0.237847  0.058196
                                -1.087012  0.239766 -1.117726  0.253686  1.527894 -0.376924  0.304198 -0.059235  1.006722 -0.207083
                                -1.332293  0.323853  0.789915 -0.375438 -0.396284 -0.474266  0.160896  0.281950 -0.076629  0.008640
                                -0.000264  0.006458 -0.000825 -0.024475 -0.000906  0.074667 -0.008555 -0.199907  0.007659  0.609813
                                -0.123668 -0.673239  0.140679  0.540612 -0.269834 -0.567255  0.085578  0.195767  0.000550  0.000264
                                -0.000210  0.002935 -0.000321  0.000762  0.001111  0.004972 -0.004802  0.000349 -0.026355 -0.001485
                                 0.389414 -5.533512  3.790147  0.238155  0.189762 -0.222478 -0.131034  1.310279  0.901097 -0.203005
                                -0.057863  0.071937  0.017488 -0.029482 -0.040271

   3.3   +     5.3868   -2.6839 -0.000006  0.000022 -0.000090  0.000270 -0.000363  0.000474 -0.001027  0.002939 -0.012056  0.111031
                                 1.220570  1.715742 12.120173 15.241210 46.338997 18.456310-13.998322 15.699882 -3.046204 -0.449293
                                -1.762014 -9.405995-15.151390-19.502507-41.741273  1.107564  3.311645 -3.076591 -0.293105  0.051902
                                 0.000031 -0.000163  0.000687 -0.003676  0.068607  0.636378 -1.371508  0.579415  2.097228  1.672751
                                -0.164575 -1.226960  1.882666 -1.417807 -1.805831 -2.924308  5.302420  0.713898 -0.498950 -0.008790
                                -0.013520  0.004320 -0.000056 -0.000094  0.000405  0.000681 -0.001247 -0.001941  0.128662  0.225406
                                 0.578964  1.007926  0.594734  1.053590 -0.761366 -1.563237 -0.158423 -0.273220 -0.528361 -0.920287
                                 0.656800  1.493579 -0.148596 -1.337286  0.404708 -0.255856 -0.179346  0.089446  0.049063  0.004931
                                -0.004620 -0.004295  0.018273  0.017041 -0.055038 -0.051526  0.157464  0.149542 -0.523764 -0.518638
                                 0.476730  0.448029 -0.166578 -0.186117 -0.220507 -0.389581  0.059834  0.100983 -0.000096  0.000068
                                -0.000189 -0.002424 -0.002216 -0.001367  0.001950  0.004887  0.002182  0.000336  0.000703  0.073301
                                 0.323304 -9.549387  0.899361 -0.060038 -0.072581 -0.016339 -0.055971  2.478140  1.326397 -0.114928
                                 0.105181  0.176361  0.122844  0.045322  0.005035

   4.3   0    -0.1908   -5.2899  0.000000 -0.000000  0.000000 -0.000000  0.000000 -0.000000  0.000001 -0.000002  0.000008 -0.000076
                                -0.000781 -0.000529  0.019508 -0.026817  0.023400  0.081424 -0.014821 -0.060775 -0.111018  0.000301
                                 0.001020 -0.010918 -0.008265  0.007577  0.037730  0.044045  0.121249 -0.188957 -0.010072  0.001730
                                -0.000000  0.000001 -0.000002  0.000012 -0.000219 -0.002001  0.004560 -0.001913 -0.002760  0.006771
                                 0.000523  0.003841 -0.006028  0.001743  0.004278 -0.023311 -0.020202 -0.042486  0.024089 -0.032590
                                 0.008442 -0.002313  0.000000 -0.000000 -0.000001  0.000000 -0.000004 -0.000014 -0.000604 -0.000574
                                -0.002366 -0.001852 -0.003385 -0.002922 -0.004791 -0.006423  0.000441  0.000157  0.002018  0.001248
                                -0.002429  0.002912 -0.002182  0.009049 -0.002061  0.007199  0.003306 -0.002049 -0.001161  0.003574
                                -0.000008 -0.000012  0.000011  0.000030 -0.000056 -0.000087  0.000015  0.000068 -0.000350 -0.000925
                                -0.000034  0.001018  0.002642  0.003131  0.000988  0.001778  0.001006  0.000327  0.000003  0.000004
                                 0.000001  0.000004  0.000029  0.000013  0.000315  0.000172  0.000273  0.003924  0.043257  0.182396
                                 0.440583  0.532164  0.246054  0.003096  0.002128  0.020515  0.014307  0.022395  0.026443 -0.000197
                                 0.000116  0.000369  0.003783  0.000408 -0.002117

   5.3   0     0.0009   -1.1956  0.000000 -0.000000  0.000000 -0.000001  0.000001 -0.000001  0.000003 -0.000008  0.000032 -0.000292
                                -0.003163 -0.004262 -0.024538 -0.037630 -0.088229 -0.052070  0.105977 -0.294286  0.291645  0.001174
                                 0.004518  0.020052  0.031785  0.039485  0.099553 -1.349227 -0.485848  1.752609  0.890493 -1.160932
                                 0.000000 -0.000001  0.000003 -0.000015  0.000272  0.002456 -0.004959  0.001849  0.005804  0.006548
                                -0.000647 -0.004671  0.006962 -0.004399 -0.004220 -0.017868 -0.009622 -0.135633  0.266593 -0.065279
                                 0.049172 -0.469555  0.000000 -0.000000 -0.000001  0.000000  0.000003 -0.000003 -0.000165 -0.000089
                                -0.000805 -0.000270 -0.000900 -0.000457 -0.000191 -0.001141  0.000236  0.000013  0.000781  0.000169
                                -0.002322  0.000569  0.006017  0.007699 -0.015564  0.021465  0.035252 -0.044881 -0.075261  0.033630
                                -0.000002  0.000005  0.000003 -0.000024 -0.000014  0.000063  0.000017 -0.000171 -0.000100  0.000277
                                 0.000119 -0.000715  0.001061  0.003252  0.004549  0.000554 -0.003932  0.003910  0.000001  0.000001
                                -0.000000 -0.000001  0.000005  0.000005  0.000060  0.000032  0.000037  0.000337  0.003672  0.016666
                                 0.041789  0.230360 -1.163623 -0.000182 -0.000106 -0.002446 -0.002376 -0.081129 -0.056476 -0.000154
                                -0.000054  0.000058  0.001632  0.000665 -0.000376

                                   1 3d2-    1 3d2-    1 3d2-    1 3d2-    1 3d2-    1 3d2-    1 3d2-    1 3d2-    1 3d2-    1 3d2-
                                   1 3d2-    1 3d2-    1 3d2-    1 3d2-    1 3d2-    1 3d2-    1 3d2-    1 3d2-    1 3d2-    1 3d2-
                                   1 3d2-    1 3d2-    1 4f2-    1 4f2-    1 4f2-    1 4f2-    1 4f2-    1 4f2-    1 4f2-    1 4f2-
                                   1 4f2-    1 4f2-    1 4f2-    1 4f2-    1 4f2-    1 4f2-    1 5g2-    1 5g4-    1 5g2-    1 5g4-
                                   1 5g2-    1 5g4-    1 5g2-    1 5g4-    1 5g2-    1 5g4-    1 5g2-    1 5g4-    1 5g2-    1 5g4-
                                   1 5g2-    1 5g4-    1 5g2-    1 5g4-    1 6h4-    1 6h2-    1 6h4-    1 6h2-    1 6h4-    1 6h2-
                                   2 2px     2 2px     2 2px     2 3d2-    2 3d1+    2 3d2-    2 3d1+

   1.4   +     5.3544   -4.1425  0.000007 -0.000037  0.000154 -0.000821  0.015275  0.140556 -0.296854  0.121279  0.425634  0.063744
                                -0.036581 -0.269933  0.410673 -0.302108 -0.249252  0.055398  0.013323  0.010687  0.011977 -0.006075
                                 0.002718 -0.000795 -0.000133  0.000966 -0.003102  0.300267  1.360770  1.400948 -1.853810 -0.376191
                                -1.250429  1.584910 -0.901353  0.604680 -0.295870  0.095259  0.004486  0.001481 -0.015102 -0.005628
                                 0.049702  0.017303 -0.121587 -0.047602  0.397590  0.156639 -0.336461 -0.164407  0.212533  0.052456
                                -0.103296 -0.016760  0.034279  0.000362  0.000052  0.000156 -0.002343 -0.003514  0.007196  0.005997
                                -0.040654 -0.012809 -0.074067  0.077286  0.035871  0.050343  0.031895

   2.4   0     0.0111   -0.8888  0.000001 -0.000004  0.000017 -0.000089  0.001639  0.014859 -0.030517  0.011686  0.035157  0.032180
                                -0.003909 -0.028308  0.042501 -0.025945 -0.028148 -0.090070  0.182129 -0.333746  0.463296 -0.650345
                                 1.078828 -1.586504  0.000000 -0.000001  0.000009 -0.000105 -0.000747 -0.000567  0.001292  0.000318
                                 0.000844 -0.003525  0.012302 -0.025297  0.050100 -0.101872 -0.000004  0.000004  0.000014 -0.000017
                                -0.000038  0.000047  0.000093 -0.000117 -0.000214  0.000288  0.000488 -0.000676 -0.000891  0.001111
                                 0.002628 -0.004422 -0.005146  0.008656 -0.000001 -0.000000  0.000002  0.000000 -0.000009 -0.000002
                                 0.000003 -0.001881 -0.008754 -0.000218 -0.000145  0.000577  0.000370

   3.4   0     0.0301   -1.3133 -0.000002  0.000008 -0.000033  0.000177 -0.003259 -0.029543  0.060639 -0.023216 -0.070104 -0.064729
                                 0.007772  0.056279 -0.084475  0.051734  0.056034  0.177182 -0.340647  0.752222 -1.007579  1.382599
                                -2.723318  1.436885  0.000000 -0.000003  0.000023 -0.000295 -0.002085 -0.001593  0.003621  0.000882
                                 0.002345 -0.009971  0.034230 -0.047683  0.129312 -0.371030 -0.000021  0.000028  0.000080 -0.000107
                                -0.000219  0.000295  0.000541 -0.000726 -0.001254  0.001741  0.002914 -0.004038 -0.006297  0.008833
                                 0.017348 -0.026804 -0.026887  0.035092 -0.000001  0.000000  0.000002  0.000000 -0.000008  0.000001
                                -0.001025 -0.002957 -0.075399 -0.000077 -0.000023 -0.000217 -0.000829

 HOMO      7.1     5.478825 =     149.0864eV
 LUMO      4.3    -0.190835 =      -5.1929eV
 LUMO-HOMO        -5.669660 =    -154.2793eV

 No convergence



 **********************************************************************************************************************************
 DATASETS  * FILE   NREC   LENGTH (MB)   RECORD NAMES
              1      19       22.87       500      610      700      900      950      970     1000      129      960     1100
                                          VAR    BASINP    GEOM    SYMINP    ZMAT    AOBASIS   BASIS     P2S    ABASIS      S
                                         1400     1410     1420     1200     1210     1080     1600     1650     1700
                                           T        V       ECP      H0       H01     AOSYM     SMH    MOLCAS    OPER

              2       4        4.77       700     1000      520     2100
                                         GEOM     BASIS   MCVARS     RHF

 PROGRAMS   *        TOTAL       RHF       INT
 CPU TIMES  *       235.40    112.85    122.30
 REAL TIME  *       263.84 SEC
 DISK USED  *        20.42 GB
 SF USED    *         0.28 MB
 GA USED    *         0.00 MB       (max)       0.00 MB       (current)
 **********************************************************************************************************************************
   -->
   <time start="18:26:04" end="18:30:27" cpu="235.4" system="27.63" real="263.84"/>
   <storage units="megabyte" memory="8001.84" sf="0.28" df="414.61" eaf="20000.59" ga="0.0"/>
  </jobstep><!--
 SETTING SCF            =       -63.86434547  AU
 SETTING _CC_NORM_MAX   =         2.00000000
  --><jobstep command="RCCSD(T)" commandset="CCSD">
   <!--


 PROGRAM * CCSD (Restricted open-shell coupled cluster)     Authors: C. Hampel, H.-J. Werner, 1991, M. Deegan, P.J. Knowles, 1992


 Convergence thresholds:  THRVAR = 1.00D-08  THRDEN = 1.00D-06

 CCSD(T)     terms to be evaluated (factor= 1.000)


 Number of closed-shell orbitals:   6 (   4   1   1   0 )
 Number of active  orbitals:        8 (   3   2   2   1 )
 Number of external orbitals:     480 ( 181 111 122  66 )

 Memory could be reduced to 617.40 Mwords without degradation in triples

 Number of N-1 electron functions:              20
 Number of N-2 electron functions:             190
 Number of singly external CSFs:              3039
 Number of doubly external CSFs:           8369389
 Total number of CSFs:                     8372428

 Molecular orbitals read from record     2100.2  Type=RHF/CANONICAL (state 1.4)

 ?Error: RHF not converged. This error exit can be avoided using the IGNORE_ERROR option on the ORBITAL directive
   --><error/><!--
  --></jobstep><!--
  -->
  <input>
  <!--
 --></job><!--
--></molpro>
