<?xml version="1.0"?>
<molpro xmlns="http://www.molpro.net/schema/molpro-output"
  xmlns:xsd="http://www.w3.org/1999/XMLSchema"
  xmlns:cml="http://www.xml-cml.org/schema"
  xmlns:stm="http://www.xml-cml.org/schema"
  xmlns:xhtml="http://www.w3.org/1999/xhtml">
 <!--

 Nodes     nprocs
 nid00009    11
 Number of processes for MPI-2 version of Molpro:   nprocs(total)=   12   nprocs(compute)=   11   nprocs(helper)=    1

 Using customized tuning parameters: mindgm=7; mindgv=16; mindgc=1; mindgr=1; noblas=0; minvec=7
 default implementation of scratch files=sf

 --><job>
  <!--

 Variables initialized (889), CPU time= 0.01 sec
 Commands  initialized (702), CPU time= 0.02 sec, 572 directives.
 Default parameters read. Elapsed time= 0.20 sec

 Checking input...
 Passed
1


                                         ***  PROGRAM SYSTEM MOLPRO  ***
                                       Copyright, TTI GmbH Stuttgart, 2015
                                    Version 2015.1 linked Dec 29 2018 15:55:43


 **********************************************************************************************************************************
 LABEL *   Calculation for GdH3 atom, singlet and triplet
  64 bit mpp version                                                                     DATE: 28-Dec-22          TIME: 05:40:06
 **********************************************************************************************************************************

 SHA1:             19cd028119e0e09f93f0674bd8af7968d9b3eff6
 **********************************************************************************************************************************
  -->
  <!--

 THRESHOLDS:

 ZERO    =  1.00D-12  ONEINT  =  1.00D-12  TWOINT  =  1.00D-15  PREFAC  =  1.00D-14  LOCALI  =  1.00D-09  EORDER  =  1.00D-04
 ENERGY  =  0.00D+00  ETEST   =  0.00D+00  EDENS   =  0.00D+00  THRDEDEF=  1.00D-06  GRADIENT=  1.00D-02  STEP    =  1.00D-03
 ORBITAL =  1.00D-05  CIVEC   =  1.00D-05  COEFF   =  1.00D-04  PRINTCI =  5.00D-02  PUNCHCI =  9.90D+01  OPTGRAD =  3.00D-04
 OPTENERG=  1.00D-06  OPTSTEP =  3.00D-04  THRGRAD =  1.00D-10  COMPRESS=  1.00D-11  VARMIN  =  1.00D-07  VARMAX  =  1.00D-03
 THRDOUB =  0.00D+00  THRDIV  =  1.00D-05  THRRED  =  1.00D-07  THRPSP  =  1.00D+00  THRDC   =  1.00D-10  THRCS   =  1.00D-10
 THRNRM  =  1.00D-08  THREQ   =  0.00D+00  THRDE   =  1.00D+00  THRREF  =  1.00D-05  SPARFAC =  1.00D+00  THRDLP  =  1.00D-07
 THRDIA  =  1.00D-10  THRDLS  =  1.00D-07  THRGPS  =  0.00D+00  THRKEX  =  0.00D+00  THRDIS  =  2.00D-01  THRVAR  =  1.00D-10
 THRLOC  =  1.00D-06  THRGAP  =  1.00D-06  THRLOCT = -1.00D+00  THRGAPT = -1.00D+00  THRORB  =  1.00D-06  THRMLTP =  0.00D+00
 THRCPQCI=  1.00D-10  KEXTA   =  0.00D+00  THRCOARS=  0.00D+00  SYMTOL  =  1.00D-06  GRADTOL =  1.00D-06  THROVL  =  1.00D-08
 THRORTH =  1.00D-08  GRID    =  1.00D-06  GRIDMAX =  1.00D-03  DTMAX   =  0.00D+00  THROCCDE=  1.00D-01  THROCCDE=  1.00D-01



 THRESHOLDS:

 ZERO    =  1.00D-12  ONEINT  =  1.00D-12  TWOINT  =  1.00D-15  PREFAC  =  1.00D-14  LOCALI  =  1.00D-09  EORDER  =  1.00D-04
 ENERGY  =  0.00D+00  ETEST   =  0.00D+00  EDENS   =  0.00D+00  THRDEDEF=  1.00D-06  GRADIENT=  1.00D-02  STEP    =  1.00D-03
 ORBITAL =  1.00D-05  CIVEC   =  1.00D-05  COEFF   =  1.00D-04  PRINTCI =  5.00D-02  PUNCHCI =  9.90D+01  OPTGRAD =  3.00D-04
 OPTENERG=  1.00D-06  OPTSTEP =  3.00D-04  THRGRAD =  1.00D-10  COMPRESS=  1.00D-11  VARMIN  =  1.00D-07  VARMAX  =  1.00D-03
 THRDOUB =  0.00D+00  THRDIV  =  1.00D-05  THRRED  =  1.00D-07  THRPSP  =  1.00D+00  THRDC   =  1.00D-10  THRCS   =  1.00D-10
 THRNRM  =  1.00D-08  THREQ   =  0.00D+00  THRDE   =  1.00D+00  THRREF  =  1.00D-05  SPARFAC =  1.00D+00  THRDLP  =  1.00D-07
 THRDIA  =  1.00D-10  THRDLS  =  1.00D-07  THRGPS  =  0.00D+00  THRKEX  =  0.00D+00  THRDIS  =  2.00D-01  THRVAR  =  1.00D-10
 THRLOC  =  1.00D-06  THRGAP  =  1.00D-06  THRLOCT = -1.00D+00  THRGAPT = -1.00D+00  THRORB  =  1.00D-06  THRMLTP =  0.00D+00
 THRCPQCI=  1.00D-10  KEXTA   =  0.00D+00  THRCOARS=  0.00D+00  SYMTOL  =  1.00D-06  GRADTOL =  1.00D-06  THROVL  =  1.00D-15
 THRORTH =  1.00D-08  GRID    =  1.00D-06  GRIDMAX =  1.00D-03  DTMAX   =  0.00D+00  THROCCDE=  1.00D-01  THROCCDE=  1.00D-01



 Variable memory set to 1000000000 words,  buffer space   230000 words

 SETTING BASIS          =    USERDEF
 SETTING GD_CCSD        =      -108.94859710
 SETTING H_CCSD         =        -0.49982987
 SETTING NE             =        19.00000000
 SETTING SYMM           =         4.00000000
 SETTING SS             =         7.00000000
 SETTING A1             =         6.00000000
 SETTING B1             =         3.00000000
 SETTING B2             =         3.00000000
 SETTING A2             =         1.00000000
 ZUNIT=ANG


Geometry recognized as XYZ

  --><jobstep command="RHF-SCF" commandset="SCFPRO">
   <!--


 Recomputing integrals since basis changed


 Using spherical harmonics



 PROGRAM * SEWARD (Integral evaluation for generally contracted gaussian basis sets)     Author: Roland Lindh, 1990

 Geometry written to block  1 of record 700


 Point group  C2v


   --><cml:molecule>
    <cml:symmetry pointGroup="C2v"/>
    <cml:atomArray>
     <cml:atom id="a1" elementType="Gd" x3="0.0" y3="0.0" z3="0.0"/>
     <cml:atom id="a2" elementType="H" x3="0.0" y3="0.0" z3="2.1"/>
    </cml:atomArray>
    <cml:bondArray>
     <cml:bond atomRefs2="a1 a2"/>
    </cml:bondArray>
   </cml:molecule><!--

 ATOMIC COORDINATES

 NR  ATOM    CHARGE       X              Y              Z

   1  GD     18.00    0.000000000    0.000000000    0.000000000
   2  H       1.00    0.000000000    0.000000000    3.968424862

 Bond lengths in Bohr (Angstrom)

 1-2  3.968424862
     ( 2.100000000)

 NUCLEAR CHARGE:                   19
 NUMBER OF PRIMITIVE AOS:         619
 NUMBER OF SYMMETRY AOS:          469
 NUMBER OF CONTRACTIONS:          469   ( 183A1  + 112B1  + 112B2  +  62A2  )
 NUMBER OF CORE ORBITALS:           0   (   0A1  +   0B1  +   0B2  +   0A2  )
 NUMBER OF VALENCE ORBITALS:       18   (   8A1  +   4B1  +   4B2  +   2A2  )


 NUCLEAR REPULSION ENERGY    4.53580467

 EXTRA SYMMETRY OF AOS IN SYMMETRY 1:   1 1 1 1 1 1 1 1 1 1   1 1 1 1 1 1 1 1 1 1   1 1 1 1 1 1 1 1 1 1   1 1 1 1 1 1 1 1 1 1
                                        1 1 1 1 1 1 1 1 1 1   1 1 1 1 1 1 1 1 1 1   1 1 1 2 1 2 1 2 1 2   1 2 1 2 1 2 1 2 1 2
                                        1 2 1 2 1 2 1 2 1 2   1 2 1 2 1 2 1 2 1 2   1 2 1 2 1 2 1 2 1 2   1 2 1 2 1 2 1 2 1 2
                                        1 2 1 2 1 2 1 2 1 2   1 2 1 2 1 3 2 1 3 2   1 3 2 1 3 2 1 3 2 1   3 2 1 3 2 1 3 2 1 3
                                        2 2 3 1 2 3 1 2 3 1   1 1 1 1 1 1 1 1 1 1   2 1 2
 EXTRA SYMMETRY OF AOS IN SYMMETRY 2:   1 1 1 1 1 1 1 1 1 1   1 1 1 1 1 1 1 1 1 1   1 1 1 1 1 1 1 1 1 1   1 1 1 1 1 1 1 1 1 1
                                        1 1 1 1 1 1 1 1 1 1   1 1 1 2 1 2 1 2 1 2   1 2 1 2 1 2 1 2 1 2   1 2 1 2 1 2 1 2 1 2
                                        1 2 1 2 1 2 1 2 1 2   1 2 1 2 1 2 1 2 1 2   3 1 2 3 1 2 3 1 1 1   1 1
 EXTRA SYMMETRY OF AOS IN SYMMETRY 3:   1 1 1 1 1 1 1 1 1 1   1 1 1 1 1 1 1 1 1 1   1 1 1 1 1 1 1 1 1 1   1 1 1 1 1 1 1 1 1 1
                                        1 1 1 1 1 1 1 1 1 1   1 1 1 2 1 2 1 2 1 2   1 2 1 2 1 2 1 2 1 2   1 2 1 2 1 2 1 2 1 2
                                        1 2 1 2 1 2 1 2 1 2   1 2 1 2 1 2 1 2 1 2   3 1 2 3 1 2 3 1 1 1   1 1
 EXTRA SYMMETRY OF AOS IN SYMMETRY 4:   1 1 1 1 1 1 1 1 1 1   1 1 1 1 1 1 1 1 1 1   1 1 1 1 1 1 1 1 1 1   1 1 1 1 1 1 1 2 1 2
                                        1 2 1 2 1 2 1 2 1 2   1 2 1 2 2 1 2 1 2 1   1 1

 Eigenvalues of metric

         1 0.115E-06 0.304E-06 0.611E-06 0.722E-06 0.727E-06 0.740E-06 0.134E-05 0.432E-05
         2 0.616E-06 0.727E-06 0.439E-05 0.139E-04 0.238E-04 0.448E-04 0.884E-04 0.148E-03
         3 0.616E-06 0.727E-06 0.439E-05 0.139E-04 0.238E-04 0.448E-04 0.884E-04 0.148E-03
         4 0.727E-06 0.238E-04 0.149E-03 0.540E-03 0.826E-03 0.926E-03 0.420E-02 0.882E-02


 Contracted 2-electron integrals neglected if value below      1.0D-15
 AO integral compression algorithm  1   Integral accuracy      1.0D-15

     5641.339 MB (compressed) written to integral file ( 48.4%)

     Node minimum: 318.243 MB, node maximum: 741.343 MB


 NUMBER OF SORTED TWO-ELECTRON INTEGRALS:  140156171.     BUFFER LENGTH:  32768
 NUMBER OF SEGMENTS:   5  SEGMENT LENGTH:   31986864      RECORD LENGTH: 524288

 Memory used in sort:      32.54 MW

 SORT1 READ  1457666564. AND WROTE    55821816. INTEGRALS IN    162 RECORDS. CPU TIME:    27.49 SEC, REAL TIME:    37.72 SEC
 SORT2 READ   607978492. AND WROTE  1542818159. INTEGRALS IN  20471 RECORDS. CPU TIME:     3.29 SEC, REAL TIME:    10.85 SEC

 Node minimum:   140147600.  Node maximum:   140434714. integrals

 OPERATOR DM      FOR CENTER  0  COORDINATES:    0.000000    0.000000    0.000000


 **********************************************************************************************************************************
 DATASETS  * FILE   NREC   LENGTH (MB)   RECORD NAMES
              1      19       22.57       500      610      700      900      950      970     1000      129      960     1100
                                          VAR    BASINP    GEOM    SYMINP    ZMAT    AOBASIS   BASIS     P2S    ABASIS      S
                                         1400     1410     1420     1200     1210     1080     1600     1650     1700
                                           T        V       ECP      H0       H01     AOSYM     SMH    MOLCAS    OPER

 PROGRAMS   *        TOTAL       INT
 CPU TIMES  *       117.85    117.52
 REAL TIME  *       137.81 SEC
 DISK USED  *        12.91 GB
 GA USED    *         0.00 MB       (max)       0.00 MB       (current)
 **********************************************************************************************************************************


 PROGRAM * RHF-SCF (OPEN SHELL)       Authors: W. Meyer, H.-J. Werner


 NUMBER OF ELECTRONS:      13+    6-    SPACE SYMMETRY=4    SPIN SYMMETRY: Octet
 CONVERGENCE THRESHOLDS:    1.00E-05 (Density)    1.00E-07 (Energy)
 MAX. NUMBER OF ITERATIONS:      200
 INTERPOLATION TYPE:            DIIS
 INTERPOLATION STEPS:              2 (START)      1 (STEP)
 LEVEL SHIFTS:                 -2.00 (CLOSED) -1.00 (OPEN)

 Number of closed-shell orbitals:    6 (   4   1   1   0 )
 Number of open-shell orbitals:      7 (   2   2   2   1 )


 Guess basis ATOMIC-GUESS,GD=ECP46_GUESS not found. No density guess!


 Molecular orbital dump at record        3202.2

 ITERATION    DDIFF          GRAD             ENERGY        2-EL.EN.            DIPOLE MOMENTS         DIIS   ORB.
    1      0.000D+00      0.000D+00       -75.35784959    344.815045    0.00000    0.00000    3.82370    0    start
    2      0.000D+00      0.190D+00       -59.73170457     33.977328    0.00000    0.00000  -61.04116    0    diag,B
    3      0.434D+01      0.782D-01       -82.86717307    326.941656    0.00000    0.00000    4.01396    1    diag,B
    4      0.434D+01      0.166D+00       -91.37875227    304.174153    0.00000    0.00000    3.76607    2    diag,B
    5      0.132D-01      0.122D+00       -98.52306321    276.587270    0.00000    0.00000    2.69757    3    diag,B
    6      0.168D-01      0.808D-01      -104.25124336    242.765028    0.00000    0.00000    1.02942    4    diag,B
    7      0.193D-01      0.410D-01      -106.49383340    227.086989    0.00000    0.00000    0.30351    5    diag,B
    8      0.523D-02      0.255D-01      -107.55000231    218.534496    0.00000    0.00000   -0.16142    6    diag,B
    9      0.869D-02      0.173D-01      -107.76167347    213.818142    0.00000    0.00000   -0.39978    7    diag,B
   10      0.382D-02      0.119D-01      -108.02305390    202.719583    0.00000    0.00000   -1.34145    8    orth
   11      0.769D-02      0.329D-02      -108.13076157    199.637866    0.00000    0.00000   -2.02982    9    diag,B
   12      0.269D-02      0.445D-02      -107.99292714    201.461334    0.00000    0.00000   -1.22517   10    diag,B
   13      0.683D-02      0.417D-02      -107.90245169    202.301968    0.00000    0.00000   -0.58035   11    diag,B
   14      0.836D-02      0.416D-02      -107.89301371    202.656216    0.00000    0.00000   -0.46364   12    diag,B
   15      0.130D-02      0.375D-02      -107.88435671    202.028112    0.00000    0.00000   -0.40057   13    diag,B
   16      0.262D-02      0.402D-02      -107.88390212    201.863226    0.00000    0.00000   -0.41660   14    diag,B
   17      0.131D-02      0.404D-02      -107.88366476    201.877085    0.00000    0.00000   -0.41054   15    diag,B
   18      0.353D-03      0.405D-02      -107.88701632    201.844938    0.00000    0.00000   -0.44691   16    diag,B
   19      0.160D-02      0.394D-02      -107.91058176    201.096143    0.00000    0.00000   -0.71904   17    diag,B
   20      0.576D-02      0.345D-02      -107.92233041    200.772378    0.00000    0.00000   -0.87506   18    orth
   21      0.261D-02      0.306D-02      -107.93267916    200.261865    0.00000    0.00000   -1.02305   19    diag,B
   22      0.280D-02      0.285D-02      -107.94082885    200.513041    0.00000    0.00000   -1.11597   20    diag,B
   23      0.495D-02      0.226D-02      -107.95129186    199.735389    0.00000    0.00000   -1.28531   21    diag,B
   24      0.358D-02      0.228D-02      -107.94972625    199.810832    0.00000    0.00000   -1.25814   22    diag,B
   25      0.768D-03      0.229D-02      -107.94924963    199.812612    0.00000    0.00000   -1.25016   23    diag,B
   26      0.384D-03      0.231D-02      -107.94526999    199.965968    0.00000    0.00000   -1.24009   24    diag,B
   27      0.209D-02      0.246D-02      -107.94942218    199.705090    0.00000    0.00000   -1.21337   25    diag,B
   28      0.417D-02      0.230D-02      -107.95651566    200.602678    0.00000    0.00000   -1.00678   26    diag,B
   29      0.138D-01      0.152D-02      -107.95904280    200.340807    0.00000    0.00000   -1.05640   27    diag,B
   30      0.105D-02      0.158D-02      -107.95898921    200.342499    0.00000    0.00000   -1.05601   28    orth
   31      0.200D-04      0.158D-02      -107.95705661    200.185131    0.00000    0.00000   -0.97086   29    diag,B
   32      0.943D-02      0.164D-02      -107.95645183    200.033569    0.00000    0.00000   -0.94161   29    diag,B
   33      0.499D-02      0.158D-02      -107.95550691    199.497756    0.00000    0.00000   -0.81395   29    diag,B
   34      0.595D-02      0.151D-02      -107.95515669    199.025986    0.00000    0.00000   -0.69678   29    diag,B
   35      0.118D-01      0.152D-02      -107.95522694    199.070202    0.00000    0.00000   -0.63218   29    diag,B
   36      0.100D-01      0.108D-02      -107.95620926    197.881394    0.00000    0.00000   -0.47264   29    diag,B
   37      0.113D-01      0.950D-03      -107.95613411    198.115617    0.00000    0.00000   -0.46029   29    diag,B
   38      0.198D-02      0.822D-03      -107.95627026    198.306616    0.00000    0.00000   -0.41917   29    diag,B
   39      0.224D-02      0.657D-03      -107.95316360    197.159760    0.00000    0.00000   -0.28051   29    diag,B
   40      0.420D-02      0.113D-02      -107.95394162    197.120767    0.00000    0.00000   -0.28852   29    orth
   41      0.651D-03      0.104D-02      -107.95483455    197.808842    0.00000    0.00000   -0.35708   29    diag,B
   42      0.383D-02      0.706D-03      -107.95448589    197.693639    0.00000    0.00000   -0.35381   29    diag,B
   43      0.447D-03      0.775D-03      -107.95483848    197.686565    0.00000    0.00000   -0.35154   29    diag,B
   44      0.111D-02      0.711D-03      -107.95454479    197.528758    0.00000    0.00000   -0.35526   29    diag,B
   45      0.739D-03      0.805D-03      -107.95417489    197.440617    0.00000    0.00000   -0.36495   29    diag,B
   46      0.272D-03      0.853D-03      -107.95417161    197.407467    0.00000    0.00000   -0.36372   29    diag,B
   47      0.141D-03      0.855D-03      -107.95400586    197.309683    0.00000    0.00000   -0.37558   29    diag,B
   48      0.356D-03      0.899D-03      -107.95379258    197.247529    0.00000    0.00000   -0.37134   29    diag,B
   49      0.381D-03      0.893D-03      -107.95441456    197.320276    0.00000    0.00000   -0.37176   29    diag,B
   50      0.545D-03      0.714D-03      -107.95460446    197.409968    0.00000    0.00000   -0.37065   29    orth
   51      0.499D-03      0.623D-03      -107.95448762    197.385650    0.00000    0.00000   -0.36544   29    diag,B
   52      0.467D-03      0.645D-03      -107.95420462    197.491110    0.00000    0.00000   -0.36339   29    diag,B
   53      0.563D-03      0.566D-03      -107.95459102    197.571526    0.00000    0.00000   -0.38264   29    diag,B
   54      0.348D-03      0.535D-03      -107.95531529    197.588179    0.00000    0.00000   -0.41578   29    diag,B
   55      0.911D-03      0.546D-03      -107.95640121    197.784043    0.00000    0.00000   -0.45652   29    diag,B
   56      0.112D-02      0.412D-03      -107.95670149    197.732534    0.00000    0.00000   -0.47241   29    diag,B
   57      0.504D-03      0.416D-03      -107.95700930    197.667061    0.00000    0.00000   -0.49023   29    diag,B
   58      0.510D-03      0.438D-03      -107.95716160    197.620747    0.00000    0.00000   -0.50972   29    diag,B
   59      0.658D-03      0.469D-03      -107.95739304    197.675298    0.00000    0.00000   -0.52174   29    fixocc
   60      0.136D-02      0.454D-03      -107.95722757    197.651217    0.00000    0.00000   -0.52501   29    orth
   61      0.710D-03      0.461D-03      -107.95732842    197.645156    0.00000    0.00000   -0.49892   29    diag,B
   62      0.145D-02      0.487D-03      -107.95807323    197.675951    0.00000    0.00000   -0.54432   29    diag,B
   63      0.946D-03      0.484D-03      -107.95841861    197.797848    0.00000    0.00000   -0.55829   29    diag,B
   64      0.935D-03      0.421D-03      -107.95830176    197.764477    0.00000    0.00000   -0.55702   29    diag,B
   65      0.447D-03      0.449D-03      -107.95841707    197.794662    0.00000    0.00000   -0.56266   29    diag,B
   66      0.253D-03      0.435D-03      -107.95857080    198.085565    0.00000    0.00000   -0.56235   29    diag,B
   67      0.257D-02      0.336D-03      -107.95788517    197.898930    0.00000    0.00000   -0.54318   29    diag,B
   68      0.495D-02      0.357D-03      -107.95913906    197.884324    0.00000    0.00000   -0.59973   29    diag,B
   69      0.724D-03      0.407D-03      -107.95839131    197.874284    0.00000    0.00000   -0.56432   29    diag,B
   70      0.761D-03      0.380D-03      -107.95825519    197.854670    0.00000    0.00000   -0.56218   29    orth
   71      0.226D-03      0.391D-03      -107.95806885    197.847160    0.00000    0.00000   -0.56443   29    diag,B
   72      0.110D-02      0.381D-03      -107.95803044    197.865856    0.00000    0.00000   -0.55949   29    diag,B
   73      0.231D-03      0.375D-03      -107.95796732    197.966352    0.00000    0.00000   -0.55377   29    diag,B
   74      0.666D-03      0.314D-03      -107.95787148    197.974304    0.00000    0.00000   -0.55138   29    diag,B
   75      0.376D-03      0.304D-03      -107.95810378    197.969701    0.00000    0.00000   -0.56929   29    diag,B
   76      0.594D-03      0.328D-03      -107.95741114    197.927548    0.00000    0.00000   -0.50732   29    diag,B
   77      0.212D-02      0.318D-03      -107.95614042    197.903869    0.00000    0.00000   -0.45028   29    diag,B
   78      0.140D-02      0.280D-03      -107.95459122    197.861630    0.00000    0.00000   -0.32863   29    diag,B
   79      0.223D-02      0.240D-03      -107.95496629    197.862252    0.00000    0.00000   -0.31940   29    diag,B
   80      0.275D-02      0.208D-03      -107.95496404    197.876105    0.00000    0.00000   -0.31779   29    orth
   81      0.328D-03      0.207D-03      -107.95498722    197.887151    0.00000    0.00000   -0.31783   29    diag,B
   82      0.323D-03      0.206D-03      -107.95496517    197.887281    0.00000    0.00000   -0.30690   29    diag,B
   83      0.522D-03      0.212D-03      -107.95479557    197.875745    0.00000    0.00000   -0.32062   29    diag,B
   84      0.131D-02      0.196D-03      -107.95398001    197.681623    0.00000    0.00000   -0.28365   29    diag,B
   85      0.938D-03      0.222D-03      -107.95361515    197.780506    0.00000    0.00000   -0.22626   29    diag,B
   86      0.832D-03      0.167D-03      -107.95346803    197.841767    0.00000    0.00000   -0.19736   29    diag,B
   87      0.146D-02      0.166D-03      -107.95325383    197.615324    0.00000    0.00000   -0.13525   29    diag,B
   88      0.964D-03      0.176D-03      -107.95333343    197.647669    0.00000    0.00000   -0.03245   29    diag,B
   89      0.186D-02      0.107D-03      -107.95350703    197.812779    0.00000    0.00000    0.01016   29    diag,B
   90      0.611D-03      0.105D-03      -107.95376181    197.790325    0.00000    0.00000    0.00348   29    orth
   91      0.979D-03      0.862D-04      -107.95387160    197.672087    0.00000    0.00000    0.01494   29    diag,B
   92      0.667D-03      0.832D-04      -107.95397287    197.700036    0.00000    0.00000    0.03459   29    diag,B
   93      0.904D-03      0.652D-04      -107.95410118    197.759380    0.00000    0.00000    0.02300   29    diag,B
   94      0.112D-02      0.453D-04      -107.95418432    197.768806    0.00000    0.00000    0.02054   29    diag,B
   95      0.697D-03      0.428D-04      -107.95421538    197.772075    0.00000    0.00000    0.01768   29    diag,B
   96      0.165D-03      0.434D-04      -107.95422176    197.775097    0.00000    0.00000    0.01701   29    diag,B
   97      0.504D-04      0.430D-04      -107.95418926    197.779621    0.00000    0.00000    0.01868   29    diag,B
   98      0.511D-03      0.386D-04      -107.95418228    197.840936    0.00000    0.00000    0.01210   29    diag,B
   99      0.454D-03      0.523D-04      -107.95419745    197.774509    0.00000    0.00000   -0.00189   29    diag,B
  100      0.503D-03      0.510D-04      -107.95420161    197.786878    0.00000    0.00000   -0.00259   29    orth
  101      0.115D-02      0.383D-04      -107.95421597    197.818539    0.00000    0.00000   -0.00399   29    diag,B
  102      0.377D-03      0.195D-04      -107.95421771    197.821749    0.00000    0.00000   -0.00255   29    diag,B
  103      0.223D-03      0.160D-04      -107.95422217    197.852361    0.00000    0.00000   -0.00718   29    diag,B
  104      0.191D-03      0.186D-04      -107.95422365    197.825840    0.00000    0.00000   -0.00758   29    diag,B
  105      0.102D-03      0.128D-04      -107.95422469    197.828666    0.00000    0.00000   -0.00666   29    diag,B
  106      0.800D-04      0.114D-04      -107.95422330    197.827162    0.00000    0.00000   -0.00647   29    diag,B
  107      0.692D-04      0.116D-04      -107.95422273    197.838587    0.00000    0.00000   -0.00724   29    diag,B
  108      0.108D-03      0.898D-05      -107.95422192    197.841294    0.00000    0.00000   -0.00875   29    diag,B
  109      0.112D-03      0.737D-05      -107.95422142    197.826416    0.00000    0.00000   -0.00775   29    diag,B
  110      0.137D-03      0.959D-05      -107.95422147    197.838319    0.00000    0.00000   -0.00663   29    orth
  111      0.229D-03      0.400D-05      -107.95422163    197.837421    0.00000    0.00000   -0.00655   29    diag,B
  112      0.118D-03      0.346D-05      -107.95422166    197.835825    0.00000    0.00000   -0.00611   29    diag,B
  113      0.205D-04      0.303D-05      -107.95422173    197.835677    0.00000    0.00000   -0.00575   29    diag,B
  114      0.128D-04      0.300D-05      -107.95422174    197.835977    0.00000    0.00000   -0.00577   29    diag,B
  115      0.209D-05      0.304D-05      -107.95422180    197.835695    0.00000    0.00000   -0.00563    0    orth

 Final alpha occupancy:   6   3   3   1
 Final beta  occupancy:   4   1   1   0

 !RHF STATE 1.4 Energy               -107.954221801542
   --><property name="Energy" method="RHF" principal="true" stateSymmetry="4" stateNumber="1"
     value="-107.954221801542"/><!--
 Nuclear energy                         4.53580467
 One-electron energy                 -211.40787411
 Two-electron energy                   98.91784764
 Virial quotient                       -0.78962020
 !RHF STATE 1.4 Dipole moment           0.00000000     0.00000000    -0.00562881
 Dipole moment /Debye                   0.00000000     0.00000000    -0.01430607
   --><property name="Dipole moment" method="RHF" principal="true" stateSymmetry="4"
     stateNumber="1" value="0.0 0.0 -0.562881035808616E-02"/><!--

 ELECTRON ORBITALS
 =================


   Orb  Occ    Energy  Couls-En    Coefficients

                                   1 1s      1 1s      1 1s      1 1s      1 1s      1 1s      1 1s      1 1s      1 1s      1 1s
                                   1 1s      1 1s      1 1s      1 1s      1 1s      1 1s      1 1s      1 1s      1 1s      1 1s
                                   1 1s      1 1s      1 1s      1 1s      1 1s      1 1s      1 1s      1 1s      1 1s      1 1s
                                   1 1s      1 1s      1 2pz     1 2pz     1 2pz     1 2pz     1 2pz     1 2pz     1 2pz     1 2pz
                                   1 2pz     1 2pz     1 2pz     1 2pz     1 2pz     1 2pz     1 2pz     1 2pz     1 2pz     1 2pz
                                   1 2pz     1 2pz     1 2pz     1 2pz     1 2pz     1 2pz     1 2pz     1 2pz     1 2pz     1 2pz
                                   1 2pz     1 2pz     1 3d0     1 3d2+    1 3d0     1 3d2+    1 3d0     1 3d2+    1 3d0     1 3d2+
                                   1 3d0     1 3d2+    1 3d0     1 3d2+    1 3d0     1 3d2+    1 3d0     1 3d2+    1 3d0     1 3d2+
                                   1 3d0     1 3d2+    1 3d0     1 3d2+    1 3d0     1 3d2+    1 3d0     1 3d2+    1 3d0     1 3d2+
                                   1 3d0     1 3d2+    1 3d0     1 3d2+    1 3d0     1 3d2+    1 3d0     1 3d2+    1 3d0     1 3d2+
                                   1 3d0     1 3d2+    1 3d0     1 3d2+    1 3d0     1 3d2+    1 4f0     1 4f2+    1 4f0     1 4f2+
                                   1 4f0     1 4f2+    1 4f0     1 4f2+    1 4f0     1 4f2+    1 4f0     1 4f2+    1 4f0     1 4f2+
                                   1 4f0     1 4f2+    1 4f0     1 4f2+    1 4f0     1 4f2+    1 4f0     1 4f2+    1 4f0     1 4f2+
                                   1 4f0     1 4f2+    1 4f0     1 4f2+    1 5g0     1 5g4+    1 5g2+    1 5g0     1 5g4+    1 5g2+
                                   1 5g0     1 5g4+    1 5g2+    1 5g0     1 5g4+    1 5g2+    1 5g0     1 5g4+    1 5g2+    1 5g0
                                   1 5g4+    1 5g2+    1 5g0     1 5g4+    1 5g2+    1 5g0     1 5g4+    1 5g2+    1 5g0     1 5g4+
                                   1 5g2+    1 6h2+    1 6h4+    1 6h0     1 6h2+    1 6h4+    1 6h0     1 6h2+    1 6h4+    1 6h0
                                   2 1s      2 1s      2 1s      2 1s      2 1s      2 1s      2 2pz     2 2pz     2 2pz     2 3d0
                                   2 3d2+    2 3d0     2 3d2+

   1.1   2    -1.9983  -14.3577 -0.000000  0.000001 -0.000006  0.000116  0.000510  0.001589  0.003382  0.007632 -0.003099  0.006612
                                -0.001882  0.708583 -0.082038  0.061452  0.815318  0.508458  0.479945  0.321734  0.124102 -0.000203
                                -0.000919 -0.002724 -0.007843 -0.021608 -1.119669 -0.009468 -0.211925 -0.570781 -0.188120 -0.005989
                                 0.002137 -0.000465  0.000000 -0.000000  0.000000 -0.000000  0.000000 -0.000000  0.000000 -0.000000
                                 0.000001 -0.000005 -0.000053 -0.000102 -0.002243 -0.000187 -0.001359  0.002070 -0.005646  0.001970
                                -0.001668  0.000019  0.000081  0.001403  0.002576 -0.000919 -0.005106  0.000877  0.002107 -0.002797
                                -0.000224  0.000039 -0.000000 -0.000000  0.000000  0.000000 -0.000001 -0.000000  0.000003  0.000000
                                -0.000052 -0.000000 -0.000454 -0.000003  0.001191  0.000010 -0.001065 -0.000002 -0.000123 -0.000009
                                 0.002991  0.000015  0.000123  0.000001  0.000892  0.000007 -0.001502 -0.000012  0.000256 -0.000003
                                 0.001606  0.000011 -0.003797  0.000001  0.001994  0.000003 -0.000976  0.000002  0.000471  0.000003
                                -0.000555  0.000001  0.000181  0.000000 -0.000049  0.000000  0.000001  0.000000 -0.000010 -0.000000
                                 0.000136  0.000000  0.002432  0.000008  0.003643  0.000014  0.003398  0.000012  0.002219  0.000007
                                 0.001166  0.000003  0.000988  0.000002 -0.001049 -0.000002 -0.000442  0.000000  0.000495 -0.000001
                                -0.000200  0.000000 -0.000009 -0.000000  0.000021 -0.000004 -0.000000  0.000025  0.000014 -0.000000
                                 0.000241 -0.000281 -0.000001  0.000071 -0.000505 -0.000001  0.000420 -0.000031 -0.000000 -0.000024
                                 0.000667  0.000001 -0.000464  0.000452  0.000000  0.000326  0.000118  0.000000 -0.000048  0.000019
                                 0.000000  0.000000  0.000011  0.000011  0.000000  0.000046  0.000033  0.000001  0.000175  0.000181
                                 0.000053  0.000555  0.001779  0.005355  0.001198  0.002310 -0.000368 -0.002400 -0.001017  0.000339
                                 0.000000  0.000644  0.000001

   2.1   2    -1.0661  -11.7094 -0.000000  0.000000 -0.000000  0.000001  0.000002  0.000007  0.000015  0.000033 -0.000014  0.000026
                                 0.000072  0.004465  0.003275 -0.009483 -0.041993  0.019513  0.010487  0.005757 -0.012638 -0.000001
                                -0.000004 -0.000012 -0.000034 -0.000223 -0.008080  0.046498 -0.018251 -0.011994  0.005550  0.000044
                                -0.000022  0.000005  0.000000 -0.000000  0.000000 -0.000001  0.000002 -0.000003  0.000005 -0.000016
                                 0.000065 -0.000596 -0.006439 -0.005424  0.155755 -0.092453  0.164214  0.371039  0.089513  0.014703
                                -0.002847  0.002406  0.008768 -0.079167 -0.187012  0.173927  0.368354  0.002845  0.005195 -0.008658
                                -0.000759  0.000136 -0.000000 -0.000000  0.000000  0.000000 -0.000000 -0.000000  0.000002  0.000000
                                -0.000031 -0.000000 -0.000280 -0.000000  0.000180  0.000001  0.000860  0.000001  0.000253 -0.000001
                                 0.000426 -0.000006  0.000074  0.000000  0.000503  0.000001 -0.000530 -0.000001 -0.000518  0.000002
                                -0.004796  0.000001 -0.009358 -0.000009  0.002352 -0.000007  0.000352 -0.000007 -0.000322 -0.000004
                                -0.001242 -0.000002  0.000354  0.000000 -0.000093 -0.000000 -0.000000 -0.000000  0.000000  0.000000
                                -0.000003 -0.000000  0.000015 -0.000007  0.000323 -0.000011  0.001201 -0.000015  0.004265  0.000001
                                -0.000096 -0.000002 -0.000584 -0.000001  0.000973  0.000013 -0.002134  0.000001  0.002107  0.000001
                                -0.000908 -0.000000  0.000023  0.000000  0.000044  0.000004  0.000000  0.000087  0.000009  0.000001
                                 0.000212  0.000041  0.000001 -0.000108  0.000107  0.000002  0.001093  0.000193  0.000004  0.000572
                                 0.000193  0.000003 -0.001532  0.000086  0.000000  0.000977  0.000013 -0.000000 -0.000054 -0.000003
                                 0.000000 -0.000000  0.000041  0.000132 -0.000001  0.000081  0.000563 -0.000002 -0.000082  0.001096
                                 0.000244  0.002542  0.008775  0.020671 -0.003176  0.007805 -0.001704 -0.008215 -0.002922  0.001134
                                 0.000000  0.001572  0.000001

   3.1   2    -0.2457  -12.9765  0.000000 -0.000000  0.000000 -0.000000 -0.000002 -0.000006 -0.000014 -0.000031  0.000013 -0.000029
                                 0.000036 -0.003464 -0.001244  0.002899  0.009304 -0.013136  0.002613  0.019506  0.012028  0.000001
                                 0.000004  0.000011  0.000032  0.000029  0.006285 -0.014521  0.019277 -0.032854 -0.005880 -0.000014
                                 0.000017 -0.000004  0.000000 -0.000000  0.000000 -0.000000  0.000000 -0.000000  0.000000 -0.000000
                                 0.000000 -0.000002 -0.000023 -0.000029  0.000035 -0.000338 -0.002222 -0.005043  0.011769 -0.020657
                                -0.002716  0.000008  0.000033  0.000026 -0.000033  0.000854  0.004254  0.000531  0.004349 -0.000199
                                -0.000169  0.000032  0.000000 -0.000000 -0.000000  0.000001  0.000000 -0.000003 -0.000001  0.000015
                                 0.000010 -0.000285  0.000092 -0.002728 -0.000205  0.010629  0.000117 -0.011885 -0.000111  0.004572
                                -0.001797  0.077695 -0.000025  0.000687 -0.000175  0.005401  0.000270 -0.010790 -0.000034  0.005168
                                 0.000033  0.049318  0.005888  0.063042 -0.011825  0.054120 -0.001070  0.049901  0.001185  0.029883
                                 0.000538  0.014352 -0.000108 -0.001310  0.000027  0.000470 -0.000004  0.000092  0.000035 -0.000743
                                -0.000489  0.010398 -0.009400  0.201607 -0.015456  0.335230 -0.017382  0.374075 -0.012146  0.246132
                                -0.003741  0.077477 -0.001832  0.032751  0.000278  0.022356 -0.006350  0.093317 -0.000849 -0.034243
                                 0.000103  0.030097  0.000187 -0.010570 -0.000002  0.000000  0.000000  0.000022  0.000000  0.000014
                                -0.000031  0.000004 -0.000017  0.000125  0.000012  0.000056 -0.000278  0.000021  0.000056  0.000516
                                 0.000022  0.000733 -0.000092  0.000025  0.000733 -0.001286  0.000034  0.000674  0.000472  0.000027
                                 0.000680 -0.000193  0.000001 -0.000005 -0.000296  0.000001 -0.000021  0.000279  0.000005 -0.000063
                                -0.000014 -0.000151 -0.000459 -0.002441  0.019738 -0.005634  0.000080  0.001414 -0.005812 -0.000119
                                 0.000469 -0.000757  0.001601

   4.1   2    -0.2370  -12.6718 -0.000000  0.000000 -0.000001  0.000011  0.000049  0.000153  0.000328  0.000746 -0.000309  0.000700
                                -0.001130  0.079358  0.025812 -0.059758 -0.185202  0.288508 -0.056927 -0.427025 -0.260816 -0.000020
                                -0.000089 -0.000263 -0.000764 -0.000241 -0.143942  0.306321 -0.410928  0.682472  0.119066 -0.000041
                                -0.000282  0.000075 -0.000000  0.000000 -0.000000  0.000000 -0.000000  0.000000 -0.000000  0.000001
                                -0.000005  0.000044  0.000488  0.000631 -0.001364  0.006831  0.046394  0.106011 -0.247880  0.436682
                                 0.056528 -0.000180 -0.000701 -0.000218  0.001841 -0.018882 -0.091527 -0.010558 -0.089928  0.001473
                                 0.003395 -0.000656 -0.000000 -0.000000  0.000001  0.000000 -0.000003 -0.000000  0.000013  0.000001
                                -0.000246 -0.000015 -0.002182 -0.000145  0.005185  0.000564 -0.003400 -0.000629  0.002672  0.000241
                                 0.043619  0.004118  0.000583  0.000037  0.004162  0.000287 -0.006612 -0.000573  0.001208  0.000274
                                 0.003005  0.002611 -0.120573  0.003342  0.251420  0.002885  0.023439  0.002681 -0.024108  0.001624
                                -0.011495  0.000781  0.002404 -0.000072 -0.000592  0.000026  0.000091  0.000004 -0.000735 -0.000035
                                 0.010242  0.000484  0.197019  0.009388  0.324151  0.015622  0.364905  0.017448  0.255844  0.011512
                                 0.078360  0.003604  0.038197  0.001514 -0.004982  0.001079  0.134654  0.004412  0.018257 -0.001585
                                -0.001929  0.001429 -0.004024 -0.000500  0.000053 -0.000009  0.000000 -0.000446 -0.000011  0.000001
                                 0.000691 -0.000095  0.000001 -0.002585 -0.000281  0.000006  0.005949 -0.000469  0.000006 -0.010738
                                -0.000428  0.000041  0.001916 -0.000434  0.000040  0.027186 -0.000642  0.000036 -0.009966 -0.000582
                                 0.000037 -0.000010 -0.000034  0.000097 -0.000016 -0.000075  0.000436  0.000013 -0.000094  0.001343
                                 0.000328  0.003626  0.011399  0.056446 -0.409650  0.120869 -0.001727 -0.030416  0.121877  0.002575
                                 0.000023  0.016060  0.000086

   5.1   +    -0.5753   -5.7542  0.000000 -0.000000  0.000001 -0.000015 -0.000065 -0.000204 -0.000435 -0.000987  0.000405 -0.000960
                                 0.002539 -0.077329  0.009941 -0.030509 -0.199696 -0.066856 -0.036495 -0.147793 -0.203159  0.000026
                                 0.000118  0.000350  0.001012 -0.001581  0.132698  0.086424  0.021898  0.110683  0.212890  0.004338
                                -0.001487  0.000321 -0.000000  0.000000 -0.000000  0.000000 -0.000000  0.000000 -0.000000  0.000001
                                -0.000003  0.000033  0.000371 -0.000019 -0.033226  0.004335 -0.030817 -0.061867 -0.029604 -0.021481
                                -0.069336 -0.000136 -0.000477  0.018434  0.044200 -0.028768 -0.076084  0.018923  0.059700 -0.069503
                                -0.004504  0.000765 -0.000000  0.000000  0.000001 -0.000000 -0.000004  0.000000  0.000021 -0.000000
                                -0.000396  0.000000 -0.003643  0.000002  0.010315 -0.000006 -0.008267  0.000005  0.003613 -0.000000
                                 0.048685 -0.000036  0.000946 -0.000000  0.006990 -0.000003 -0.011964  0.000006  0.004263 -0.000002
                                 0.027782 -0.000021  0.017810 -0.000021  0.003212 -0.000026 -0.029023 -0.000026  0.005260 -0.000021
                                -0.010853 -0.000009  0.002809  0.000001 -0.000712 -0.000000 -0.000003 -0.000000  0.000022  0.000000
                                -0.000312 -0.000003 -0.006038 -0.000048 -0.009839 -0.000080 -0.010067 -0.000089 -0.002571 -0.000061
                                -0.002325 -0.000019 -0.001209 -0.000009  0.005743 -0.000005 -0.002062 -0.000019 -0.006461  0.000006
                                -0.002897 -0.000008 -0.000824  0.000002  0.000011  0.000005 -0.000000 -0.000081  0.000008 -0.000000
                                 0.000083  0.000106 -0.000000 -0.000122  0.000162  0.000000  0.001181  0.000118 -0.000000  0.002362
                                 0.000135  0.000003 -0.002058  0.000453  0.000005  0.001488  0.000562  0.000001 -0.002180  0.000229
                                 0.000000  0.000000 -0.000005  0.000009  0.000000  0.000056 -0.000074  0.000001  0.000159  0.000247
                                 0.004326  0.047590  0.203555  0.519040  0.404702  0.067692 -0.002035 -0.026778 -0.040835  0.001640
                                 0.000000  0.004754  0.000010

   6.1   +    -0.1447   -6.5366  0.000000 -0.000000  0.000000 -0.000000 -0.000000 -0.000000 -0.000000 -0.000001  0.000000 -0.000001
                                 0.000001 -0.000074 -0.000049  0.000094  0.000372 -0.000374  0.000041  0.000121 -0.000296  0.000000
                                 0.000000  0.000000  0.000001 -0.000001  0.000148 -0.000510  0.000951 -0.001114  0.000026 -0.000026
                                 0.000006 -0.000001  0.000000 -0.000000  0.000000 -0.000000  0.000000 -0.000000  0.000000 -0.000000
                                 0.000000 -0.000000 -0.000002 -0.000003  0.000012 -0.000012 -0.000082 -0.000163  0.000468 -0.000992
                                -0.000349  0.000001  0.000004 -0.000002 -0.000031  0.000076  0.000226  0.000020  0.000175 -0.000185
                                -0.000010  0.000002 -0.000000 -0.000000  0.000000  0.000002 -0.000000 -0.000010  0.000000  0.000052
                                -0.000000 -0.000973 -0.000004 -0.009316  0.000018  0.035267 -0.000021 -0.038880  0.000005  0.016610
                                 0.000097  0.253884  0.000001  0.002339  0.000008  0.018309 -0.000017 -0.035957  0.000011  0.018624
                                 0.000103  0.160040  0.000369  0.212713 -0.000372  0.216651  0.000050  0.210247  0.000143  0.135704
                                 0.000044  0.062362 -0.000000 -0.005590  0.000001  0.002130 -0.000000 -0.000025  0.000001  0.000203
                                -0.000020 -0.002836 -0.000379 -0.054966 -0.000625 -0.091171 -0.000703 -0.101081 -0.000484 -0.065766
                                -0.000153 -0.021516 -0.000077 -0.009665  0.000018 -0.006555 -0.000260 -0.025824 -0.000038  0.008692
                                 0.000012 -0.006611  0.000006  0.002434 -0.000000 -0.000000  0.000005  0.000001  0.000000  0.000006
                                -0.000001 -0.000001 -0.000043  0.000005 -0.000002  0.000108 -0.000008 -0.000001  0.000466  0.000024
                                 0.000007  0.001623 -0.000004  0.000020  0.001918 -0.000052  0.000023  0.001715  0.000022  0.000014
                                 0.002006  0.000062 -0.000000  0.000001  0.000036 -0.000001  0.000001 -0.000005 -0.000001  0.000000
                                 0.000000  0.000002  0.000013  0.000006  0.001001 -0.000183  0.000001  0.000035 -0.000271 -0.000003
                                 0.000430 -0.000028  0.004127

   7.1   0    -0.0096   -3.6368  0.000000 -0.000000  0.000001 -0.000018 -0.000080 -0.000251 -0.000534 -0.001210  0.000496 -0.001209
                                 0.003958 -0.085800  0.014431 -0.032988 -0.221528 -0.090189  0.077462  0.328674  0.941863  0.000032
                                 0.000145  0.000430  0.001242 -0.003386  0.148512  0.088605 -0.145975  0.003430 -0.495251  0.331472
                                 0.154192  0.094504  0.000000 -0.000000  0.000000 -0.000000  0.000000 -0.000000  0.000000 -0.000001
                                 0.000003 -0.000031 -0.000333 -0.000225  0.010115 -0.003713  0.020053  0.054613 -0.044046  0.089459
                                -0.015692  0.000124  0.000440 -0.005178 -0.013568  0.008599  0.011199 -0.083031 -0.070696  0.064543
                                -0.023967 -0.021185  0.000000 -0.000000 -0.000000  0.000000  0.000000 -0.000000 -0.000001  0.000000
                                 0.000014 -0.000001  0.000172 -0.000006 -0.001442  0.000024  0.001879 -0.000027  0.000007  0.000013
                                -0.006121  0.000173 -0.000036  0.000001 -0.000421  0.000012  0.001256 -0.000023  0.000069  0.000012
                                -0.009130  0.000111 -0.044435  0.000148  0.051344  0.000183 -0.017459  0.000210 -0.022549  0.000232
                                 0.002003  0.000263 -0.013027  0.000112  0.000274  0.000065  0.000023  0.000000 -0.000185 -0.000001
                                 0.002571  0.000011  0.049448  0.000218  0.081203  0.000362  0.091084  0.000405  0.062073  0.000266
                                 0.019970  0.000085  0.010174  0.000037 -0.003212  0.000028  0.035247  0.000111  0.004264 -0.000045
                                -0.000035  0.000040 -0.001223 -0.000025 -0.000024  0.000022  0.000000 -0.000147  0.000034  0.000000
                                -0.000141  0.000227  0.000000 -0.001032  0.000335  0.000000  0.000422  0.000843  0.000001 -0.003855
                                 0.001566  0.000002 -0.000897  0.004370  0.000003  0.005691  0.004972  0.000001 -0.004945  0.006471
                                 0.000004 -0.000000  0.000060 -0.000056 -0.000001  0.000154 -0.000075  0.000000  0.000049  0.000092
                                -0.000501 -0.005634 -0.025303 -0.067776 -0.219078 -0.189489 -0.000930 -0.007796  0.022095  0.000327
                                 0.000001  0.003289  0.000003

   8.1   0     0.0035   -0.8698 -0.000000  0.000000 -0.000001  0.000025  0.000109  0.000339  0.000718  0.001604 -0.000646  0.002134
                                -0.019974 -0.061518 -0.156355  0.312949  0.930710 -0.352123 -5.997439-10.401629-14.210164 -0.000044
                                -0.000196 -0.000581 -0.001654  0.030285  0.101990 -0.991763  1.537289 11.439736 16.348774  3.085878
                                -4.102899  3.038043 -0.000000  0.000000 -0.000000  0.000000 -0.000000  0.000000 -0.000001  0.000002
                                -0.000009  0.000079  0.000861  0.001133  0.004625  0.009408  0.018091  0.002788 -0.014162  0.021402
                                -0.114486 -0.000319 -0.001228 -0.004343 -0.005063 -0.012006 -0.026114  0.431758  0.339130 -0.439092
                                -0.311932  0.311913 -0.000000 -0.000000  0.000000  0.000000 -0.000000 -0.000000  0.000000  0.000000
                                -0.000006 -0.000000 -0.000063 -0.000001  0.000250  0.000000 -0.000198  0.000002 -0.000532 -0.000006
                                -0.001071 -0.000028  0.000015  0.000000  0.000139  0.000002 -0.000285 -0.000002  0.000081  0.000001
                                 0.001100 -0.000012  0.008908 -0.000010 -0.015045 -0.000050  0.007278  0.000003 -0.003403 -0.000096
                                 0.021618  0.000023 -0.018984 -0.000126  0.051555  0.000192 -0.000005 -0.000000  0.000038  0.000000
                                -0.000530 -0.000002 -0.010199 -0.000046 -0.016751 -0.000077 -0.018810 -0.000086 -0.012866 -0.000057
                                -0.004120 -0.000018 -0.002095 -0.000008  0.000421 -0.000006 -0.007866 -0.000025 -0.001330  0.000013
                                 0.000176 -0.000013  0.004822  0.000021  0.000005 -0.000005 -0.000000  0.000030 -0.000007 -0.000000
                                 0.000032 -0.000056 -0.000000  0.000204 -0.000077 -0.000000 -0.000087 -0.000199 -0.000000  0.000629
                                -0.000334 -0.000001  0.000335 -0.001021 -0.000001 -0.001786 -0.000936 -0.000001  0.001691 -0.001502
                                 0.000000  0.000000 -0.000012  0.000011  0.000000 -0.000031  0.000017 -0.000000 -0.000005 -0.000032
                                 0.000075  0.000834  0.003868  0.009789  0.045459  0.012877  0.000489  0.002244 -0.002974 -0.000157
                                -0.000000 -0.000550 -0.000001

                                   1 2px     1 2px     1 2px     1 2px     1 2px     1 2px     1 2px     1 2px     1 2px     1 2px
                                   1 2px     1 2px     1 2px     1 2px     1 2px     1 2px     1 2px     1 2px     1 2px     1 2px
                                   1 2px     1 2px     1 2px     1 2px     1 2px     1 2px     1 2px     1 2px     1 2px     1 2px
                                   1 3d1+    1 3d1+    1 3d1+    1 3d1+    1 3d1+    1 3d1+    1 3d1+    1 3d1+    1 3d1+    1 3d1+
                                   1 3d1+    1 3d1+    1 3d1+    1 3d1+    1 3d1+    1 3d1+    1 3d1+    1 3d1+    1 3d1+    1 3d1+
                                   1 3d1+    1 3d1+    1 4f1+    1 4f3+    1 4f1+    1 4f3+    1 4f1+    1 4f3+    1 4f1+    1 4f3+
                                   1 4f1+    1 4f3+    1 4f1+    1 4f3+    1 4f1+    1 4f3+    1 4f1+    1 4f3+    1 4f1+    1 4f3+
                                   1 4f1+    1 4f3+    1 4f1+    1 4f3+    1 4f1+    1 4f3+    1 4f1+    1 4f3+    1 4f1+    1 4f3+
                                   1 5g1+    1 5g3+    1 5g1+    1 5g3+    1 5g1+    1 5g3+    1 5g1+    1 5g3+    1 5g1+    1 5g3+
                                   1 5g1+    1 5g3+    1 5g1+    1 5g3+    1 5g1+    1 5g3+    1 5g1+    1 5g3+    1 6h1+    1 6h3+
                                   1 6h5+    1 6h1+    1 6h3+    1 6h5+    1 6h1+    1 6h3+    1 6h5+    2 2px     2 2px     2 2px
                                   2 3d1+    2 3d1+

   1.2   2    -1.0540  -11.6560  0.000000 -0.000000  0.000000 -0.000001  0.000002 -0.000002  0.000005 -0.000015  0.000062 -0.000569
                                -0.006155 -0.005046  0.157874 -0.088393  0.162700  0.358120  0.101611  0.019701  0.005838  0.002300
                                 0.008365 -0.080872 -0.190561  0.172789  0.372577  0.001642  0.007711 -0.000810 -0.000344  0.000062
                                 0.000000 -0.000000  0.000000 -0.000002  0.000033  0.000306 -0.000781  0.000494  0.000770 -0.000600
                                -0.000079 -0.000597  0.000985 -0.000608 -0.002253 -0.000122 -0.000151 -0.000349  0.000129  0.000031
                                -0.000003  0.000001  0.000001  0.000000 -0.000007 -0.000003  0.000102  0.000039  0.002211  0.000858
                                 0.004333  0.001744  0.005355  0.001941  0.005608  0.002696  0.000567  0.000248 -0.000657 -0.000180
                                 0.002236  0.003677  0.002237  0.004046 -0.000586  0.000816  0.000898  0.000826 -0.000241 -0.000071
                                -0.000008  0.000031  0.000027  0.000064 -0.000178  0.000223 -0.000355  0.000376 -0.000226  0.000470
                                 0.000205  0.000355 -0.000384  0.000139  0.000083  0.000029 -0.000063 -0.000001 -0.000084  0.000035
                                 0.000007 -0.000303  0.000160 -0.000107 -0.000569  0.000490 -0.000743  0.000396  0.001526  0.001502
                                -0.000324 -0.000459

   2.2   +    -0.4127  -13.8037 -0.000000  0.000000 -0.000000  0.000000 -0.000000  0.000000 -0.000000  0.000000 -0.000002  0.000014
                                 0.000178  0.000249 -0.002521 -0.001110 -0.004380 -0.005906  0.009548  0.011710  0.009488 -0.000060
                                -0.000286  0.001046  0.006202 -0.006616 -0.006394 -0.000561 -0.001954  0.002035  0.000138 -0.000023
                                -0.000000  0.000000 -0.000001  0.000004 -0.000070 -0.000653  0.001719 -0.001358 -0.000613  0.004213
                                 0.000168  0.001243 -0.002042  0.001771  0.005641  0.005072  0.000775  0.001417 -0.000037 -0.000022
                                 0.000021 -0.000007 -0.000023  0.000096  0.000186 -0.000768 -0.002601  0.010734 -0.050201  0.207563
                                -0.082724  0.342547 -0.090998  0.377328 -0.057330  0.233884 -0.020013  0.082817 -0.009671  0.039970
                                -0.003035  0.007997 -0.017699  0.074276  0.007622 -0.033936 -0.005367  0.024221  0.001851 -0.008480
                                 0.000006 -0.000024  0.000036 -0.000012  0.000062 -0.000154  0.000182 -0.000416  0.000007 -0.000583
                                 0.000021 -0.000417  0.001142 -0.000121 -0.000518 -0.000043  0.000419  0.000015  0.000170 -0.000093
                                 0.000005  0.000341 -0.000217  0.000001  0.000122  0.000025  0.000014 -0.000111 -0.001424 -0.002787
                                 0.000346  0.001807

   3.2   +    -0.1539  -10.5859  0.000000 -0.000000  0.000000 -0.000000  0.000001 -0.000001  0.000002 -0.000004  0.000018 -0.000170
                                -0.001923 -0.002224  0.026850 -0.008491  0.020494  0.070303  0.000306 -0.159462 -0.229323  0.000697
                                 0.002789 -0.011303 -0.048789  0.057342  0.108896 -0.004302 -0.089792 -0.081256 -0.002315  0.000460
                                -0.000000  0.000001 -0.000002  0.000013 -0.000240 -0.002231  0.005649 -0.004013 -0.003453  0.011202
                                 0.000576  0.004271 -0.006949  0.005334  0.015768  0.021704  0.003622  0.018812 -0.008214  0.000691
                                -0.000612  0.000154 -0.000075 -0.000017  0.000606  0.000135 -0.008510 -0.001896 -0.166148 -0.037249
                                -0.279102 -0.063040 -0.315924 -0.071834 -0.215228 -0.049215 -0.064359 -0.014266 -0.026606 -0.005461
                                -0.026654 -0.008759 -0.093749 -0.030782  0.025182 -0.006090 -0.034849 -0.015646  0.009463  0.001149
                                 0.000045  0.000004  0.000181  0.000003  0.000283  0.000023  0.000865  0.000045  0.000410  0.000120
                                 0.000075  0.000232  0.002609  0.000292 -0.001383  0.000235  0.001643  0.000075  0.000151  0.000143
                                 0.000022  0.000329  0.000365 -0.000050 -0.000167  0.000214 -0.000247 -0.002672 -0.020104 -0.045478
                                 0.001877  0.009543

   4.2   0     0.0056   -0.8567 -0.000000  0.000000 -0.000000  0.000001 -0.000002  0.000002 -0.000005  0.000013 -0.000053  0.000486
                                 0.005300  0.007320  0.049412  0.058847  0.160470  0.110940 -0.165287  0.287700 -0.921791 -0.001960
                                -0.007607 -0.038766 -0.059389 -0.066361 -0.159663  3.248383  2.477740 -3.524814 -2.732177  2.162517
                                -0.000000  0.000000 -0.000000  0.000001 -0.000022 -0.000204  0.000539 -0.000405 -0.000220  0.001466
                                 0.000053  0.000392 -0.000649  0.000457  0.001578  0.001898  0.001066 -0.000504  0.001572 -0.000694
                                 0.001424 -0.002333 -0.000005 -0.000001  0.000040  0.000011 -0.000557 -0.000148 -0.010858 -0.002897
                                -0.018209 -0.004858 -0.020633 -0.005493 -0.014242 -0.003669 -0.004227 -0.001129 -0.001783 -0.000480
                                -0.001614 -0.000273 -0.007016 -0.001240  0.002053  0.001280 -0.006044  0.000395  0.008078  0.000452
                                 0.000003  0.000000  0.000006 -0.000000  0.000021  0.000000  0.000026  0.000003  0.000054  0.000011
                                -0.000118  0.000016  0.000535  0.000020 -0.000624  0.000012  0.000346  0.000013  0.000010  0.000010
                                 0.000002  0.000019  0.000028 -0.000001 -0.000020  0.000018  0.000002  0.000005 -0.000678  0.000465
                                 0.000078  0.000650

   5.2   0     0.0113   -0.8339  0.000000 -0.000000  0.000000 -0.000000  0.000000 -0.000000  0.000000 -0.000000  0.000000 -0.000003
                                -0.000035 -0.000047 -0.000256 -0.000407 -0.000891 -0.000343  0.000773 -0.000128 -0.002015  0.000013
                                 0.000050  0.000215  0.000314  0.000449  0.001038 -0.002172  0.000051  0.000417  0.001111 -0.001187
                                 0.000001 -0.000004  0.000017 -0.000091  0.001693  0.015416 -0.032043  0.012685  0.036389  0.030069
                                -0.004043 -0.029422  0.044389 -0.027260 -0.031568 -0.095381  0.178751 -0.351528  0.469461 -0.665801
                                 1.126904 -1.615190  0.000000  0.000000 -0.000002 -0.000001  0.000023  0.000008  0.000448  0.000162
                                 0.000750  0.000270  0.000852  0.000303  0.000605  0.000199  0.000175  0.000064  0.000075  0.000028
                                 0.000028  0.000014  0.000495  0.000077 -0.002009 -0.000046  0.000286  0.000024 -0.000590 -0.000028
                                -0.000000  0.000000  0.000001  0.000000 -0.000003  0.000001 -0.000008 -0.000001 -0.000044 -0.000015
                                -0.000048 -0.000044 -0.000117 -0.000087 -0.000136 -0.000181 -0.002250 -0.000147 -0.000001 -0.000000
                                -0.000000 -0.000000 -0.000001 -0.000000  0.000001 -0.000000  0.000000 -0.000042 -0.001667  0.001117
                                -0.000105  0.000211

                                   1 2py     1 2py     1 2py     1 2py     1 2py     1 2py     1 2py     1 2py     1 2py     1 2py
                                   1 2py     1 2py     1 2py     1 2py     1 2py     1 2py     1 2py     1 2py     1 2py     1 2py
                                   1 2py     1 2py     1 2py     1 2py     1 2py     1 2py     1 2py     1 2py     1 2py     1 2py
                                   1 3d1-    1 3d1-    1 3d1-    1 3d1-    1 3d1-    1 3d1-    1 3d1-    1 3d1-    1 3d1-    1 3d1-
                                   1 3d1-    1 3d1-    1 3d1-    1 3d1-    1 3d1-    1 3d1-    1 3d1-    1 3d1-    1 3d1-    1 3d1-
                                   1 3d1-    1 3d1-    1 4f1-    1 4f3-    1 4f1-    1 4f3-    1 4f1-    1 4f3-    1 4f1-    1 4f3-
                                   1 4f1-    1 4f3-    1 4f1-    1 4f3-    1 4f1-    1 4f3-    1 4f1-    1 4f3-    1 4f1-    1 4f3-
                                   1 4f1-    1 4f3-    1 4f1-    1 4f3-    1 4f1-    1 4f3-    1 4f1-    1 4f3-    1 4f1-    1 4f3-
                                   1 5g1-    1 5g3-    1 5g1-    1 5g3-    1 5g1-    1 5g3-    1 5g1-    1 5g3-    1 5g1-    1 5g3-
                                   1 5g1-    1 5g3-    1 5g1-    1 5g3-    1 5g1-    1 5g3-    1 5g1-    1 5g3-    1 6h1-    1 6h3-
                                   1 6h5-    1 6h1-    1 6h3-    1 6h5-    1 6h1-    1 6h3-    1 6h5-    2 2py     2 2py     2 2py
                                   2 3d1-    2 3d1-

   1.3   2    -1.0540  -11.6560  0.000000 -0.000000  0.000000 -0.000001  0.000002 -0.000002  0.000005 -0.000015  0.000062 -0.000569
                                -0.006156 -0.005047  0.157876 -0.088387  0.162709  0.358081  0.101612  0.019731  0.005854  0.002301
                                 0.008365 -0.080872 -0.190572  0.172803  0.372573  0.001645  0.007716 -0.000808 -0.000345  0.000062
                                 0.000000 -0.000000  0.000000 -0.000002  0.000033  0.000305 -0.000778  0.000491  0.000772 -0.000590
                                -0.000078 -0.000595  0.000981 -0.000603 -0.002245 -0.000115 -0.000146 -0.000348  0.000131  0.000030
                                -0.000002  0.000001  0.000001 -0.000000 -0.000007  0.000003  0.000102 -0.000039  0.002209 -0.000858
                                 0.004329 -0.001746  0.005349 -0.001950  0.005606 -0.002686  0.000566 -0.000247 -0.000656  0.000183
                                 0.002233 -0.003661  0.002230 -0.004052 -0.000587 -0.000816  0.000897 -0.000827 -0.000241  0.000072
                                -0.000008 -0.000031  0.000027 -0.000064 -0.000181 -0.000225 -0.000359 -0.000379 -0.000230 -0.000470
                                 0.000201 -0.000356 -0.000386 -0.000141  0.000082 -0.000030 -0.000063  0.000001 -0.000084 -0.000035
                                 0.000007 -0.000302 -0.000160 -0.000107 -0.000569 -0.000491 -0.000743  0.000396  0.001524  0.001499
                                -0.000324 -0.000458

   2.3   +    -0.4127  -13.8037  0.000000 -0.000000  0.000000 -0.000000  0.000000 -0.000000  0.000000 -0.000000  0.000002 -0.000014
                                -0.000177 -0.000247  0.002497  0.001055  0.004381  0.005958 -0.009515 -0.011657 -0.009497  0.000060
                                 0.000284 -0.001034 -0.006120  0.006533  0.006308  0.000566  0.001987 -0.002039 -0.000139  0.000023
                                 0.000000 -0.000000  0.000001 -0.000004  0.000070  0.000656 -0.001724  0.001358  0.000622 -0.004201
                                -0.000168 -0.001247  0.002049 -0.001774 -0.005643 -0.005097 -0.000778 -0.001439  0.000040  0.000021
                                -0.000021  0.000007  0.000023  0.000095 -0.000187 -0.000768  0.002618  0.010729  0.050526  0.207484
                                 0.083259  0.342417  0.091586  0.377185  0.057689  0.233798  0.020144  0.082786  0.009738  0.039954
                                 0.003043  0.007996  0.017803  0.074248 -0.007673 -0.033925  0.005401  0.024212 -0.001862 -0.008477
                                -0.000006 -0.000024 -0.000036 -0.000012 -0.000063 -0.000154 -0.000185 -0.000416 -0.000009 -0.000582
                                -0.000021 -0.000416 -0.001151 -0.000121  0.000521 -0.000043 -0.000422  0.000015 -0.000171 -0.000093
                                -0.000008 -0.000344 -0.000217 -0.000008 -0.000122  0.000026 -0.000014  0.000113  0.001441  0.002821
                                -0.000349 -0.001822

   3.3   +    -0.1538  -10.5823  0.000000 -0.000000  0.000000 -0.000000  0.000001 -0.000001  0.000002 -0.000004  0.000018 -0.000170
                                -0.001925 -0.002226  0.026869 -0.008491  0.020517  0.070340  0.000294 -0.159521 -0.229467  0.000697
                                 0.002790 -0.011311 -0.048827  0.057381  0.108957 -0.004377 -0.089910 -0.081305 -0.002280  0.000454
                                -0.000000  0.000001 -0.000002  0.000013 -0.000240 -0.002231  0.005651 -0.004018 -0.003449  0.011226
                                 0.000576  0.004271 -0.006950  0.005336  0.015783  0.021722  0.003640  0.018835 -0.008231  0.000715
                                -0.000646  0.000166 -0.000075  0.000017  0.000605 -0.000136 -0.008505  0.001909 -0.166040  0.037509
                                -0.278920  0.063478 -0.315719  0.072330 -0.215081  0.049565 -0.064319  0.014366 -0.026592  0.005500
                                -0.026619  0.008819 -0.093672  0.030918  0.025173  0.006024 -0.034827  0.015691  0.009453 -0.001166
                                 0.000045 -0.000004  0.000180 -0.000003  0.000283 -0.000023  0.000865 -0.000046  0.000412 -0.000119
                                 0.000077 -0.000232  0.002610 -0.000295 -0.001380 -0.000238  0.001644 -0.000075  0.000151 -0.000141
                                 0.000021  0.000330 -0.000361 -0.000052 -0.000167 -0.000214 -0.000247 -0.002671 -0.020100 -0.045480
                                 0.001876  0.009541

   4.3   0     0.0056   -0.8564 -0.000000  0.000000 -0.000000  0.000001 -0.000002  0.000002 -0.000005  0.000013 -0.000053  0.000486
                                 0.005303  0.007324  0.049442  0.058878  0.160560  0.111009 -0.165366  0.287852 -0.922280 -0.001961
                                -0.007611 -0.038789 -0.059425 -0.066395 -0.159743  3.250065  2.479022 -3.526708 -2.733797  2.163220
                                -0.000000  0.000000 -0.000000  0.000001 -0.000022 -0.000204  0.000538 -0.000405 -0.000219  0.001470
                                 0.000053  0.000392 -0.000648  0.000457  0.001579  0.001898  0.001071 -0.000504  0.001580 -0.000699
                                 0.001435 -0.002357 -0.000005  0.000001  0.000040 -0.000011 -0.000556  0.000149 -0.010843  0.002909
                                -0.018183  0.004880 -0.020604  0.005518 -0.014222  0.003685 -0.004221  0.001134 -0.001781  0.000481
                                -0.001611  0.000279 -0.007010  0.001238  0.002057 -0.001254 -0.006053 -0.000434  0.008100 -0.000338
                                 0.000003 -0.000000  0.000006  0.000000  0.000021 -0.000001  0.000026 -0.000003  0.000054 -0.000011
                                -0.000118 -0.000017  0.000534 -0.000020 -0.000623 -0.000013  0.000346 -0.000011  0.000010 -0.000010
                                 0.000002  0.000019 -0.000027 -0.000001 -0.000020 -0.000018  0.000002  0.000005 -0.000678  0.000463
                                 0.000078  0.000649

   5.3   0     0.0113   -0.8339  0.000000 -0.000000  0.000000 -0.000000  0.000000 -0.000000  0.000000 -0.000000  0.000000 -0.000003
                                -0.000036 -0.000048 -0.000257 -0.000409 -0.000897 -0.000346  0.000780 -0.000141 -0.001981  0.000013
                                 0.000051  0.000216  0.000315  0.000452  0.001045 -0.002303 -0.000050  0.000554  0.001216 -0.001244
                                 0.000001 -0.000004  0.000017 -0.000091  0.001693  0.015419 -0.032049  0.012687  0.036396  0.030080
                                -0.004043 -0.029428  0.044397 -0.027265 -0.031571 -0.095394  0.178788 -0.351586  0.469553 -0.665904
                                 1.127163 -1.615330  0.000000 -0.000000 -0.000002  0.000001  0.000023 -0.000008  0.000449 -0.000163
                                 0.000752 -0.000272  0.000854 -0.000305  0.000606 -0.000201  0.000176 -0.000064  0.000075 -0.000028
                                 0.000028 -0.000014  0.000495 -0.000077 -0.002008  0.000045  0.000285 -0.000021 -0.000585  0.000024
                                -0.000000 -0.000000  0.000001 -0.000000 -0.000003 -0.000001 -0.000008  0.000001 -0.000044  0.000014
                                -0.000047  0.000045 -0.000118  0.000082 -0.000134  0.000188 -0.002256  0.000128 -0.000001  0.000000
                                -0.000000 -0.000000  0.000001 -0.000000  0.000001  0.000000  0.000000 -0.000041 -0.001666  0.001121
                                -0.000105  0.000211

                                   1 3d2-    1 3d2-    1 3d2-    1 3d2-    1 3d2-    1 3d2-    1 3d2-    1 3d2-    1 3d2-    1 3d2-
                                   1 3d2-    1 3d2-    1 3d2-    1 3d2-    1 3d2-    1 3d2-    1 3d2-    1 3d2-    1 3d2-    1 3d2-
                                   1 3d2-    1 3d2-    1 4f2-    1 4f2-    1 4f2-    1 4f2-    1 4f2-    1 4f2-    1 4f2-    1 4f2-
                                   1 4f2-    1 4f2-    1 4f2-    1 4f2-    1 4f2-    1 4f2-    1 5g2-    1 5g4-    1 5g2-    1 5g4-
                                   1 5g2-    1 5g4-    1 5g2-    1 5g4-    1 5g2-    1 5g4-    1 5g2-    1 5g4-    1 5g2-    1 5g4-
                                   1 5g2-    1 5g4-    1 5g2-    1 5g4-    1 6h4-    1 6h2-    1 6h4-    1 6h2-    1 6h4-    1 6h2-
                                   2 3d2-    2 3d2-

   1.4   +    -0.4088  -13.8585  0.000000 -0.000000  0.000001 -0.000004  0.000071  0.000643 -0.001909  0.002235 -0.000807 -0.009710
                                -0.000167 -0.001206  0.002062 -0.002371 -0.009034 -0.003741 -0.002049 -0.000125 -0.000273  0.000072
                                -0.000036  0.000011  0.000099 -0.000798  0.011136  0.214899  0.353572  0.388519  0.237586  0.086256
                                 0.042959  0.003512  0.070298 -0.037348  0.023827 -0.008644 -0.000063  0.000000 -0.000122 -0.000000
                                -0.000422  0.000000 -0.000735  0.000001 -0.000930  0.000002 -0.000462  0.000001 -0.000236  0.000000
                                -0.000099  0.000000  0.000025 -0.000000 -0.000001 -0.000177 -0.000003 -0.000354  0.000000  0.000033
                                 0.000320  0.000416

   2.4   0     0.0116   -0.8231 -0.000001  0.000004 -0.000018  0.000094 -0.001747 -0.015905  0.032925 -0.012834 -0.037845 -0.033149
                                 0.004172  0.030350 -0.045718  0.028111  0.031420  0.096646 -0.185650  0.356249 -0.483229  0.678642
                                -1.162803  1.635379  0.000000 -0.000000  0.000003  0.000053  0.000084  0.000093  0.000059  0.000023
                                 0.000016 -0.000026 -0.000006 -0.000181  0.000263 -0.000662  0.000002  0.000000 -0.000001 -0.000000
                                 0.000014  0.000000 -0.000009 -0.000000  0.000075  0.000000 -0.000067 -0.000001  0.000328  0.000003
                                -0.000484 -0.000006  0.001259  0.000012 -0.000000 -0.000000 -0.000000 -0.000000 -0.000000 -0.000002
                                -0.000000  0.000188

   3.4   0     0.0330   -1.2148  0.000002 -0.000009  0.000038 -0.000202  0.003744  0.034060 -0.069593  0.025719  0.083386  0.086062
                                -0.008939 -0.064962  0.097373 -0.060224 -0.059529 -0.203013  0.426886 -0.786992  1.148196 -1.611209
                                 2.943529 -1.464739  0.000000 -0.000001  0.000016  0.000303  0.000482  0.000533  0.000328  0.000131
                                 0.000084 -0.000158  0.000090 -0.000827  0.001108 -0.003485  0.000008  0.000000 -0.000006 -0.000000
                                 0.000068  0.000000 -0.000039 -0.000001  0.000358  0.000002 -0.000286 -0.000005  0.001595  0.000013
                                -0.001796 -0.000022  0.005838  0.000055 -0.000000 -0.000000 -0.000000 -0.000002  0.000000 -0.000008
                                 0.000055  0.000559

 HOMO      6.1    -0.144675 =      -3.9368eV
 LUMO      7.1    -0.009634 =      -0.2621eV
 LUMO-HOMO         0.135041 =       3.6747eV


 **********************************************************************************************************************************
 DATASETS  * FILE   NREC   LENGTH (MB)   RECORD NAMES
              1      19       22.63       500      610      700      900      950      970     1000      129      960     1100
                                          VAR    BASINP    GEOM    SYMINP    ZMAT    AOBASIS   BASIS     P2S    ABASIS      S
                                         1400     1410     1420     1200     1210     1080     1600     1650     1700
                                           T        V       ECP      H0       H01     AOSYM     SMH    MOLCAS    OPER

              2       4        4.60       700     1000      520     3202
                                         GEOM     BASIS   MCVARS     RHF

 PROGRAMS   *        TOTAL       RHF       INT
 CPU TIMES  *       194.77     76.91    117.52
 REAL TIME  *       222.86 SEC
 DISK USED  *        13.53 GB
 SF USED    *         0.25 MB
 GA USED    *         0.00 MB       (max)       0.00 MB       (current)
 **********************************************************************************************************************************
   -->
   <time start="05:40:06" end="05:43:49" cpu="194.77" system="18.38" real="222.86"/>
   <storage units="megabyte" memory="8001.84" sf="0.25" df="621.78" eaf="12906.13" ga="0.0"/>
  </jobstep><!--
  --><jobstep command="RHF-SCF" commandset="SCFPRO">
   <!--


 PROGRAM * RHF-SCF (OPEN SHELL)       Authors: W. Meyer, H.-J. Werner


 NUMBER OF ELECTRONS:      13+    6-    SPACE SYMMETRY=4    SPIN SYMMETRY: Octet
 CONVERGENCE THRESHOLDS:    1.00E-05 (Density)    1.00E-07 (Energy)
 MAX. NUMBER OF ITERATIONS:      200
 INTERPOLATION TYPE:            DIIS
 INTERPOLATION STEPS:              2 (START)      1 (STEP)
 LEVEL SHIFTS:                 -0.60 (CLOSED) -0.30 (OPEN)

 Number of closed-shell orbitals:    6 (   4   1   1   0 )
 Number of open-shell orbitals:      7 (   2   2   2   1 )



 Extra symmetries of mos in symmetry 1:   1   1   2   1   1   1
 Molecular orbitals read from record     3202.2  Type=RHF/CANONICAL (state 1.4)

 Molecular orbital dump at record        2101.2

 ITERATION    DDIFF          GRAD             ENERGY        2-EL.EN.            DIPOLE MOMENTS         DIIS   ORB.
    1      0.000D+00      0.000D+00      -107.97962674    192.255442    0.00000    0.00000    1.71879    0    start
    2      0.000D+00      0.221D-02      -107.99841826    198.224694    0.00000    0.00000    1.57493    1    diag,B
    3      0.207D-02      0.342D-02      -108.00938540    196.767184    0.00000    0.00000    1.49637    2    diag,B
    4      0.936D-03      0.127D-02      -108.01951144    197.049308    0.00000    0.00000    1.32430    3    diag,B
    5      0.160D-02      0.645D-03      -108.02976757    197.406716    0.00000    0.00000    1.18280    4    diag,B
    6      0.176D-02      0.546D-03      -108.02942638    197.398550    0.00000    0.00000    1.18419    5    diag,B
    7      0.383D-04      0.539D-03      -108.02542141    197.259821    0.00000    0.00000    1.12983    6    diag,B
    8      0.799D-03      0.408D-03      -108.02563882    197.170055    0.00000    0.00000    1.05200    7    orth
    9      0.128D-02      0.393D-03      -108.02676836    197.154740    0.00000    0.00000    1.00582    8    diag,B
   10      0.985D-03      0.280D-03      -108.02830342    197.123738    0.00000    0.00000    0.96470    9    diag,B
   11      0.762D-03      0.263D-03      -108.02800015    197.133887    0.00000    0.00000    0.96779    9    diag,B
   12      0.939D-04      0.260D-03      -108.02684470    197.109212    0.00000    0.00000    0.94714    9    diag,B
   13      0.566D-03      0.209D-03      -108.02690698    196.907699    0.00000    0.00000    0.91049    9    diag,B
   14      0.440D-03      0.209D-03      -108.02708193    196.897771    0.00000    0.00000    0.90365    9    diag,B
   15      0.209D-03      0.156D-03      -108.02742200    196.788348    0.00000    0.00000    0.88917    9    diag,B
   16      0.270D-03      0.213D-03      -108.02716228    196.827955    0.00000    0.00000    0.89593    9    diag,B
   17      0.168D-03      0.174D-03      -108.02729783    196.784123    0.00000    0.00000    0.88200    9    diag,B
   18      0.237D-03      0.182D-03      -108.02747073    196.748331    0.00000    0.00000    0.86905    9    orth
   19      0.209D-03      0.185D-03      -108.02727305    196.766526    0.00000    0.00000    0.88077    9    diag,B
   20      0.197D-03      0.177D-03      -108.02684671    196.827013    0.00000    0.00000    0.91027    9    diag,B
   21      0.346D-03      0.118D-03      -108.02679455    196.854359    0.00000    0.00000    0.91155    9    diag,B
   22      0.681D-03      0.928D-04      -108.02686921    196.912800    0.00000    0.00000    0.91317    9    diag,B
   23      0.242D-03      0.894D-04      -108.02684833    196.909199    0.00000    0.00000    0.91443    9    diag,B
   24      0.412D-04      0.887D-04      -108.02665308    196.867288    0.00000    0.00000    0.93140    9    diag,B
   25      0.659D-03      0.780D-04      -108.02666126    196.840193    0.00000    0.00000    0.93454    9    diag,B
   26      0.146D-03      0.757D-04      -108.02660252    196.819287    0.00000    0.00000    0.94735    9    diag,B
   27      0.365D-03      0.734D-04      -108.02661342    196.840239    0.00000    0.00000    0.94974    9    diag,B
   28      0.177D-03      0.756D-04      -108.02663026    196.838853    0.00000    0.00000    0.94897    9    orth
   29      0.436D-04      0.756D-04      -108.02658405    196.843254    0.00000    0.00000    0.95015    9    diag,B
   30      0.127D-03      0.753D-04      -108.02659134    196.850140    0.00000    0.00000    0.95083    9    diag,B
   31      0.428D-04      0.762D-04      -108.02665172    196.868047    0.00000    0.00000    0.95205    9    diag,B
   32      0.105D-03      0.758D-04      -108.02649869    196.823468    0.00000    0.00000    0.95034    9    diag,B
   33      0.250D-03      0.733D-04      -108.02635550    196.805192    0.00000    0.00000    0.94319    9    diag,B
   34      0.772D-03      0.709D-04      -108.02625331    196.789426    0.00000    0.00000    0.93193    9    diag,B
   35      0.518D-03      0.724D-04      -108.02629019    196.797209    0.00000    0.00000    0.93379    9    diag,B
   36      0.210D-03      0.720D-04      -108.02640220    196.811421    0.00000    0.00000    0.92379    9    diag,B
   37      0.269D-03      0.666D-04      -108.02644244    196.817240    0.00000    0.00000    0.92203    9    diag,B
   38      0.111D-03      0.671D-04      -108.02643706    196.817311    0.00000    0.00000    0.92329    9    orth
   39      0.768D-04      0.672D-04      -108.02648907    196.809194    0.00000    0.00000    0.91701    9    diag,B
   40      0.202D-03      0.661D-04      -108.02647611    196.804767    0.00000    0.00000    0.91852    9    diag,B
   41      0.683D-04      0.659D-04      -108.02652527    196.819735    0.00000    0.00000    0.91808    9    diag,B
   42      0.236D-03      0.660D-04      -108.02654130    196.822222    0.00000    0.00000    0.91739    9    diag,B
   43      0.222D-04      0.658D-04      -108.02656009    196.824921    0.00000    0.00000    0.91570    9    diag,B
   44      0.109D-03      0.655D-04      -108.02650994    196.824070    0.00000    0.00000    0.91358    9    diag,B
   45      0.228D-03      0.679D-04      -108.02653640    196.830577    0.00000    0.00000    0.91655    9    diag,B
   46      0.372D-04      0.672D-04      -108.02656906    196.828582    0.00000    0.00000    0.91662    9    diag,B
   47      0.866D-04      0.647D-04      -108.02661115    196.831285    0.00000    0.00000    0.91891    9    diag,B
   48      0.558D-04      0.636D-04      -108.02664749    196.844368    0.00000    0.00000    0.91843    9    orth
   49      0.896D-04      0.635D-04      -108.02669712    196.864106    0.00000    0.00000    0.91574    9    diag,B
   50      0.120D-03      0.631D-04      -108.02679778    196.893080    0.00000    0.00000    0.90864    9    diag,B
   51      0.235D-03      0.621D-04      -108.02686371    196.948959    0.00000    0.00000    0.90473    9    diag,B
   52      0.129D-03      0.641D-04      -108.02689452    196.952540    0.00000    0.00000    0.90341    9    diag,B
   53      0.379D-04      0.637D-04      -108.02667809    196.888660    0.00000    0.00000    0.91516    9    diag,B
   54      0.249D-03      0.602D-04      -108.02686902    196.901107    0.00000    0.00000    0.91028    9    diag,B
   55      0.201D-03      0.681D-04      -108.02681904    196.896994    0.00000    0.00000    0.91034    9    diag,B
   56      0.494D-03      0.647D-04      -108.02671006    196.860066    0.00000    0.00000    0.91161    9    diag,B
   57      0.793D-03      0.615D-04      -108.02663772    196.864788    0.00000    0.00000    0.91183    9    fixocc
   58      0.578D-03      0.615D-04      -108.02676873    196.879358    0.00000    0.00000    0.89843    9    orth
   59      0.828D-03      0.654D-04      -108.02677123    196.923723    0.00000    0.00000    0.90737    9    diag,B
   60      0.573D-03      0.647D-04      -108.02680638    196.935602    0.00000    0.00000    0.90516    9    diag,B
   61      0.794D-04      0.648D-04      -108.02678752    196.919744    0.00000    0.00000    0.90601    9    diag,B
   62      0.176D-03      0.627D-04      -108.02680786    196.937143    0.00000    0.00000    0.90867    9    diag,B
   63      0.146D-03      0.654D-04      -108.02678737    196.927060    0.00000    0.00000    0.90714    9    diag,B
   64      0.221D-04      0.647D-04      -108.02686770    196.936756    0.00000    0.00000    0.89920    9    diag,B
   65      0.204D-03      0.623D-04      -108.02676266    196.924915    0.00000    0.00000    0.91237    9    diag,B
   66      0.307D-03      0.652D-04      -108.02675130    196.917115    0.00000    0.00000    0.91056    9    diag,B
   67      0.148D-04      0.645D-04      -108.02672010    196.911248    0.00000    0.00000    0.91142    9    diag,B
   68      0.101D-03      0.669D-04      -108.02671523    196.907223    0.00000    0.00000    0.91310    9    orth
   69      0.265D-04      0.659D-04      -108.02674171    196.912414    0.00000    0.00000    0.89966    9    diag,B
   70      0.109D-03      0.655D-04      -108.02672524    196.907086    0.00000    0.00000    0.90078    9    diag,B
   71      0.330D-04      0.653D-04      -108.02672532    196.912384    0.00000    0.00000    0.90541    9    diag,B
   72      0.676D-04      0.653D-04      -108.02676637    196.934269    0.00000    0.00000    0.90888    9    diag,B
   73      0.467D-04      0.674D-04      -108.02673707    196.917610    0.00000    0.00000    0.90276    9    diag,B
   74      0.439D-04      0.657D-04      -108.02674284    196.918601    0.00000    0.00000    0.90161    9    diag,B
   75      0.125D-04      0.661D-04      -108.02673160    196.931368    0.00000    0.00000    0.91351    9    diag,B
   76      0.754D-04      0.681D-04      -108.02677166    196.929855    0.00000    0.00000    0.90464    9    diag,B
   77      0.121D-03      0.669D-04      -108.02676729    196.932025    0.00000    0.00000    0.91216    9    diag,B
   78      0.268D-04      0.672D-04      -108.02675385    196.919882    0.00000    0.00000    0.90219    9    orth
[...]
                                 0.000005  0.000221 -0.000265  0.000017  0.000196 -0.000322  0.000027  0.000060  0.000177 -0.000099
                                 0.000045  0.000328

   3.2   +    -0.4024  -12.4403  0.000000 -0.000000  0.000000 -0.000000  0.000000 -0.000001  0.000001 -0.000004  0.000016 -0.000152
                                -0.001739 -0.002107  0.020651 -0.003386  0.015894  0.046401 -0.026613 -0.147080 -0.171629  0.000626
                                 0.002546 -0.007894 -0.043584  0.053782  0.092555  0.006570 -0.029015 -0.044706 -0.002625  0.000493
                                -0.000000  0.000001 -0.000002  0.000012 -0.000219 -0.002031  0.005066 -0.003729 -0.002258  0.009881
                                 0.000525  0.003852 -0.006193  0.005319  0.014551  0.016704  0.003845  0.009925 -0.002387  0.000067
                                -0.000012  0.000002 -0.000089 -0.000008  0.000715  0.000061 -0.010008 -0.000862 -0.193979 -0.016778
                                -0.321648 -0.027982 -0.357013 -0.031370 -0.227874 -0.019903 -0.076788 -0.006579 -0.035608 -0.002932
                                -0.014512 -0.000908 -0.079368 -0.007050  0.029003  0.002516 -0.025836 -0.002399  0.008480  0.000819
                                 0.000070  0.000008  0.000190  0.000022  0.000442  0.000046  0.001180 -0.000015  0.000832 -0.000144
                                 0.000285 -0.000222  0.002254 -0.000235 -0.002650 -0.000143  0.001171 -0.000035  0.000063  0.000160
                                -0.000010  0.000209  0.000389 -0.000110  0.000471  0.000383 -0.000237 -0.001856 -0.010637 -0.019850
                                 0.001591  0.006548

   4.2   0    -0.0233   -4.3869  0.000000 -0.000000  0.000000 -0.000000  0.000000 -0.000000  0.000001 -0.000003  0.000012 -0.000115
                                -0.001273 -0.001175  0.027285 -0.011537  0.032865  0.098979  0.041747 -0.128374 -0.308129  0.000470
                                 0.001759 -0.013125 -0.039598  0.035462  0.076628 -0.158087 -0.173676 -0.243991 -0.080934 -0.009321
                                 0.000000 -0.000000  0.000000 -0.000002  0.000042  0.000364 -0.000028 -0.000916  0.002464  0.011772
                                -0.000099 -0.000648  0.000569 -0.001276  0.003931  0.008804  0.027856  0.034966  0.033668  0.026372
                                 0.006464  0.001956  0.000033  0.000003 -0.000266 -0.000026  0.003716  0.000359  0.071823  0.006937
                                 0.118579  0.011451  0.131094  0.012614  0.082070  0.007876  0.028657  0.002773  0.013834  0.001343
                                 0.000681  0.000040  0.023014  0.001981 -0.009458 -0.001841  0.009728  0.000502 -0.002828 -0.000506
                                -0.000028  0.000002 -0.000080  0.000007 -0.000197  0.000020 -0.000381  0.000048 -0.000140 -0.000057
                                -0.000686 -0.000121 -0.002889 -0.000190 -0.000219 -0.000143 -0.000177 -0.000073 -0.000025 -0.000064
                                 0.000005 -0.000055 -0.000193 -0.000023  0.000042 -0.000181 -0.000082 -0.000806 -0.002783  0.000205
                                -0.000355 -0.002564

   5.2   0     0.0061   -0.8019 -0.000000  0.000000 -0.000000  0.000001 -0.000002  0.000002 -0.000005  0.000014 -0.000058  0.000529
                                 0.005780  0.008081  0.059555  0.064143  0.185906  0.140350 -0.177677  0.310568 -1.076675 -0.002136
                                -0.008311 -0.045553 -0.072102 -0.070346 -0.169830  3.615302  2.761799 -4.010784 -3.143882  2.346065
                                 0.000000 -0.000000  0.000001 -0.000004  0.000076  0.000683 -0.001129  0.000011  0.002324  0.006086
                                -0.000181 -0.001291  0.001793 -0.001252  0.000970 -0.001156  0.015521 -0.012520  0.031815 -0.026968
                                 0.058954 -0.085541  0.000003  0.000000 -0.000028 -0.000002  0.000389  0.000033  0.007504  0.000636
                                 0.012375  0.001055  0.013677  0.001165  0.008558  0.000754  0.003001  0.000252  0.001463  0.000116
                                -0.000018  0.000033  0.002606  0.000223 -0.002372 -0.000195  0.001723  0.000092 -0.001396 -0.000167
                                -0.000003  0.000000 -0.000012  0.000001 -0.000020  0.000001 -0.000051  0.000002  0.000019 -0.000012
                                -0.000139 -0.000017 -0.000155 -0.000023 -0.000530 -0.000016 -0.000362 -0.000013 -0.000003 -0.000007
                                 0.000001 -0.000007 -0.000021 -0.000004  0.000016 -0.000016 -0.000011 -0.000022 -0.000547  0.002075
                                -0.000093 -0.000204

                                   1 2py     1 2py     1 2py     1 2py     1 2py     1 2py     1 2py     1 2py     1 2py     1 2py
                                   1 2py     1 2py     1 2py     1 2py     1 2py     1 2py     1 2py     1 2py     1 2py     1 2py
                                   1 2py     1 2py     1 2py     1 2py     1 2py     1 2py     1 2py     1 2py     1 2py     1 2py
                                   1 3d1-    1 3d1-    1 3d1-    1 3d1-    1 3d1-    1 3d1-    1 3d1-    1 3d1-    1 3d1-    1 3d1-
                                   1 3d1-    1 3d1-    1 3d1-    1 3d1-    1 3d1-    1 3d1-    1 3d1-    1 3d1-    1 3d1-    1 3d1-
                                   1 3d1-    1 3d1-    1 4f1-    1 4f3-    1 4f1-    1 4f3-    1 4f1-    1 4f3-    1 4f1-    1 4f3-
                                   1 4f1-    1 4f3-    1 4f1-    1 4f3-    1 4f1-    1 4f3-    1 4f1-    1 4f3-    1 4f1-    1 4f3-
                                   1 4f1-    1 4f3-    1 4f1-    1 4f3-    1 4f1-    1 4f3-    1 4f1-    1 4f3-    1 4f1-    1 4f3-
                                   1 5g1-    1 5g3-    1 5g1-    1 5g3-    1 5g1-    1 5g3-    1 5g1-    1 5g3-    1 5g1-    1 5g3-
                                   1 5g1-    1 5g3-    1 5g1-    1 5g3-    1 5g1-    1 5g3-    1 5g1-    1 5g3-    1 6h1-    1 6h3-
                                   1 6h5-    1 6h1-    1 6h3-    1 6h5-    1 6h1-    1 6h3-    1 6h5-    2 2py     2 2py     2 2py
                                   2 3d1-    2 3d1-

   1.3   2    -1.2254  -11.9283  0.000000 -0.000000  0.000000 -0.000001  0.000002 -0.000003  0.000006 -0.000016  0.000065 -0.000605
                                -0.006561 -0.005568  0.160667 -0.085356  0.165346  0.345193  0.084517  0.018071  0.004435  0.002446
                                 0.008959 -0.081302 -0.201802  0.187685  0.389168  0.001558  0.007360 -0.002420 -0.000393  0.000071
                                 0.000000 -0.000000  0.000000 -0.000002  0.000038  0.000348 -0.001046  0.000921  0.000662 -0.001719
                                -0.000091 -0.000698  0.001248 -0.000490 -0.003764  0.000643 -0.000398 -0.000073 -0.000079  0.000061
                                -0.000029  0.000008  0.000000 -0.000001 -0.000004  0.000009  0.000053 -0.000119  0.001147 -0.002306
                                 0.002245 -0.003866  0.002985 -0.004170  0.002415 -0.003147  0.000295 -0.000927 -0.000343 -0.000444
                                 0.001238 -0.001155  0.002196 -0.001423 -0.000276  0.000394  0.000648 -0.000330 -0.000205  0.000116
                                -0.000006 -0.000087 -0.000006 -0.000182 -0.000127 -0.000637  0.000237 -0.001067  0.000216 -0.001318
                                 0.000000 -0.000972 -0.000137 -0.000353  0.000121 -0.000079 -0.000008  0.000003 -0.000063 -0.000035
                                 0.000010 -0.000230 -0.000162 -0.000102 -0.000532 -0.000433 -0.000452  0.000352  0.000975  0.000521
                                -0.000234 -0.000149

   2.3   +    -0.7043  -14.2580  0.000000 -0.000000  0.000000 -0.000000  0.000000 -0.000000  0.000000 -0.000000  0.000001 -0.000014
                                -0.000181 -0.000308  0.002618  0.002389  0.002548  0.001860 -0.005217 -0.003451 -0.001468  0.000059
                                 0.000313 -0.001123 -0.007179  0.007926  0.007961  0.000131  0.000447 -0.000358 -0.000034  0.000006
                                 0.000000 -0.000000  0.000001 -0.000007  0.000138  0.001288 -0.003980  0.004327 -0.001598 -0.019927
                                -0.000329 -0.002419  0.004232 -0.004558 -0.018485 -0.009447 -0.004036 -0.000969 -0.000272  0.000065
                                -0.000031  0.000010  0.000009  0.000101 -0.000075 -0.000816  0.001038  0.011356  0.019880  0.218075
                                 0.032307  0.355560  0.034805  0.385256  0.020466  0.223753  0.008114  0.088675  0.004325  0.046705
                                -0.000190 -0.005739  0.005300  0.058344 -0.002772 -0.033283  0.001717  0.020151 -0.000608 -0.007181
                                 0.000039 -0.000023  0.000071 -0.000035  0.000258 -0.000248  0.000468 -0.000545  0.000568 -0.000531
                                 0.000293 -0.000152 -0.000082  0.000123  0.000213  0.000033 -0.000068  0.000009 -0.000106 -0.000093
                                 0.000007 -0.000226 -0.000263  0.000011 -0.000200 -0.000320  0.000002 -0.000060 -0.000174  0.000105
                                -0.000048 -0.000339

   3.3   +    -0.4062  -12.4797  0.000000 -0.000000  0.000000 -0.000000  0.000000 -0.000001  0.000001 -0.000004  0.000016 -0.000151
                                -0.001727 -0.002095  0.020472 -0.003335  0.015702  0.045743 -0.026674 -0.145533 -0.169171  0.000622
                                 0.002529 -0.007817 -0.043268  0.053449  0.091907  0.006518 -0.028349 -0.043945 -0.002591  0.000486
                                -0.000000  0.000001 -0.000002  0.000012 -0.000221 -0.002045  0.005110 -0.003777 -0.002243  0.010132
                                 0.000528  0.003878 -0.006240  0.005354  0.014749  0.016850  0.003938  0.009956 -0.002279  0.000055
                                -0.000015  0.000003 -0.000089  0.000008  0.000717 -0.000063 -0.010034  0.000885 -0.194452  0.017236
                                -0.322360  0.028744 -0.357695  0.032219 -0.228090  0.020430 -0.076999  0.006762 -0.035767  0.003016
                                -0.014307  0.000921 -0.079144  0.007211  0.029089 -0.002600 -0.025731  0.002454  0.008460 -0.000843
                                 0.000071 -0.000007  0.000192 -0.000020  0.000447 -0.000043  0.001188  0.000019  0.000839  0.000145
                                 0.000295  0.000218  0.002274  0.000227 -0.002646  0.000136  0.001177  0.000033  0.000058 -0.000165
                                -0.000009  0.000197 -0.000401 -0.000108  0.000458 -0.000396 -0.000233 -0.001836 -0.010548 -0.019674
                                 0.001587  0.006546

   4.3   0    -0.0231   -4.3560  0.000000 -0.000000  0.000000 -0.000000  0.000000 -0.000000  0.000001 -0.000003  0.000012 -0.000116
                                -0.001279 -0.001183  0.027343 -0.011527  0.032899  0.099089  0.041494 -0.128975 -0.308441  0.000472
                                 0.001768 -0.013145 -0.039748  0.035655  0.076955 -0.158419 -0.173463 -0.244001 -0.081676 -0.009609
                                 0.000000 -0.000000  0.000000 -0.000002  0.000040  0.000344  0.000040 -0.000983  0.002480  0.012158
                                -0.000094 -0.000609  0.000497 -0.001231  0.004204  0.009152  0.028190  0.035299  0.034026  0.026675
                                 0.006561  0.002007  0.000033 -0.000003 -0.000262  0.000026  0.003667 -0.000366  0.070859 -0.007081
                                 0.116957 -0.011682  0.129258 -0.012856  0.080825 -0.008012  0.028282 -0.002834  0.013679 -0.001379
                                 0.000546 -0.000047  0.022500 -0.002065 -0.009293  0.001798  0.009585 -0.000525 -0.002736  0.000532
                                -0.000028 -0.000002 -0.000079 -0.000007 -0.000196 -0.000020 -0.000376 -0.000045 -0.000133  0.000061
                                -0.000680  0.000122 -0.002873  0.000184 -0.000238  0.000135 -0.000168  0.000061 -0.000023  0.000065
                                 0.000005 -0.000047  0.000196 -0.000024  0.000053  0.000185 -0.000084 -0.000808 -0.002792  0.000208
                                -0.000349 -0.002537

   5.3   0     0.0061   -0.8021 -0.000000  0.000000 -0.000000  0.000001 -0.000002  0.000002 -0.000005  0.000014 -0.000058  0.000529
                                 0.005779  0.008080  0.059580  0.064140  0.185939  0.140429 -0.177685  0.310466 -1.076960 -0.002136
                                -0.008310 -0.045565 -0.072143 -0.070312 -0.169764  3.615427  2.761898 -4.011221 -3.144251  2.346205
                                 0.000000 -0.000000  0.000001 -0.000004  0.000075  0.000679 -0.001117 -0.000001  0.002326  0.006158
                                -0.000180 -0.001284  0.001780 -0.001245  0.001019 -0.001087  0.015583 -0.012419  0.031864 -0.026844
                                 0.058927 -0.085392  0.000003 -0.000000 -0.000028  0.000002  0.000386 -0.000034  0.007460 -0.000656
                                 0.012300 -0.001087  0.013589 -0.001198  0.008493 -0.000772  0.002985 -0.000260  0.001458 -0.000120
                                -0.000033 -0.000038  0.002570 -0.000228 -0.002372  0.000171  0.001724 -0.000049 -0.001411  0.000089
                                -0.000003 -0.000000 -0.000012 -0.000001 -0.000020 -0.000001 -0.000051 -0.000002  0.000020  0.000012
                                -0.000138  0.000017 -0.000155  0.000023 -0.000532  0.000015 -0.000362  0.000012 -0.000002  0.000007
                                 0.000001 -0.000006  0.000021 -0.000004  0.000017  0.000017 -0.000011 -0.000022 -0.000547  0.002079
                                -0.000093 -0.000203

                                   1 3d2-    1 3d2-    1 3d2-    1 3d2-    1 3d2-    1 3d2-    1 3d2-    1 3d2-    1 3d2-    1 3d2-
                                   1 3d2-    1 3d2-    1 3d2-    1 3d2-    1 3d2-    1 3d2-    1 3d2-    1 3d2-    1 3d2-    1 3d2-
                                   1 3d2-    1 3d2-    1 4f2-    1 4f2-    1 4f2-    1 4f2-    1 4f2-    1 4f2-    1 4f2-    1 4f2-
                                   1 4f2-    1 4f2-    1 4f2-    1 4f2-    1 4f2-    1 4f2-    1 5g2-    1 5g4-    1 5g2-    1 5g4-
                                   1 5g2-    1 5g4-    1 5g2-    1 5g4-    1 5g2-    1 5g4-    1 5g2-    1 5g4-    1 5g2-    1 5g4-
                                   1 5g2-    1 5g4-    1 5g2-    1 5g4-    1 6h4-    1 6h2-    1 6h4-    1 6h2-    1 6h4-    1 6h2-
                                   2 3d2-    2 3d2-

   1.4   +    -0.7000  -14.2455  0.000000 -0.000000  0.000002 -0.000011  0.000207  0.001915 -0.005693  0.006219 -0.002447 -0.027180
                                -0.000493 -0.003578  0.006146 -0.006796 -0.025884 -0.010746 -0.005134 -0.000930 -0.000482  0.000139
                                -0.000071  0.000021  0.000102 -0.000819  0.011403  0.218851  0.356543  0.385598  0.223864  0.089205
                                 0.047386 -0.004458  0.059906 -0.033092  0.020295 -0.007228 -0.000107 -0.000000 -0.000209 -0.000000
                                -0.000751 -0.000000 -0.001370 -0.000001 -0.001521 -0.000001 -0.000960 -0.000001 -0.000079 -0.000000
                                 0.000081 -0.000000 -0.000023 -0.000000  0.000006 -0.000187  0.000015 -0.000473  0.000014 -0.000737
                                 0.000270 -0.000377

   2.4   0     0.0113   -0.8563 -0.000001  0.000004 -0.000018  0.000093 -0.001731 -0.015781  0.033460 -0.014329 -0.035731 -0.020162
                                 0.004134  0.030141 -0.045817  0.028192  0.038399  0.102516 -0.169427  0.354535 -0.456579  0.665479
                                -1.110339  1.601552  0.000000 -0.000003  0.000044  0.000797  0.001196  0.001284  0.000724  0.000382
                                 0.000324 -0.000759  0.000274 -0.003842  0.004024 -0.009466  0.000002 -0.000000  0.000004  0.000000
                                 0.000006  0.000000  0.000020  0.000001  0.000035  0.000000  0.000099  0.000002 -0.000041 -0.000002
                                 0.000018  0.000007 -0.000500 -0.000011  0.000000 -0.000000  0.000000 -0.000003  0.000000  0.000016
                                 0.000025  0.000095

   3.4   0     0.0279   -2.5512  0.000001 -0.000005  0.000020 -0.000106  0.001959  0.017639 -0.028511 -0.002078  0.062169  0.171278
                                -0.004672 -0.033433  0.046196 -0.029057  0.038786 -0.043261  0.372102 -0.411179  0.834754 -0.903011
                                 2.041259 -1.144627  0.000003 -0.000027  0.000365  0.006783  0.010475  0.011111  0.005284  0.003059
                                 0.002306 -0.004650 -0.003287 -0.016646  0.005686 -0.035556  0.000012  0.000000  0.000022  0.000000
                                 0.000041  0.000001  0.000097  0.000006  0.000273  0.000005  0.000536  0.000010 -0.000085 -0.000005
                                -0.000364  0.000025 -0.002431 -0.000043  0.000000 -0.000000  0.000000 -0.000027  0.000002  0.000149
                                 0.000264  0.000257

 HOMO      6.1    -0.218639 =      -5.9495eV
 LUMO      4.2    -0.023295 =      -0.6339eV
 LUMO-HOMO         0.195343 =       5.3156eV

 No convergence



 **********************************************************************************************************************************
 DATASETS  * FILE   NREC   LENGTH (MB)   RECORD NAMES
              1      19       22.63       500      610      700      900      950      970     1000      129      960     1100
                                          VAR    BASINP    GEOM    SYMINP    ZMAT    AOBASIS   BASIS     P2S    ABASIS      S
                                         1400     1410     1420     1200     1210     1080     1600     1650     1700
                                           T        V       ECP      H0       H01     AOSYM     SMH    MOLCAS    OPER

              2       5        9.61       700     1000      520     3202     2101
                                         GEOM     BASIS   MCVARS     RHF      RHF

 PROGRAMS   *        TOTAL       RHF       RHF       INT
 CPU TIMES  *       326.83    132.04     76.91    117.52
 REAL TIME  *       364.05 SEC
 DISK USED  *        13.53 GB
 SF USED    *         0.25 MB
 GA USED    *         0.00 MB       (max)       0.00 MB       (current)
 **********************************************************************************************************************************
   -->
   <time start="05:43:49" end="05:46:10" cpu="132.06" system="9.09" real="141.19"/>
   <storage units="megabyte" memory="8001.84" sf="0.25" df="621.78" eaf="12906.13" ga="0.0"/>
  </jobstep><!--
 SETTING SCF            =      -108.07907133  AU
 SETTING _CC_NORM_MAX   =         2.00000000
  --><jobstep command="RCCSD(T)" commandset="CCSD">
   <!--


 PROGRAM * CCSD (Restricted open-shell coupled cluster)     Authors: C. Hampel, H.-J. Werner, 1991, M. Deegan, P.J. Knowles, 1992


 Convergence thresholds:  THRVAR = 1.00D-08  THRDEN = 1.00D-06

 CCSD(T)     terms to be evaluated (factor= 1.000)


 Number of closed-shell orbitals:   6 (   4   1   1   0 )
 Number of active  orbitals:        7 (   2   2   2   1 )
 Number of external orbitals:     456 ( 177 109 109  61 )

 Memory could be reduced to 500.27 Mwords without degradation in triples

 Number of N-1 electron functions:              19
 Number of N-2 electron functions:             171
 Number of singly external CSFs:              2740
 Number of doubly external CSFs:           6840384
 Total number of CSFs:                     6843124

 Molecular orbitals read from record     2101.2  Type=RHF/CANONICAL (state 1.4)

 ?Error: RHF not converged. This error exit can be avoided using the IGNORE_ERROR option on the ORBITAL directive
   --><error/><!--
  --></jobstep><!--
  -->
  <input>
  <!--
 --></job><!--
--></molpro>
