<?xml version="1.0"?>
<molpro xmlns="http://www.molpro.net/schema/molpro-output"
  xmlns:xsd="http://www.w3.org/1999/XMLSchema"
  xmlns:cml="http://www.xml-cml.org/schema"
  xmlns:stm="http://www.xml-cml.org/schema"
  xmlns:xhtml="http://www.w3.org/1999/xhtml">
 <!--

 Nodes     nprocs
 nid02098    11
 Number of processes for MPI-2 version of Molpro:   nprocs(total)=   12   nprocs(compute)=   11   nprocs(helper)=    1

 Using customized tuning parameters: mindgm=7; mindgv=16; mindgc=1; mindgr=1; noblas=0; minvec=7
 default implementation of scratch files=sf

 --><job>
  <!--

 Variables initialized (889), CPU time= 0.05 sec
 Commands  initialized (702), CPU time= 0.01 sec, 572 directives.
 Default parameters read. Elapsed time= 0.12 sec

 Checking input...
 Passed
1


                                         ***  PROGRAM SYSTEM MOLPRO  ***
                                       Copyright, TTI GmbH Stuttgart, 2015
                                    Version 2015.1 linked Dec 29 2018 15:55:43


 **********************************************************************************************************************************
 LABEL *   Calculation for GdH3 atom, singlet and triplet
  64 bit mpp version                                                                     DATE: 27-Dec-22          TIME: 13:54:11
 **********************************************************************************************************************************

 SHA1:             19cd028119e0e09f93f0674bd8af7968d9b3eff6
 **********************************************************************************************************************************
  -->
  <!--

 THRESHOLDS:

 ZERO    =  1.00D-12  ONEINT  =  1.00D-12  TWOINT  =  1.00D-15  PREFAC  =  1.00D-14  LOCALI  =  1.00D-09  EORDER  =  1.00D-04
 ENERGY  =  0.00D+00  ETEST   =  0.00D+00  EDENS   =  0.00D+00  THRDEDEF=  1.00D-06  GRADIENT=  1.00D-02  STEP    =  1.00D-03
 ORBITAL =  1.00D-05  CIVEC   =  1.00D-05  COEFF   =  1.00D-04  PRINTCI =  5.00D-02  PUNCHCI =  9.90D+01  OPTGRAD =  3.00D-04
 OPTENERG=  1.00D-06  OPTSTEP =  3.00D-04  THRGRAD =  1.00D-10  COMPRESS=  1.00D-11  VARMIN  =  1.00D-07  VARMAX  =  1.00D-03
 THRDOUB =  0.00D+00  THRDIV  =  1.00D-05  THRRED  =  1.00D-07  THRPSP  =  1.00D+00  THRDC   =  1.00D-10  THRCS   =  1.00D-10
 THRNRM  =  1.00D-08  THREQ   =  0.00D+00  THRDE   =  1.00D+00  THRREF  =  1.00D-05  SPARFAC =  1.00D+00  THRDLP  =  1.00D-07
 THRDIA  =  1.00D-10  THRDLS  =  1.00D-07  THRGPS  =  0.00D+00  THRKEX  =  0.00D+00  THRDIS  =  2.00D-01  THRVAR  =  1.00D-10
 THRLOC  =  1.00D-06  THRGAP  =  1.00D-06  THRLOCT = -1.00D+00  THRGAPT = -1.00D+00  THRORB  =  1.00D-06  THRMLTP =  0.00D+00
 THRCPQCI=  1.00D-10  KEXTA   =  0.00D+00  THRCOARS=  0.00D+00  SYMTOL  =  1.00D-06  GRADTOL =  1.00D-06  THROVL  =  1.00D-08
 THRORTH =  1.00D-08  GRID    =  1.00D-06  GRIDMAX =  1.00D-03  DTMAX   =  0.00D+00  THROCCDE=  1.00D-01  THROCCDE=  1.00D-01



 THRESHOLDS:

 ZERO    =  1.00D-12  ONEINT  =  1.00D-12  TWOINT  =  1.00D-15  PREFAC  =  1.00D-14  LOCALI  =  1.00D-09  EORDER  =  1.00D-04
 ENERGY  =  0.00D+00  ETEST   =  0.00D+00  EDENS   =  0.00D+00  THRDEDEF=  1.00D-06  GRADIENT=  1.00D-02  STEP    =  1.00D-03
 ORBITAL =  1.00D-05  CIVEC   =  1.00D-05  COEFF   =  1.00D-04  PRINTCI =  5.00D-02  PUNCHCI =  9.90D+01  OPTGRAD =  3.00D-04
 OPTENERG=  1.00D-06  OPTSTEP =  3.00D-04  THRGRAD =  1.00D-10  COMPRESS=  1.00D-11  VARMIN  =  1.00D-07  VARMAX  =  1.00D-03
 THRDOUB =  0.00D+00  THRDIV  =  1.00D-05  THRRED  =  1.00D-07  THRPSP  =  1.00D+00  THRDC   =  1.00D-10  THRCS   =  1.00D-10
 THRNRM  =  1.00D-08  THREQ   =  0.00D+00  THRDE   =  1.00D+00  THRREF  =  1.00D-05  SPARFAC =  1.00D+00  THRDLP  =  1.00D-07
 THRDIA  =  1.00D-10  THRDLS  =  1.00D-07  THRGPS  =  0.00D+00  THRKEX  =  0.00D+00  THRDIS  =  2.00D-01  THRVAR  =  1.00D-10
 THRLOC  =  1.00D-06  THRGAP  =  1.00D-06  THRLOCT = -1.00D+00  THRGAPT = -1.00D+00  THRORB  =  1.00D-06  THRMLTP =  0.00D+00
 THRCPQCI=  1.00D-10  KEXTA   =  0.00D+00  THRCOARS=  0.00D+00  SYMTOL  =  1.00D-06  GRADTOL =  1.00D-06  THROVL  =  1.00D-15
 THRORTH =  1.00D-08  GRID    =  1.00D-06  GRIDMAX =  1.00D-03  DTMAX   =  0.00D+00  THROCCDE=  1.00D-01  THROCCDE=  1.00D-01



 Variable memory set to 1000000000 words,  buffer space   230000 words

 SETTING BASIS          =    USERDEF
 SETTING GD_CCSD        =      -108.94859710
 SETTING H_CCSD         =        -0.49982987
 SETTING NE             =        19.00000000
 SETTING SYMM           =         4.00000000
 SETTING SS             =         7.00000000
 SETTING A1             =         6.00000000
 SETTING B1             =         3.00000000
 SETTING B2             =         3.00000000
 SETTING A2             =         1.00000000
 ZUNIT=ANG


Geometry recognized as XYZ

  --><jobstep command="RHF-SCF" commandset="SCFPRO">
   <!--


 Recomputing integrals since basis changed


 Using spherical harmonics



 PROGRAM * SEWARD (Integral evaluation for generally contracted gaussian basis sets)     Author: Roland Lindh, 1990

 Geometry written to block  1 of record 700


 Point group  C2v


   --><cml:molecule>
    <cml:symmetry pointGroup="C2v"/>
    <cml:atomArray>
     <cml:atom id="a1" elementType="Gd" x3="0.0" y3="0.0" z3="0.0"/>
     <cml:atom id="a2" elementType="H" x3="0.0" y3="0.0" z3="2.1"/>
    </cml:atomArray>
    <cml:bondArray>
     <cml:bond atomRefs2="a1 a2"/>
    </cml:bondArray>
   </cml:molecule><!--

 ATOMIC COORDINATES

 NR  ATOM    CHARGE       X              Y              Z

   1  GD     18.00    0.000000000    0.000000000    0.000000000
   2  H       1.00    0.000000000    0.000000000    3.968424862

 Bond lengths in Bohr (Angstrom)

 1-2  3.968424862
     ( 2.100000000)

 NUCLEAR CHARGE:                   19
 NUMBER OF PRIMITIVE AOS:         619
 NUMBER OF SYMMETRY AOS:          469
 NUMBER OF CONTRACTIONS:          469   ( 183A1  + 112B1  + 112B2  +  62A2  )
 NUMBER OF CORE ORBITALS:           0   (   0A1  +   0B1  +   0B2  +   0A2  )
 NUMBER OF VALENCE ORBITALS:       18   (   8A1  +   4B1  +   4B2  +   2A2  )


 NUCLEAR REPULSION ENERGY    4.53580467

 EXTRA SYMMETRY OF AOS IN SYMMETRY 1:   1 1 1 1 1 1 1 1 1 1   1 1 1 1 1 1 1 1 1 1   1 1 1 1 1 1 1 1 1 1   1 1 1 1 1 1 1 1 1 1
                                        1 1 1 1 1 1 1 1 1 1   1 1 1 1 1 1 1 1 1 1   1 1 1 2 1 2 1 2 1 2   1 2 1 2 1 2 1 2 1 2
                                        1 2 1 2 1 2 1 2 1 2   1 2 1 2 1 2 1 2 1 2   1 2 1 2 1 2 1 2 1 2   1 2 1 2 1 2 1 2 1 2
                                        1 2 1 2 1 2 1 2 1 2   1 2 1 2 1 3 2 1 3 2   1 3 2 1 3 2 1 3 2 1   3 2 1 3 2 1 3 2 1 3
                                        2 2 3 1 2 3 1 2 3 1   1 1 1 1 1 1 1 1 1 1   2 1 2
 EXTRA SYMMETRY OF AOS IN SYMMETRY 2:   1 1 1 1 1 1 1 1 1 1   1 1 1 1 1 1 1 1 1 1   1 1 1 1 1 1 1 1 1 1   1 1 1 1 1 1 1 1 1 1
                                        1 1 1 1 1 1 1 1 1 1   1 1 1 2 1 2 1 2 1 2   1 2 1 2 1 2 1 2 1 2   1 2 1 2 1 2 1 2 1 2
                                        1 2 1 2 1 2 1 2 1 2   1 2 1 2 1 2 1 2 1 2   3 1 2 3 1 2 3 1 1 1   1 1
 EXTRA SYMMETRY OF AOS IN SYMMETRY 3:   1 1 1 1 1 1 1 1 1 1   1 1 1 1 1 1 1 1 1 1   1 1 1 1 1 1 1 1 1 1   1 1 1 1 1 1 1 1 1 1
                                        1 1 1 1 1 1 1 1 1 1   1 1 1 2 1 2 1 2 1 2   1 2 1 2 1 2 1 2 1 2   1 2 1 2 1 2 1 2 1 2
                                        1 2 1 2 1 2 1 2 1 2   1 2 1 2 1 2 1 2 1 2   3 1 2 3 1 2 3 1 1 1   1 1
 EXTRA SYMMETRY OF AOS IN SYMMETRY 4:   1 1 1 1 1 1 1 1 1 1   1 1 1 1 1 1 1 1 1 1   1 1 1 1 1 1 1 1 1 1   1 1 1 1 1 1 1 2 1 2
                                        1 2 1 2 1 2 1 2 1 2   1 2 1 2 2 1 2 1 2 1   1 1

 Eigenvalues of metric

         1 0.115E-06 0.304E-06 0.611E-06 0.722E-06 0.727E-06 0.740E-06 0.134E-05 0.432E-05
         2 0.616E-06 0.727E-06 0.439E-05 0.139E-04 0.238E-04 0.448E-04 0.884E-04 0.148E-03
         3 0.616E-06 0.727E-06 0.439E-05 0.139E-04 0.238E-04 0.448E-04 0.884E-04 0.148E-03
         4 0.727E-06 0.238E-04 0.149E-03 0.540E-03 0.826E-03 0.926E-03 0.420E-02 0.882E-02


 Contracted 2-electron integrals neglected if value below      1.0D-15
 AO integral compression algorithm  1   Integral accuracy      1.0D-15

     5641.601 MB (compressed) written to integral file ( 48.4%)

     Node minimum: 318.243 MB, node maximum: 741.343 MB


 NUMBER OF SORTED TWO-ELECTRON INTEGRALS:  140246290.     BUFFER LENGTH:  32768
 NUMBER OF SEGMENTS:   5  SEGMENT LENGTH:   31999404      RECORD LENGTH: 524288

 Memory used in sort:      32.56 MW

 SORT1 READ  1457666564. AND WROTE    55032120. INTEGRALS IN    161 RECORDS. CPU TIME:    27.37 SEC, REAL TIME:    38.46 SEC
 SORT2 READ   607978492. AND WROTE  1542818159. INTEGRALS IN  19404 RECORDS. CPU TIME:     3.92 SEC, REAL TIME:    10.99 SEC

 Node minimum:   140147600.  Node maximum:   140434714. integrals

 OPERATOR DM      FOR CENTER  0  COORDINATES:    0.000000    0.000000    0.000000


 **********************************************************************************************************************************
 DATASETS  * FILE   NREC   LENGTH (MB)   RECORD NAMES
              1      19       22.57       500      610      700      900      950      970     1000      129      960     1100
                                          VAR    BASINP    GEOM    SYMINP    ZMAT    AOBASIS   BASIS     P2S    ABASIS      S
                                         1400     1410     1420     1200     1210     1080     1600     1650     1700
                                           T        V       ECP      H0       H01     AOSYM     SMH    MOLCAS    OPER

 PROGRAMS   *        TOTAL       INT
 CPU TIMES  *       117.20    116.84
 REAL TIME  *       137.75 SEC
 DISK USED  *        12.91 GB
 GA USED    *         0.00 MB       (max)       0.00 MB       (current)
 **********************************************************************************************************************************


 PROGRAM * RHF-SCF (OPEN SHELL)       Authors: W. Meyer, H.-J. Werner


 NUMBER OF ELECTRONS:      13+    6-    SPACE SYMMETRY=4    SPIN SYMMETRY: Octet
 CONVERGENCE THRESHOLDS:    1.00E-05 (Density)    1.00E-07 (Energy)
 MAX. NUMBER OF ITERATIONS:      200
 INTERPOLATION TYPE:            DIIS
 INTERPOLATION STEPS:              2 (START)      1 (STEP)
 LEVEL SHIFTS:                 -0.60 (CLOSED) -0.30 (OPEN)

 Number of closed-shell orbitals:    6 (   4   1   1   0 )
 Number of open-shell orbitals:      7 (   2   2   2   1 )


 Guess basis ATOMIC-GUESS,GD=ECP46_GUESS not found. No density guess!


 Molecular orbital dump at record        3202.2

 ITERATION    DDIFF          GRAD             ENERGY        2-EL.EN.            DIPOLE MOMENTS         DIIS   ORB.
    1      0.000D+00      0.000D+00       -75.35784959    344.815045    0.00000    0.00000    3.82370    0    start
    2      0.000D+00      0.190D+00       -23.97271048     17.701712    0.00000    0.00000  -80.19469    0    diag,B
    3      0.834D+01      0.469D-01       -76.76628724    341.811892    0.00000    0.00000    4.15966    1    diag,B
    4      0.833D+01      0.186D+00       -80.91194710    332.888793    0.00000    0.00000    4.13726    2    diag,B
    5      0.119D-01      0.167D+00       -85.69345569    321.360188    0.00000    0.00000    4.10751    3    diag,B
    6      0.152D-01      0.146D+00       -86.13166623    320.261777    0.00000    0.00000    4.09994    4    diag,B
    7      0.148D-02      0.145D+00       -86.46541162    319.352888    0.00000    0.00000    4.09305    5    diag,B
    8      0.150D-02      0.143D+00       -86.46628994    319.349039    0.00000    0.00000    4.09464    6    diag,B
    9      0.208D-03      0.143D+00       -86.47466815    319.326577    0.00000    0.00000    4.09699    7    diag,B
   10      0.833D-04      0.143D+00       -86.48339513    319.303875    0.00000    0.00000    4.09591    8    orth
   11      0.740D-04      0.143D+00       -86.49915524    319.265496    0.00000    0.00000    4.09590    9    diag,B
   12      0.291D-03      0.143D+00       -86.79028702    318.491696    0.00000    0.00000    4.10721    9    diag,B
   13      0.154D-02      0.142D+00       -87.10914574    317.619865    0.00000    0.00000    4.12085    9    diag,B
   14      0.309D-02      0.141D+00       -87.00733430    317.911256    0.00000    0.00000    4.11816    9    diag,B
   15      0.136D-02      0.141D+00       -87.66457819    316.128039    0.00000    0.00000    4.09084    9    diag,B
   16      0.301D-02      0.138D+00       -87.99913005    315.221044    0.00000    0.00000    4.06167    9    diag,B
   17      0.164D-02      0.136D+00       -88.16490265    314.738034    0.00000    0.00000    4.06144    9    diag,B
   18      0.241D-02      0.136D+00       -88.43346683    313.973393    0.00000    0.00000    4.09568    9    diag,B
   19      0.114D-02      0.134D+00       -88.57434067    313.565466    0.00000    0.00000    4.06773    9    diag,B
   20      0.140D-02      0.134D+00       -88.19374299    314.633868    0.00000    0.00000    4.07140    9    orth
   21      0.138D-02      0.136D+00       -87.07340841    317.710865    0.00000    0.00000    4.00016    9    diag,B
   22      0.774D-02      0.140D+00       -88.97666811    312.462888    0.00000    0.00000    4.04917    9    diag,B
   23      0.894D-02      0.132D+00       -88.71987955    313.189175    0.00000    0.00000    4.05583    9    diag,B
   24      0.159D-02      0.133D+00       -87.56395519    316.403428    0.00000    0.00000    4.01381    9    diag,B
   25      0.553D-02      0.139D+00       -89.12231175    312.040504    0.00000    0.00000    4.02823    9    diag,B
   26      0.586D-02      0.131D+00       -88.88668377    312.733747    0.00000    0.00000    4.00641    9    diag,B
   27      0.163D-02      0.132D+00       -88.33972296    314.251209    0.00000    0.00000    4.02635    9    diag,B
   28      0.397D-02      0.135D+00       -88.94188436    312.529230    0.00000    0.00000    4.04771    9    diag,B
   29      0.291D-02      0.132D+00       -88.03936263    315.057930    0.00000    0.00000    4.04369    9    diag,B
   30      0.289D-02      0.137D+00       -89.39774388    311.256444    0.00000    0.00000    4.06132    9    orth
   31      0.493D-02      0.130D+00       -89.39162358    311.244724    0.00000    0.00000    4.06701    9    diag,B
   32      0.652D-03      0.130D+00       -86.92466527    318.183727    0.00000    0.00000    3.97315    9    diag,B
   33      0.869D-02      0.141D+00       -88.22338009    314.599427    0.00000    0.00000    4.03968    9    diag,B
   34      0.499D-02      0.136D+00       -89.03569271    312.303024    0.00000    0.00000    4.03444    9    diag,B
   35      0.331D-02      0.132D+00       -89.01388870    312.365469    0.00000    0.00000    4.01835    9    diag,B
   36      0.980D-03      0.132D+00       -87.19861587    317.430782    0.00000    0.00000    4.03017    9    diag,B
   37      0.683D-02      0.140D+00       -88.45534480    313.964489    0.00000    0.00000    4.00398    9    diag,B
   38      0.563D-02      0.134D+00       -88.75474591    313.107419    0.00000    0.00000    4.03051    9    diag,B
   39      0.107D-02      0.133D+00       -87.93889955    315.407352    0.00000    0.00000    4.01663    9    diag,B
   40      0.377D-02      0.137D+00       -87.39334412    316.878046    0.00000    0.00000    4.03502    9    orth
   41      0.193D-02      0.139D+00       -88.37301112    314.190741    0.00000    0.00000    4.03024    9    diag,B
   42      0.385D-02      0.135D+00       -88.71419372    313.233130    0.00000    0.00000    4.01337    9    diag,B
   43      0.124D-02      0.133D+00       -87.75035291    315.897848    0.00000    0.00000    4.03764    9    diag,B
   44      0.360D-02      0.138D+00       -87.80086118    315.778271    0.00000    0.00000    4.03705    9    diag,B
   45      0.127D-02      0.137D+00       -88.65526670    313.398897    0.00000    0.00000    4.01515    9    diag,B
   46      0.333D-02      0.133D+00       -88.20803666    314.630490    0.00000    0.00000    4.03530    9    diag,B
   47      0.180D-02      0.135D+00       -87.63187804    316.239596    0.00000    0.00000    4.04000    9    diag,B
   48      0.273D-02      0.138D+00       -88.47873376    313.895050    0.00000    0.00000    4.01696    9    diag,B
   49      0.331D-02      0.134D+00       -88.63415300    313.436292    0.00000    0.00000    4.02827    9    diag,B
   50      0.139D-02      0.134D+00       -87.56197305    316.428546    0.00000    0.00000    4.04132    9    orth
   51      0.450D-02      0.138D+00       -88.37473002    314.186019    0.00000    0.00000    4.01784    9    diag,B
   52      0.318D-02      0.135D+00       -88.77983759    313.025989    0.00000    0.00000    4.02383    9    diag,B
   53      0.214D-02      0.133D+00       -87.59038522    316.349885    0.00000    0.00000    4.04058    9    diag,B
   54      0.493D-02      0.138D+00       -88.29261455    314.415508    0.00000    0.00000    4.01866    9    diag,B
   55      0.279D-02      0.135D+00       -88.79459026    312.984469    0.00000    0.00000    4.02297    9    diag,B
   56      0.250D-02      0.133D+00       -87.65796746    316.164534    0.00000    0.00000    4.03941    9    diag,B
   57      0.473D-02      0.138D+00       -88.21662918    314.627429    0.00000    0.00000    4.01974    9    diag,B
   58      0.228D-02      0.135D+00       -88.79614476    312.979864    0.00000    0.00000    4.02302    9    diag,B
   59      0.279D-02      0.133D+00       -87.73134841    315.962934    0.00000    0.00000    4.03833    9    fixocc
   60      0.445D-02      0.138D+00       -88.13819427    314.845585    0.00000    0.00000    4.02105    9    orth
   61      0.175D-02      0.136D+00       -88.81185478    312.935255    0.00000    0.00000    4.02280    9    diag,B
   62      0.314D-02      0.133D+00       -87.80956260    315.747548    0.00000    0.00000    4.03714    9    diag,B
   63      0.420D-02      0.137D+00       -88.04960594    315.091311    0.00000    0.00000    4.02258    9    diag,B
   64      0.125D-02      0.136D+00       -88.83270241    312.876124    0.00000    0.00000    4.02238    9    diag,B
   65      0.355D-02      0.133D+00       -87.90195197    315.492590    0.00000    0.00000    4.03560    9    diag,B
   66      0.392D-02      0.137D+00       -87.94530210    315.379764    0.00000    0.00000    4.02443    9    diag,B
   67      0.942D-03      0.137D+00       -88.85577985    312.810616    0.00000    0.00000    4.02188    9    diag,B
   68      0.402D-02      0.132D+00       -88.01671366    315.175085    0.00000    0.00000    4.03356    9    diag,B
   69      0.356D-02      0.136D+00       -87.81782856    315.731035    0.00000    0.00000    4.02680    9    diag,B
   70      0.127D-02      0.137D+00       -88.88415349    312.730064    0.00000    0.00000    4.02123    9    orth
   71      0.459D-02      0.132D+00       -88.16320927    314.768435    0.00000    0.00000    4.03080    9    diag,B
   72      0.310D-02      0.136D+00       -87.65641550    316.173899    0.00000    0.00000    4.02992    9    diag,B
   73      0.224D-02      0.138D+00       -88.91882369    312.631766    0.00000    0.00000    4.02030    9    diag,B
   74      0.531D-02      0.132D+00       -88.35240625    314.241024    0.00000    0.00000    4.02694    9    diag,B
   75      0.251D-02      0.135D+00       -87.45078923    316.735070    0.00000    0.00000    4.03405    9    diag,B
   76      0.366D-02      0.139D+00       -88.95415475    312.532074    0.00000    0.00000    4.01910    9    diag,B
   77      0.618D-02      0.132D+00       -88.58582582    313.586966    0.00000    0.00000    4.02172    9    diag,B
   78      0.176D-02      0.134D+00       -87.21184005    317.383225    0.00000    0.00000    4.03907    9    diag,B
   79      0.541D-02      0.140D+00       -88.97421592    312.476628    0.00000    0.00000    4.01797    9    diag,B
   80      0.712D-02      0.132D+00       -88.82737019    312.906182    0.00000    0.00000    4.01577    9    orth
   81      0.946D-03      0.133D+00       -87.02244332    317.894756    0.00000    0.00000    4.04318    9    diag,B
   82      0.705D-02      0.141D+00       -88.84944082    312.857029    0.00000    0.00000    4.01213    9    diag,B
   83      0.763D-02      0.133D+00       -89.06415851    312.227826    0.00000    0.00000    4.01003    9    diag,B
   84      0.141D-02      0.131D+00       -86.23276654    319.999920    0.00000    0.00000    4.05029    9    diag,B
   85      0.107D-01      0.144D+00       -88.96528975    312.516390    0.00000    0.00000    4.01839    9    diag,B
   86      0.103D-01      0.132D+00       -88.74247099    313.143225    0.00000    0.00000    4.02729    9    diag,B
   87      0.135D-02      0.133D+00       -86.79948731    318.499551    0.00000    0.00000    4.05124    9    diag,B
   88      0.815D-02      0.142D+00       -89.04572424    312.280588    0.00000    0.00000    4.01693    9    diag,B
   89      0.849D-02      0.132D+00       -88.48436564    313.862232    0.00000    0.00000    4.02889    9    diag,B
   90      0.250D-02      0.134D+00       -86.64361930    318.916141    0.00000    0.00000    4.04745    9    orth
   91      0.826D-02      0.143D+00       -88.90041840    312.688091    0.00000    0.00000    4.03537    9    diag,B
   92      0.927D-02      0.132D+00       -88.40702934    314.079918    0.00000    0.00000    4.03139    9    diag,B
   93      0.292D-02      0.135D+00       -87.26847069    317.233752    0.00000    0.00000    4.03608    9    diag,B
   94      0.659D-02      0.140D+00       -88.63839034    313.421687    0.00000    0.00000    4.04303    9    diag,B
   95      0.710D-02      0.133D+00       -88.32328090    314.309240    0.00000    0.00000    4.03152    9    diag,B
   96      0.351D-02      0.135D+00       -87.24939131    317.282939    0.00000    0.00000    4.03810    9    diag,B
   97      0.651D-02      0.140D+00       -88.65776880    313.367010    0.00000    0.00000    4.04241    9    diag,B
   98      0.722D-02      0.133D+00       -88.42697473    314.017961    0.00000    0.00000    4.02924    9    diag,B
   99      0.344D-02      0.135D+00       -87.06056650    317.791295    0.00000    0.00000    4.04261    9    diag,B
  100      0.744D-02      0.141D+00       -88.71311620    313.210897    0.00000    0.00000    4.04095    9    orth
  101      0.805D-02      0.133D+00       -88.53007485    313.728939    0.00000    0.00000    4.02710    9    diag,B
  102      0.326D-02      0.134D+00       -86.90278936    318.214550    0.00000    0.00000    4.04629    9    diag,B
  103      0.830D-02      0.141D+00       -88.76788710    313.056275    0.00000    0.00000    4.03942    9    diag,B
  104      0.877D-02      0.133D+00       -88.58073949    313.586936    0.00000    0.00000    4.02600    9    diag,B
  105      0.311D-02      0.134D+00       -86.80114985    318.486357    0.00000    0.00000    4.04905    9    diag,B
  106      0.882D-02      0.142D+00       -88.82099983    312.906217    0.00000    0.00000    4.03782    9    diag,B
  107      0.928D-02      0.133D+00       -88.59160111    313.556757    0.00000    0.00000    4.02565    9    diag,B
  108      0.302D-02      0.134D+00       -86.73508119    318.662716    0.00000    0.00000    4.05124    9    diag,B
  109      0.908D-02      0.142D+00       -88.87304634    312.759085    0.00000    0.00000    4.03612    9    diag,B
  110      0.966D-02      0.132D+00       -88.57841384    313.594221    0.00000    0.00000    4.02580    9    orth
  111      0.296D-02      0.134D+00       -86.69239455    318.776571    0.00000    0.00000    4.05306    9    diag,B
  112      0.919D-02      0.142D+00       -88.92329937    312.616943    0.00000    0.00000    4.03434    9    diag,B
  113      0.994D-02      0.132D+00       -88.54964150    313.675457    0.00000    0.00000    4.02630    9    diag,B
  114      0.296D-02      0.134D+00       -86.66752764    318.842926    0.00000    0.00000    4.05459    9    diag,B
  115      0.917D-02      0.142D+00       -88.97113305    312.481587    0.00000    0.00000    4.03251    9    diag,B
  116      0.101D-01      0.132D+00       -88.51060731    313.785376    0.00000    0.00000    4.02708    9    diag,B
  117      0.301D-02      0.134D+00       -86.65726916    318.870401    0.00000    0.00000    4.05584    9    diag,B
  118      0.908D-02      0.142D+00       -89.01588462    312.354929    0.00000    0.00000    4.03065    9    diag,B
  119      0.103D-01      0.132D+00       -88.46543672    313.912269    0.00000    0.00000    4.02808    9    diag,B
  120      0.312D-02      0.134D+00       -86.66003117    318.863215    0.00000    0.00000    4.05684    9    orth
  121      0.892D-02      0.142D+00       -89.05677694    312.239210    0.00000    0.00000    4.02879    9    diag,B
  122      0.104D-01      0.132D+00       -88.41721728    314.047365    0.00000    0.00000    4.02922    9    diag,B
  123      0.329D-02      0.135D+00       -86.67569507    318.821621    0.00000    0.00000    4.05756    9    diag,B
  124      0.872D-02      0.142D+00       -88.35957851    314.238292    0.00000    0.00000    4.01970    9    diag,B
  125      0.839D-02      0.135D+00       -88.37608745    314.165144    0.00000    0.00000    4.03062    9    diag,B
  126      0.134D-02      0.135D+00       -86.92133541    318.160433    0.00000    0.00000    4.05417    9    diag,B
  127      0.794D-02      0.141D+00       -88.66639577    313.370135    0.00000    0.00000    4.01072    9    diag,B
     Orbital  1.2 strongly deviates from fixed occupation: 1.89638  (now: 2.00)
     Orbital  2.2 strongly deviates from fixed occupation: 1.10247  (now: 1.00)
     Note:  Use {hf,nitord=N} to fix occupations at iteration N
            Use {gthresh,occdev=1.0} to suppress deviation warnings
  128      0.874D-02      0.133D+00       -88.18483165    314.697605    0.00000    0.00000    4.02708    9    diag,B
  129      0.265D-02      0.136D+00       -86.41571855    319.503572    0.00000    0.00000    4.06070    9    diag,B
  130      0.900D-02      0.144D+00       -88.85584450    312.828917    0.00000    0.00000    4.01438    9    orth
  131      0.109D-01      0.133D+00       -88.22676356    314.582122    0.00000    0.00000    4.02725    9    diag,B
  132      0.338D-02      0.135D+00       -86.45228581    319.402824    0.00000    0.00000    4.06180    9    diag,B
  133      0.930D-02      0.143D+00       -88.83767862    312.879190    0.00000    0.00000    4.01369    9    diag,B


 ?APPARENTLY NO CONVERGENCE, EXIT AFTER THREE FURTHER ITERATIONS


  134      0.110D-01      0.133D+00       -88.15311382    314.786214    0.00000    0.00000    4.02695    9    diag,B
     Orbital  1.2 strongly deviates from fixed occupation: 1.61697  (now: 2.00)
     Orbital  2.2 strongly deviates from fixed occupation: 1.38069  (now: 1.00)
  135      0.380D-02      0.136D+00       -86.50859265    319.267769    0.00000    0.00000    4.07277    9    orth
     Orbital  1.1 strongly deviates from fixed occupation: 1.33440  (now: 2.00)
     Orbital  2.1 strongly deviates from fixed occupation: 0.82716  (now: 2.00)
     Orbital  3.1 strongly deviates from fixed occupation: 0.76580  (now: 2.00)
     Orbital  4.1 strongly deviates from fixed occupation: 0.75617  (now: 2.00)
     Orbital  5.1 strongly deviates from fixed occupation: 0.41069  (now: 1.00)
     Orbital  6.1 strongly deviates from fixed occupation: 0.35694  (now: 1.00)
     Orbital  1.2 strongly deviates from fixed occupation: 0.81111  (now: 2.00)
     Orbital  2.2 strongly deviates from fixed occupation: 0.70027  (now: 1.00)
     Orbital  3.2 strongly deviates from fixed occupation: 0.48600  (now: 1.00)
     Orbital  1.3 strongly deviates from fixed occupation: 0.81489  (now: 2.00)
     Orbital  2.3 strongly deviates from fixed occupation: 0.72096  (now: 1.00)
     Orbital  3.3 strongly deviates from fixed occupation: 0.46911  (now: 1.00)
     Orbital  1.4 strongly deviates from fixed occupation: 0.47003  (now: 1.00)
  136      0.950D-02      0.143D+00       -68.86774269    176.972734    0.00000    0.00000    2.13984    0    orth

 Final alpha occupancy:   6   3   3   1
 Final beta  occupancy:   4   1   1   0

 !RHF STATE 1.4 Energy                -68.867742694826
   --><property name="Energy" method="RHF" principal="true" stateSymmetry="4" stateNumber="1"
     value="-68.8677426948257"/><!--
 Nuclear energy                         4.53580467
 One-electron energy                 -161.88991440
 Two-electron energy                   88.48636704
 Virial quotient                       -0.45223238
 !RHF STATE 1.4 Dipole moment           0.00000000     0.00000000     2.13984252
 Dipole moment /Debye                   0.00000000     0.00000000     5.43858095
   --><property name="Dipole moment" method="RHF" principal="true" stateSymmetry="4"
     stateNumber="1" value="0.0 0.0 2.13984252099751"/><!--

 ELECTRON ORBITALS
 =================


   Orb  Occ    Energy  Couls-En    Coefficients

                                   1 1s      1 1s      1 1s      1 1s      1 1s      1 1s      1 1s      1 1s      1 1s      1 1s
                                   1 1s      1 1s      1 1s      1 1s      1 1s      1 1s      1 1s      1 1s      1 1s      1 1s
                                   1 1s      1 1s      1 1s      1 1s      1 1s      1 1s      1 1s      1 1s      1 1s      1 1s
                                   1 1s      1 1s      1 2pz     1 2pz     1 2pz     1 2pz     1 2pz     1 2pz     1 2pz     1 2pz
                                   1 2pz     1 2pz     1 2pz     1 2pz     1 2pz     1 2pz     1 2pz     1 2pz     1 2pz     1 2pz
                                   1 2pz     1 2pz     1 2pz     1 2pz     1 2pz     1 2pz     1 2pz     1 2pz     1 2pz     1 2pz
                                   1 2pz     1 2pz     1 3d0     1 3d2+    1 3d0     1 3d2+    1 3d0     1 3d2+    1 3d0     1 3d2+
                                   1 3d0     1 3d2+    1 3d0     1 3d2+    1 3d0     1 3d2+    1 3d0     1 3d2+    1 3d0     1 3d2+
                                   1 3d0     1 3d2+    1 3d0     1 3d2+    1 3d0     1 3d2+    1 3d0     1 3d2+    1 3d0     1 3d2+
                                   1 3d0     1 3d2+    1 3d0     1 3d2+    1 3d0     1 3d2+    1 3d0     1 3d2+    1 3d0     1 3d2+
                                   1 3d0     1 3d2+    1 3d0     1 3d2+    1 3d0     1 3d2+    1 4f0     1 4f2+    1 4f0     1 4f2+
                                   1 4f0     1 4f2+    1 4f0     1 4f2+    1 4f0     1 4f2+    1 4f0     1 4f2+    1 4f0     1 4f2+
                                   1 4f0     1 4f2+    1 4f0     1 4f2+    1 4f0     1 4f2+    1 4f0     1 4f2+    1 4f0     1 4f2+
                                   1 4f0     1 4f2+    1 4f0     1 4f2+    1 5g0     1 5g4+    1 5g2+    1 5g0     1 5g4+    1 5g2+
                                   1 5g0     1 5g4+    1 5g2+    1 5g0     1 5g4+    1 5g2+    1 5g0     1 5g4+    1 5g2+    1 5g0
                                   1 5g4+    1 5g2+    1 5g0     1 5g4+    1 5g2+    1 5g0     1 5g4+    1 5g2+    1 5g0     1 5g4+
                                   1 5g2+    1 6h2+    1 6h4+    1 6h0     1 6h2+    1 6h4+    1 6h0     1 6h2+    1 6h4+    1 6h0
                                   2 1s      2 1s      2 1s      2 1s      2 1s      2 1s      2 2pz     2 2pz     2 2pz     2 3d0
                                   2 3d2+    2 3d0     2 3d2+

   1.1   2     0.1452  -10.3768 -0.000000  0.000001 -0.000003  0.000055  0.000239  0.000744  0.001579  0.003532 -0.001400  0.002109
                                 0.023395  0.503151 -0.115048 -0.150597  0.448971  0.518590  0.351136  0.219157  0.062050 -0.000095
                                -0.000431 -0.001274 -0.003641 -0.058475 -0.657230  0.051362  0.041736 -0.356246 -0.117012 -0.005648
                                 0.003121 -0.001265  0.000000 -0.000000  0.000000 -0.000000  0.000000 -0.000000  0.000001 -0.000002
                                 0.000008 -0.000072 -0.000737 -0.000489  0.019090 -0.024090  0.034392  0.071298  0.030185  0.016934
                                -0.008879  0.000285  0.000953 -0.010537 -0.009697  0.004033  0.027201  0.004337  0.008379 -0.015581
                                -0.001115  0.000383 -0.000000 -0.000000  0.000000  0.000000 -0.000002 -0.000001  0.000009  0.000007
                                -0.000166 -0.000127 -0.001451 -0.001191  0.004865  0.003515 -0.006612 -0.002852  0.003040 -0.001147
                                 0.038008  0.012496  0.000391  0.000305  0.002715  0.002315 -0.004983 -0.004048  0.003962  0.001687
                                 0.026889  0.014307  0.006246  0.001676  0.007176  0.001538 -0.003575 -0.000690  0.000093  0.000488
                                -0.002929 -0.000196  0.000752  0.000089 -0.000041 -0.000024  0.000000  0.000000 -0.000002 -0.000000
                                 0.000023  0.000002  0.000361  0.000030  0.000445  0.000020  0.000874 -0.000041  0.001665 -0.000217
                                 0.000273  0.000036  0.000371  0.000083  0.003428  0.000064  0.000023  0.000051  0.001284  0.000003
                                -0.001526  0.000005 -0.000063 -0.000001  0.000010 -0.000016  0.000015  0.000130  0.000047  0.000087
                                -0.000166 -0.000157 -0.000057  0.000370  0.000571 -0.000329  0.001731  0.001189 -0.000282  0.001518
                                 0.000045 -0.000054 -0.001212  0.000107  0.000006  0.001352 -0.000059 -0.000008 -0.000521  0.000024
                                 0.000004  0.000012  0.000031  0.000035  0.000016  0.000089  0.000035  0.000001 -0.000057 -0.000109
                                 0.001188  0.012919  0.052980  0.123989  0.071611  0.019175 -0.001991 -0.011085 -0.008482  0.001075
                                 0.000004  0.002266  0.000029

   2.1   2     3.5418   -5.4138  0.000000 -0.000000  0.000002 -0.000031 -0.000135 -0.000418 -0.000884 -0.001967  0.000789 -0.002784
                                 0.029134  0.132567  0.264723 -0.583244 -1.973377  0.837608  2.739425  1.497786  0.579205  0.000054
                                 0.000242  0.000715  0.002031 -0.045409 -0.228267  2.092344 -1.675127 -2.716676 -0.813184 -0.021127
                                 0.007203 -0.001528  0.000000 -0.000000  0.000001 -0.000003  0.000004 -0.000005  0.000011 -0.000031
                                 0.000129 -0.001181 -0.012932 -0.018077 -0.125001 -0.156873 -0.475807 -0.127765 -0.138121  0.191317
                                 0.060470  0.004772  0.018628  0.097420  0.155516  0.193152  0.449944 -0.018613 -0.049124  0.058291
                                 0.004787 -0.000839 -0.000001 -0.000016  0.000004  0.000083 -0.000016 -0.000346  0.000088  0.001849
                                -0.001636 -0.034320 -0.015090 -0.315048  0.032231  0.665351 -0.013450 -0.271113 -0.045742 -0.908017
                                 0.001682 -0.649842  0.003919  0.082105  0.029011  0.604117 -0.044325 -0.918355  0.031869  0.634409
                                 0.037239  0.778397 -0.154032  0.788258  0.190658 -0.719488 -0.018678  0.465417  0.022018 -0.258697
                                -0.000632  0.089733  0.001207 -0.037085 -0.000378  0.010418  0.000004  0.000131 -0.000029 -0.001006
                                 0.000281  0.009662  0.001111  0.036627 -0.007890 -0.268667 -0.003571 -0.106412  0.054303  1.648105
                                 0.006545  0.222723  0.015625  0.526768 -0.101926 -1.857493  0.063256  1.240476  0.006672 -0.826053
                                 0.005382  0.412637 -0.000459 -0.131662  0.000101  0.000003  0.000434 -0.000398 -0.000012 -0.001106
                                 0.001217  0.000031  0.004576 -0.003538 -0.000091 -0.009097  0.011844  0.000126  0.042596 -0.038388
                                -0.000370 -0.001038  0.014158  0.000319  0.000428  0.009502 -0.000168 -0.007795  0.001274  0.000055
                                 0.002805 -0.000008 -0.000118 -0.000057 -0.000351 -0.000091 -0.000021 -0.003448 -0.000613 -0.000034
                                -0.000124  0.001067 -0.020627  0.063780 -0.200623 -0.044162  0.003371 -0.066961  0.024336 -0.002783
                                -0.041468  0.037642  0.015606

   3.1   2     3.6927   -4.4327  0.000001 -0.000004  0.000022 -0.000406 -0.001782 -0.005537 -0.011702 -0.026041  0.010448 -0.036972
                                 0.388379  1.790486  3.647260 -8.345891-30.495694 14.771694 35.826347 14.648424  4.003359  0.000711
                                 0.003206  0.009465  0.026880 -0.606432 -3.102422 31.563210-29.133038-23.324622 -7.345888 -0.214714
                                 0.072809 -0.015399 -0.000000  0.000001 -0.000006  0.000018 -0.000024  0.000031 -0.000068  0.000195
                                -0.000798  0.007327  0.080070  0.110914  0.746669  0.915109  3.405068  5.658507-10.642593 12.194073
                                -1.426414 -0.029578 -0.115076 -0.586538 -0.903292 -1.181379 -4.373008  0.598388  1.802353 -1.734734
                                -0.153953  0.026779 -0.000034 -0.000001  0.000178  0.000007 -0.000747 -0.000029  0.003987  0.000155
                                -0.074080 -0.002878 -0.681585 -0.026462  1.447891  0.056158 -0.596600 -0.023151 -1.984506 -0.077201
                                -0.344500 -0.057984  0.177322  0.006888  1.308656  0.050787 -1.994574 -0.077365  1.394325  0.053511
                                 1.625242  0.070298 -3.929758  0.062543  5.923066 -0.053706  0.512733  0.034100 -0.233127 -0.018954
                                -0.050223  0.006641  0.004578 -0.002769 -0.000483  0.000779  0.000135 -0.000004 -0.001038  0.000032
                                 0.009878 -0.000292  0.032362 -0.000528 -0.299792  0.010319 -0.145756  0.005465  1.936686 -0.051730
                                 0.233087 -0.007180  0.564449 -0.017646 -3.276300  0.057473  2.326193 -0.038054  0.347128  0.025470
                                -0.003913 -0.012749 -0.035373  0.004075  0.002202 -0.000021 -0.000031 -0.008441  0.000069  0.000095
                                 0.026607 -0.000262 -0.000324 -0.078609  0.000324  0.000698  0.279582 -0.001720 -0.002750 -0.905640
                                 0.002662  0.002502  0.262620 -0.001880 -0.001801  0.511655  0.000926  0.001279 -0.073594 -0.000293
                                -0.000406 -0.000004 -0.000228  0.000350  0.000025 -0.000160 -0.001120 -0.000216 -0.000288  0.000236
                                -0.002756  0.025788 -0.483454  1.742445 -9.125942  0.741237  0.099817 -1.761325  1.914836 -0.056183
                                 0.001818  0.922913 -0.000876

   4.1   2     5.3801   -2.9181  0.000000 -0.000000  0.000003 -0.000048 -0.000211 -0.000656 -0.001387 -0.003088  0.001241 -0.004425
                                 0.046862  0.216670  0.411077 -0.810912 -1.853823  0.264459  1.666442  1.274483  1.311951  0.000084
                                 0.000380  0.001121  0.003187 -0.073284 -0.369566  2.265357 -0.427306 -2.544637 -1.094424 -0.017532
                                 0.006076 -0.001301 -0.000000  0.000002 -0.000006  0.000019 -0.000026  0.000033 -0.000073  0.000208
                                -0.000852  0.007840  0.086113  0.120864  0.851491  1.061738  3.040383  0.926573 -0.329608  0.076831
                                -0.499685 -0.031714 -0.124246 -0.661266 -1.058950 -1.320044 -2.625651  0.116020  0.686200 -0.191679
                                -0.032358  0.005792  0.000003  0.000005 -0.000015 -0.000026  0.000064  0.000110 -0.000343 -0.000587
                                 0.006385  0.010923  0.058938  0.100620 -0.125293 -0.213024  0.051403  0.086788  0.171706  0.315007
                                 0.050908  0.113923 -0.015298 -0.026161 -0.113315 -0.193333  0.172813  0.294412 -0.123510 -0.217476
                                -0.120339 -0.207542  0.071370 -0.122173 -0.122761  0.109034 -0.119227 -0.070900  0.122618  0.039393
                                 0.047372 -0.013604 -0.007259  0.005598  0.001457 -0.001578 -0.000010 -0.000120  0.000071  0.000865
                                -0.000263 -0.002685  0.020058  0.273590  0.093284  1.232210  0.094397  1.262483 -0.146839 -1.757517
                                -0.026686 -0.340609 -0.087399 -1.128667  0.163667  1.491827 -0.098755 -0.911277 -0.010259  0.601372
                                 0.018095 -0.303666  0.013209  0.097863  0.001767 -0.000089  0.010205 -0.006582  0.000335 -0.037780
                                 0.020335 -0.001030  0.117121 -0.053928  0.002749 -0.308102  0.174201 -0.008813  0.991486 -0.139271
                                 0.007793 -0.876312  0.099791 -0.004599  0.516838 -0.075343  0.002176 -0.244156  0.026789 -0.000690
                                 0.077148  0.000356 -0.000109 -0.000016 -0.001878 -0.000235  0.000008  0.007119 -0.000128 -0.000506
                                 0.000073  0.000851  0.024037 -0.082327  0.360467 -0.553892 -0.020438  0.069684 -0.082309 -0.016599
                                -0.008024 -0.018677  0.001754

   5.1   +     5.2117   -0.6551  0.000002 -0.000011  0.000060 -0.001097 -0.004813 -0.014954 -0.031619 -0.070417  0.028295 -0.101298
                                 1.081481  5.136283  9.881101-20.482843-52.224256 11.393900 16.802232  6.768846 -3.452828  0.001920
                                 0.008658  0.025568  0.072668 -1.697377 -8.820252 61.554473-15.714878 -7.032186 -1.918440 -0.185579
                                 0.065089 -0.014008 -0.000010  0.000039 -0.000158  0.000478 -0.000641  0.000837 -0.001816  0.005194
                                -0.021305  0.196175  2.155759  3.027832 21.363818 26.743369 80.517780 29.575672-19.578543 17.044479
                                -7.784774 -0.793718 -3.111132-16.583505-26.645949-34.059910-71.472236  2.827415  8.265847 -8.421025
                                -0.728490  0.127302  0.000011 -0.000000 -0.000057  0.000001  0.000240 -0.000004 -0.001287  0.000020
                                 0.024140 -0.000379  0.226385 -0.003534 -0.501908  0.007693  0.225699 -0.003209  0.889026 -0.010885
                                 1.191700 -0.004427 -0.058057  0.000910 -0.438989  0.006832  0.681912 -0.010531 -0.560423  0.007580
                                -0.973012  0.008632 -2.441602  0.003592  3.871486 -0.002832  1.119487  0.001654 -1.137984 -0.000916
                                -0.351427  0.000329  0.045825 -0.000140 -0.008298  0.000040  0.000074 -0.000003 -0.000533  0.000023
                                 0.001427 -0.000035 -0.181189  0.008941 -0.806414  0.037908 -0.846628  0.039021  1.295920 -0.052933
                                 0.217666 -0.009801  0.736406 -0.033234 -1.304900  0.045019  1.136107 -0.027534  0.636463  0.018084
                                -0.398877 -0.009136 -0.036491  0.002947 -0.004532 -0.000077  0.000146  0.016829  0.000302 -0.000519
                                -0.051663 -0.000847  0.001626  0.132148  0.002401 -0.004107 -0.386964 -0.007519  0.014092  0.410652
                                 0.006563 -0.012502 -0.438319 -0.003860  0.007294  0.677474  0.001829 -0.003536 -0.232537 -0.000581
                                 0.001105  0.000025  0.000199 -0.000396 -0.000119 -0.000135  0.001821 -0.000064  0.000008 -0.006512
                                 0.000227 -0.021844 -0.022194  0.592381 -7.887019  4.540289  0.261994 -0.438616  2.247763 -0.193392
                                -0.000563  0.129269  0.000350

   6.1   +     5.2906    0.0484  0.000003 -0.000020  0.000106 -0.001946 -0.008535 -0.026516 -0.056058 -0.124808  0.050123 -0.179545
                                 1.919151  9.144212 17.343324-35.803809-88.033516 16.908174 51.723784 34.185938  3.940787  0.003405
                                 0.015352  0.045333  0.128811 -3.012163-15.657982105.490370-23.664419-69.044682-13.711202 -0.502570
                                 0.173311 -0.037006 -0.000004  0.000016 -0.000066  0.000199 -0.000267  0.000349 -0.000756  0.002164
                                -0.008874  0.081714  0.897998  1.261621  8.917828 11.137954 32.821500 10.009493 -3.960175 -2.275583
                                -4.646733 -0.330616 -1.296049 -6.919367-11.117591-14.113885-28.168562  1.717835  4.511918 -5.668786
                                -0.426887  0.073322 -0.000013 -0.000002  0.000065  0.000010 -0.000273 -0.000040  0.001461  0.000214
                                -0.027172 -0.003988 -0.250144 -0.036921  0.526793  0.079107 -0.209296 -0.032626 -0.651242 -0.113476
                                -0.613048 -0.042805  0.065060  0.009562  0.480011  0.071113 -0.728942 -0.108849  0.482278  0.079131
                                 0.516056  0.082406  1.366732  0.039490 -3.924090 -0.032861  0.141155  0.020728 -0.623970 -0.011553
                                -0.519147  0.004068  0.103730 -0.001702 -0.023557  0.000481 -0.000081  0.000002  0.000583 -0.000011
                                -0.001730  0.000043  0.189107 -0.002951  0.850741 -0.014008  0.881901 -0.014589 -1.395822  0.018325
                                -0.233589  0.004128 -0.781241  0.013270  1.332062 -0.015271 -1.733347  0.009367  0.048490 -0.006054
                                -0.259097  0.003058 -0.062829 -0.000987 -0.013423  0.000103  0.000115  0.051207 -0.000419 -0.000456
                                -0.157122  0.001352  0.001236  0.434878 -0.004539 -0.003703 -1.448274  0.010808  0.011053  1.430082
                                -0.008505 -0.009697 -1.047604  0.004889  0.005733  0.185502 -0.002303 -0.002562 -0.129410  0.000730
                                 0.000825  0.000006 -0.000110 -0.000030 -0.000140  0.000008 -0.000115  0.000114 -0.000065 -0.005551
                                 0.000029 -0.050896 -0.170102  0.414061  7.402624  4.752432  0.705040 -0.680076 -2.249535  0.102839
                                 0.000537 -0.003661 -0.000431

   7.1   0    -0.2454   -5.7989 -0.000000  0.000000 -0.000001  0.000021  0.000092  0.000286  0.000607  0.001360 -0.000539  0.000774
                                 0.010036  0.203774 -0.041582 -0.066212  0.163323  0.199913  0.305705  0.438851  0.486710 -0.000037
                                -0.000166 -0.000490 -0.001401 -0.024422 -0.266960  0.032564  0.031065 -0.348436 -0.510197 -0.010757
                                 0.006868 -0.002566 -0.000000  0.000000 -0.000000  0.000000 -0.000000  0.000000 -0.000001  0.000002
                                -0.000009  0.000078  0.000818  0.000713 -0.013252  0.021927 -0.015660 -0.038418  0.017614  0.061592
                                 0.099773 -0.000312 -0.001094  0.006775  0.005614 -0.007542 -0.044931 -0.032935 -0.109910  0.131173
                                 0.009488 -0.002180  0.000000 -0.000000 -0.000001  0.000000  0.000003 -0.000000 -0.000015  0.000002
                                 0.000272 -0.000034  0.002561 -0.000317 -0.006593  0.000944  0.003123 -0.000731  0.002698 -0.000405
                                -0.005111  0.003680 -0.000654  0.000081 -0.005017  0.000618  0.008316 -0.001085 -0.001298  0.000369
                                -0.013038  0.003908  0.016768  0.000835  0.020984  0.000597  0.043937 -0.000029 -0.021763  0.000128
                                 0.022841 -0.000046 -0.005216  0.000022  0.001347 -0.000006 -0.000000  0.000000  0.000001 -0.000000
                                -0.000017  0.000000 -0.000495  0.000002 -0.001246  0.000001 -0.001741 -0.000001 -0.002695 -0.000111
                                 0.000002 -0.000011  0.000484 -0.000024  0.006743  0.000134  0.009404  0.000151  0.014634  0.000053
                                -0.004768  0.000022  0.004120 -0.000005 -0.000003 -0.000005  0.000006  0.000056  0.000018  0.000032
                                -0.000099 -0.000049 -0.000018  0.000190  0.000388 -0.000112  0.000581  0.000613 -0.000125  0.002387
                                 0.000069  0.000046  0.001626  0.000066  0.000047  0.002758 -0.000022  0.000024  0.000953  0.000012
                                 0.000023 -0.000010 -0.000030 -0.000021 -0.000022 -0.000078 -0.000079  0.000016 -0.000001  0.000205
                                -0.003876 -0.042768 -0.182380 -0.445597 -0.550741 -0.166717 -0.004137 -0.026217 -0.019621  0.001025
                                 0.000013 -0.002748  0.000187

   8.1   0    -0.0127   -1.9310 -0.000000  0.000000 -0.000000  0.000003  0.000015  0.000045  0.000096  0.000214 -0.000085  0.000171
                                 0.000302  0.019672 -0.012267  0.008584  0.074145 -0.008392 -0.768306 -1.225585 -4.620603 -0.000006
                                -0.000026 -0.000078 -0.000221 -0.001484 -0.024269 -0.054654  0.124534  1.891022  2.408640  0.290555
                                 0.301212  0.116695 -0.000000  0.000000 -0.000000  0.000001 -0.000001  0.000001 -0.000002  0.000006
                                -0.000023  0.000214  0.002303  0.002820  0.003658  0.036439  0.038799  0.001091 -0.086274  0.278786
                                 0.103595 -0.000861 -0.003235 -0.005920 -0.013319 -0.027116 -0.085936  0.348407 -0.830427 -0.805422
                                 0.235866  0.145641  0.000000 -0.000000 -0.000000  0.000000  0.000001 -0.000000 -0.000007  0.000000
                                 0.000124 -0.000006  0.001157 -0.000055 -0.003054  0.000165  0.001810 -0.000122  0.001292 -0.000073
                                -0.005730  0.000681 -0.000297  0.000014 -0.002256  0.000108  0.003771 -0.000191 -0.001100  0.000055
                                -0.007122  0.000652 -0.002037  0.000223  0.077473  0.000141  0.168139 -0.000030 -0.363416 -0.000147
                                -0.155502 -0.000311  0.221232 -0.000193  0.052449 -0.000096 -0.000000 -0.000000  0.000001  0.000000
                                -0.000009 -0.000000 -0.000239 -0.000000 -0.000561  0.000003 -0.000840  0.000020 -0.001327  0.000009
                                -0.000022 -0.000010  0.000157 -0.000025  0.001435  0.000076  0.016816  0.000105  0.060996 -0.000098
                                -0.108508 -0.000091  0.067741 -0.000319  0.000004 -0.000000  0.000001 -0.000014  0.000003  0.000004
                                 0.000038 -0.000006 -0.000001 -0.000097  0.000084 -0.000014  0.000395  0.000120 -0.000025 -0.000045
                                 0.000010  0.000032  0.002954 -0.000006  0.000003  0.007290 -0.000018  0.000035  0.003758 -0.000016
                                -0.000162 -0.000007 -0.000022 -0.000018 -0.000012 -0.000057 -0.000044  0.000012  0.000005  0.000114
                                -0.000697 -0.007550 -0.035628 -0.090726 -0.496259  2.901873  0.001235  0.012707  0.228827  0.000335
                                 0.000005 -0.003602  0.000023

                                   1 2px     1 2px     1 2px     1 2px     1 2px     1 2px     1 2px     1 2px     1 2px     1 2px
                                   1 2px     1 2px     1 2px     1 2px     1 2px     1 2px     1 2px     1 2px     1 2px     1 2px
                                   1 2px     1 2px     1 2px     1 2px     1 2px     1 2px     1 2px     1 2px     1 2px     1 2px
                                   1 3d1+    1 3d1+    1 3d1+    1 3d1+    1 3d1+    1 3d1+    1 3d1+    1 3d1+    1 3d1+    1 3d1+
                                   1 3d1+    1 3d1+    1 3d1+    1 3d1+    1 3d1+    1 3d1+    1 3d1+    1 3d1+    1 3d1+    1 3d1+
                                   1 3d1+    1 3d1+    1 4f1+    1 4f3+    1 4f1+    1 4f3+    1 4f1+    1 4f3+    1 4f1+    1 4f3+
                                   1 4f1+    1 4f3+    1 4f1+    1 4f3+    1 4f1+    1 4f3+    1 4f1+    1 4f3+    1 4f1+    1 4f3+
                                   1 4f1+    1 4f3+    1 4f1+    1 4f3+    1 4f1+    1 4f3+    1 4f1+    1 4f3+    1 4f1+    1 4f3+
                                   1 5g1+    1 5g3+    1 5g1+    1 5g3+    1 5g1+    1 5g3+    1 5g1+    1 5g3+    1 5g1+    1 5g3+
                                   1 5g1+    1 5g3+    1 5g1+    1 5g3+    1 5g1+    1 5g3+    1 5g1+    1 5g3+    1 6h1+    1 6h3+
                                   1 6h5+    1 6h1+    1 6h3+    1 6h5+    1 6h1+    1 6h3+    1 6h5+    2 2px     2 2px     2 2px
                                   2 3d1+    2 3d1+

   1.2   2     5.3984   -3.2853  0.000001 -0.000002  0.000008 -0.000025  0.000034 -0.000045  0.000097 -0.000277  0.001137 -0.010467
                                -0.114932 -0.161175 -1.134027 -1.407120 -4.292116 -1.540146  0.917976 -0.551150  0.503814  0.042337
                                 0.165774  0.880766  1.407629  1.798788  3.807440 -0.159152 -0.589873  0.422426  0.041755 -0.007335
                                 0.000003 -0.000015  0.000062 -0.000330  0.006135  0.056214 -0.117435  0.047163  0.166662  0.011787
                                -0.014675 -0.107698  0.163037 -0.119815 -0.085372  0.031233  0.055759 -0.065197  0.040056 -0.014245
                                 0.005918 -0.001670 -0.000067 -0.000105  0.000487  0.000759 -0.001538 -0.002330  0.152605  0.241300
                                 0.689712  1.086635  0.705707  1.121183 -0.992116 -1.527327 -0.191910 -0.299574 -0.634143 -0.995170
                                 0.854851  1.293468 -0.451187 -0.789784  0.292600  0.521450 -0.150240 -0.263312  0.048863  0.084882
                                 0.006358  0.004763 -0.023552 -0.017473  0.073004  0.054573 -0.192280 -0.142381  0.618109  0.461650
                                -0.550664 -0.408206  0.377520  0.240080 -0.185084 -0.113063  0.054888  0.035710  0.000169  0.000375
                                 0.000163 -0.001152 -0.000653  0.000209  0.002910  0.003241  0.000586  0.030518 -0.070811 -0.014106
                                -0.012792  0.073049

   2.2   +     3.2493   -5.5699 -0.000000  0.000001 -0.000004  0.000012 -0.000016  0.000021 -0.000046  0.000132 -0.000540  0.004964
                                 0.054322  0.075518  0.511910  0.644936  2.064426  1.155901 -0.830531  0.527679 -0.564577 -0.020050
                                -0.078161 -0.401300 -0.630541 -0.816750 -2.111016  0.167782  0.637685 -0.450388 -0.043633  0.007619
                                -0.000006  0.000031 -0.000131  0.000697 -0.012928 -0.118629  0.250295 -0.101607 -0.335308 -0.203268
                                 0.030925  0.227425 -0.345575  0.236321  0.279959  0.199991 -0.268822  0.143408 -0.097926  0.035836
                                -0.015029  0.004243  0.000036  0.000125 -0.000274 -0.000957  0.002670  0.009104  0.011802  0.030325
                                -0.067637 -0.268822 -0.025323 -0.109984  0.434768  1.618955  0.059070  0.214143  0.139637  0.508760
                                -0.498934 -1.832373  0.263499  1.225742 -0.207175 -0.811553  0.092052  0.405124 -0.029332 -0.129220
                                 0.000087  0.000283 -0.000166 -0.000692  0.000923  0.002975 -0.001591 -0.005764  0.010846  0.028289
                                 0.006180 -0.006725 -0.049313  0.002652  0.015133 -0.002880 -0.011370  0.001393 -0.000032  0.000236
                                 0.000174 -0.000083  0.000113  0.000340 -0.000499 -0.002864 -0.000372 -0.005140  0.036236  0.102527
                                 0.020653 -0.082150

   3.2   +     3.2737   -5.3921 -0.000000  0.000002 -0.000007  0.000021 -0.000028  0.000037 -0.000080  0.000229 -0.000940  0.008641
                                 0.094601  0.131767  0.902524  1.130928  3.464792  1.512521 -0.961537  0.995034 -0.812004 -0.034907
                                -0.136175 -0.705674 -1.113903 -1.416828 -3.327270  0.305426  1.081575 -0.798705 -0.080637  0.014191
                                 0.000029 -0.000149  0.000625 -0.003335  0.061911  0.568392 -1.200782  0.488355  1.616725  0.986725
                                -0.148116 -1.090017  1.657279 -1.135456 -1.357344 -0.994179  1.214917 -0.663010  0.438245 -0.159517
                                 0.066879 -0.018877 -0.000125  0.000033  0.000961 -0.000256 -0.009103  0.002352 -0.028304  0.003755
                                 0.278027 -0.085585  0.122731 -0.039694 -1.622966  0.467822 -0.216604  0.060370 -0.517815  0.145352
                                 1.849096 -0.527408 -0.976128  0.352020  0.772231 -0.232998 -0.341493  0.116325  0.108749 -0.037110
                                -0.000232  0.000067  0.000258 -0.000141 -0.002413  0.000695  0.003849 -0.001361 -0.032974  0.007081
                                -0.043407  0.000255  0.192824 -0.000885 -0.058530  0.000006  0.044345  0.000134  0.000086  0.000020
                                -0.000022  0.000932 -0.000059  0.000066  0.003462 -0.001034  0.000360  0.019624 -0.127387 -0.391071
                                -0.089256  0.304320

   4.2   0     0.0026   -1.1153 -0.000000  0.000000 -0.000000  0.000001 -0.000001  0.000001 -0.000002  0.000006 -0.000024  0.000224
                                 0.002447  0.003477  0.027844  0.022497  0.081707  0.063557 -0.068256  0.134416 -0.494948 -0.000904
                                -0.003527 -0.021012 -0.029885 -0.030716 -0.067363  1.682736  1.285484 -1.769752 -1.292130  1.345037
                                -0.000000  0.000001 -0.000005  0.000028 -0.000518 -0.004696  0.009710 -0.003755 -0.011034 -0.009798
                                 0.001234  0.008953 -0.013480  0.008101  0.009116  0.029216 -0.061661  0.065106 -0.084709  0.235088
                                -0.169736  0.553685 -0.000000 -0.000000  0.000001  0.000000 -0.000008  0.000001  0.000056  0.000106
                                 0.000512  0.000384  0.000162  0.000521 -0.002199  0.000814 -0.000269 -0.000062 -0.000595 -0.000301
                                 0.003929 -0.000016 -0.013666  0.000207  0.010095 -0.000290 -0.013958  0.000144  0.125485 -0.000438
                                 0.000019  0.000000 -0.000075  0.000001  0.000205 -0.000000 -0.000502  0.000002  0.001239 -0.000004
                                -0.002896  0.000003  0.006688 -0.000038 -0.019477  0.000012  0.030272 -0.000137 -0.000001  0.000000
                                -0.000000  0.000004 -0.000010  0.000008  0.000045 -0.000026  0.000049  0.000952  0.006488  0.063351
                                 0.000194  0.001116

   5.2   0     0.0107   -1.1197 -0.000000  0.000000 -0.000001  0.000002 -0.000003  0.000003 -0.000007  0.000020 -0.000084  0.000768
                                 0.008341  0.011338  0.069469  0.096339  0.236799  0.155729 -0.260075  0.454296 -1.320108 -0.003092
                                -0.011931 -0.055835 -0.087036 -0.103728 -0.257073  4.877597  3.658162 -5.335563 -4.383637  2.396963
                                 0.000000 -0.000000  0.000002 -0.000008  0.000152  0.001389 -0.002958  0.001194  0.003267  0.002728
                                -0.000363 -0.002658  0.004053 -0.002322 -0.003084 -0.011072  0.028135  0.018100 -0.032613 -0.135373
                                -0.104584 -0.329489  0.000000  0.000000 -0.000001 -0.000000  0.000010 -0.000002 -0.000056 -0.000153
                                -0.000556 -0.000557 -0.000095 -0.000754  0.002852 -0.001172  0.000311  0.000090  0.000651  0.000437
                                -0.004810  0.000012  0.017016 -0.000277 -0.009001  0.000338  0.007175 -0.000073 -0.165940  0.000350
                                -0.000026 -0.000000  0.000102 -0.000001 -0.000281  0.000000  0.000685 -0.000002 -0.001699  0.000004
                                 0.003986 -0.000003 -0.009303  0.000051  0.027189 -0.000010 -0.043287  0.000185  0.000001 -0.000001
                                 0.000000 -0.000005  0.000014 -0.000011 -0.000065  0.000038 -0.000071 -0.001331 -0.009553 -0.090097
                                -0.000300 -0.001707

                                   1 2py     1 2py     1 2py     1 2py     1 2py     1 2py     1 2py     1 2py     1 2py     1 2py
                                   1 2py     1 2py     1 2py     1 2py     1 2py     1 2py     1 2py     1 2py     1 2py     1 2py
                                   1 2py     1 2py     1 2py     1 2py     1 2py     1 2py     1 2py     1 2py     1 2py     1 2py
                                   1 3d1-    1 3d1-    1 3d1-    1 3d1-    1 3d1-    1 3d1-    1 3d1-    1 3d1-    1 3d1-    1 3d1-
                                   1 3d1-    1 3d1-    1 3d1-    1 3d1-    1 3d1-    1 3d1-    1 3d1-    1 3d1-    1 3d1-    1 3d1-
                                   1 3d1-    1 3d1-    1 4f1-    1 4f3-    1 4f1-    1 4f3-    1 4f1-    1 4f3-    1 4f1-    1 4f3-
                                   1 4f1-    1 4f3-    1 4f1-    1 4f3-    1 4f1-    1 4f3-    1 4f1-    1 4f3-    1 4f1-    1 4f3-
                                   1 4f1-    1 4f3-    1 4f1-    1 4f3-    1 4f1-    1 4f3-    1 4f1-    1 4f3-    1 4f1-    1 4f3-
                                   1 5g1-    1 5g3-    1 5g1-    1 5g3-    1 5g1-    1 5g3-    1 5g1-    1 5g3-    1 5g1-    1 5g3-
                                   1 5g1-    1 5g3-    1 5g1-    1 5g3-    1 5g1-    1 5g3-    1 5g1-    1 5g3-    1 6h1-    1 6h3-
                                   1 6h5-    1 6h1-    1 6h3-    1 6h5-    1 6h1-    1 6h3-    1 6h5-    2 2py     2 2py     2 2py
                                   2 3d1-    2 3d1-

   1.3   2     3.5365   -5.3607 -0.000000  0.000001 -0.000003  0.000009 -0.000012  0.000016 -0.000035  0.000099 -0.000406  0.003733
                                 0.040844  0.056804  0.385972  0.482744  1.542656  0.880124 -0.634475  0.397316 -0.428404 -0.015076
                                -0.058772 -0.302394 -0.474131 -0.607883 -1.582615  0.126400  0.481547 -0.339619 -0.032845  0.005732
                                -0.000005  0.000027 -0.000112  0.000596 -0.011064 -0.101523  0.214202 -0.086966 -0.287162 -0.175637
                                 0.026466  0.194631 -0.295744  0.202313  0.240150  0.174066 -0.230614  0.123802 -0.083993  0.030697
                                -0.012867  0.003631  0.000030 -0.000126 -0.000228  0.000971  0.002221 -0.009305  0.010282 -0.034233
                                -0.054780  0.261895 -0.019127  0.102622  0.361170 -1.621335  0.049395 -0.215176  0.115718 -0.508924
                                -0.416657  1.843130  0.220588 -1.234798 -0.173296  0.817697  0.077025 -0.408160 -0.024539  0.130175
                                 0.000067 -0.000276 -0.000110  0.000655  0.000701 -0.002894 -0.001134  0.005407  0.008453 -0.027628
                                 0.006284  0.005101 -0.041942 -0.001410  0.013041  0.002279 -0.009607 -0.001209 -0.000234 -0.000059
                                 0.000092 -0.000420  0.000049  0.000010 -0.000786  0.002380  0.000497 -0.004189  0.030144  0.085383
                                 0.017071 -0.068386

   2.3   +     5.0764   -2.9973  0.000001 -0.000005  0.000020 -0.000060  0.000081 -0.000106  0.000229 -0.000655  0.002685 -0.024720
                                -0.271497 -0.380956 -2.682059 -3.338309 -9.988401 -3.484395  2.018211 -1.275672  1.180860  0.099993
                                 0.391681  2.082924  3.333911  4.230570  8.807286 -0.378820 -1.397628  1.003820  0.099490 -0.017487
                                 0.000001 -0.000004  0.000015 -0.000078  0.001432  0.012695 -0.024536  0.008701  0.034101 -0.021387
                                -0.003400 -0.023907  0.034987 -0.024938 -0.000922  0.038382  0.071749 -0.093088  0.051717 -0.017847
                                 0.007366 -0.002070 -0.000040  0.000108  0.000286 -0.000780 -0.000936  0.002350  0.087936 -0.250470
                                 0.398980 -1.124131  0.407046 -1.157076 -0.582609  1.596895 -0.111316  0.309366 -0.367418  1.027238
                                 0.496177 -1.355479 -0.224195  0.828047  0.138651 -0.546640 -0.077508  0.275975  0.025702 -0.088947
                                 0.009414 -0.006705 -0.035337  0.024804  0.108732 -0.077022 -0.291173  0.202814  0.929266 -0.652666
                                -0.846508  0.577042  0.554306 -0.339850 -0.265684  0.160312  0.076562 -0.050694  0.000114 -0.000282
                                 0.000025 -0.001694  0.000815  0.000181  0.005846 -0.004276  0.000079  0.069670 -0.101827  0.005798
                                -0.072494  0.086503

   3.3   +     5.1711   -3.9342 -0.000002  0.000009 -0.000035  0.000107 -0.000143  0.000187 -0.000406  0.001161 -0.004761  0.043839
                                 0.481650  0.676065  4.763120  5.939553 17.334729  5.721902 -3.215322  2.220744 -2.143817 -0.177359
                                -0.694952 -3.699394 -5.922962 -7.475339-15.032764  0.693005  2.552497 -1.835476 -0.182050  0.032001
                                 0.000009 -0.000048  0.000200 -0.001068  0.019879  0.183268 -0.388065  0.157691  0.536937  0.108223
                                -0.047619 -0.352197  0.536336 -0.388416 -0.317115 -0.020108  0.073423 -0.057355  0.040735 -0.015180
                                 0.006393 -0.001819 -0.000122 -0.000045  0.000886  0.000324 -0.002813 -0.001002  0.277198  0.102846
                                 1.254320  0.463842  1.292182  0.481881 -1.743875 -0.631646 -0.345843 -0.127327 -1.151174 -0.424895
                                 1.502848  0.532117 -0.851699 -0.324483  0.560192  0.214306 -0.279390 -0.108270  0.090169  0.034918
                                 0.003091  0.001130 -0.010698 -0.004028  0.034511  0.012813 -0.083270 -0.032330  0.279923  0.108012
                                -0.223027 -0.095634  0.185902  0.056011 -0.100140 -0.026250  0.032562  0.008262  0.000133  0.000041
                                -0.000122 -0.001228 -0.000249 -0.000143 -0.001758  0.000105 -0.000296 -0.020168 -0.034860 -0.037656
                                 0.073871  0.058160

   4.3   0     0.0026   -1.1099 -0.000000  0.000000 -0.000000  0.000001 -0.000001  0.000001 -0.000002  0.000006 -0.000025  0.000226
                                 0.002461  0.003480  0.027258  0.023262  0.080965  0.061401 -0.069491  0.133399 -0.494791 -0.000910
                                -0.003544 -0.020661 -0.029713 -0.030561 -0.068761  1.680749  1.283539 -1.767738 -1.289990  1.344627
                                -0.000000  0.000001 -0.000005  0.000028 -0.000518 -0.004696  0.009706 -0.003752 -0.011034 -0.009864
                                 0.001234  0.008953 -0.013477  0.008108  0.009099  0.029076 -0.061645  0.065199 -0.084890  0.235000
                                -0.169259  0.553651 -0.000000  0.000000  0.000001 -0.000000 -0.000010  0.000002  0.000045 -0.000018
                                 0.000536 -0.000179  0.000209 -0.000281 -0.002055 -0.000470 -0.000294  0.000067 -0.000663  0.000234
                                 0.003895 -0.000038 -0.013651 -0.000163  0.010161 -0.000035 -0.014090 -0.000040  0.125406 -0.000322
                                 0.000019 -0.000000 -0.000075 -0.000000  0.000205 -0.000001 -0.000500  0.000002  0.001234 -0.000001
                                -0.002899  0.000008  0.006645 -0.000033 -0.019391  0.000017  0.030157 -0.000122 -0.000001 -0.000000
                                -0.000000  0.000002  0.000004  0.000002  0.000032  0.000010  0.000035  0.000936  0.006336  0.062657
                                 0.000200  0.001145

   5.3   0     0.0107   -1.1042 -0.000000  0.000000 -0.000001  0.000002 -0.000003  0.000003 -0.000007  0.000020 -0.000084  0.000766
                                 0.008318  0.011332  0.070402  0.095141  0.238071  0.159128 -0.258256  0.456076 -1.321390 -0.003083
                                -0.011904 -0.056390 -0.087333 -0.103952 -0.254983  4.883482  3.663771 -5.341199 -4.386850  2.398010
                                 0.000000 -0.000000  0.000002 -0.000009  0.000161  0.001471 -0.003121  0.001254  0.003462  0.003009
                                -0.000385 -0.002814  0.004284 -0.002478 -0.003212 -0.011352  0.029096  0.015766 -0.029132 -0.138468
                                -0.098311 -0.338379  0.000000 -0.000000 -0.000001  0.000000  0.000012 -0.000003 -0.000043  0.000026
                                -0.000602  0.000253 -0.000176  0.000399  0.002634  0.000673  0.000349 -0.000095  0.000760 -0.000330
                                -0.004775  0.000046  0.017039  0.000263 -0.009365 -0.000024  0.007986  0.000200 -0.166167  0.000194
                                -0.000026  0.000000  0.000102  0.000000 -0.000278  0.000002  0.000681 -0.000003 -0.001687  0.000001
                                 0.003979 -0.000011 -0.009204  0.000044  0.026967 -0.000018 -0.042997  0.000164  0.000001  0.000000
                                 0.000000 -0.000003 -0.000005 -0.000003 -0.000046 -0.000015 -0.000049 -0.001296 -0.009271 -0.088514
                                -0.000309 -0.001734

                                   1 3d2-    1 3d2-    1 3d2-    1 3d2-    1 3d2-    1 3d2-    1 3d2-    1 3d2-    1 3d2-    1 3d2-
                                   1 3d2-    1 3d2-    1 3d2-    1 3d2-    1 3d2-    1 3d2-    1 3d2-    1 3d2-    1 3d2-    1 3d2-
                                   1 3d2-    1 3d2-    1 4f2-    1 4f2-    1 4f2-    1 4f2-    1 4f2-    1 4f2-    1 4f2-    1 4f2-
                                   1 4f2-    1 4f2-    1 4f2-    1 4f2-    1 4f2-    1 4f2-    1 5g2-    1 5g4-    1 5g2-    1 5g4-
                                   1 5g2-    1 5g4-    1 5g2-    1 5g4-    1 5g2-    1 5g4-    1 5g2-    1 5g4-    1 5g2-    1 5g4-
                                   1 5g2-    1 5g4-    1 5g2-    1 5g4-    1 6h4-    1 6h2-    1 6h4-    1 6h2-    1 6h4-    1 6h2-
                                   2 3d2-    2 3d2-

   1.4   +     5.1564   -3.9966  0.000005 -0.000024  0.000102 -0.000545  0.010144  0.093395 -0.197564  0.080794  0.292690  0.098169
                                -0.024292 -0.179425  0.273144 -0.204535 -0.182318 -0.107278  0.094889 -0.063866  0.035710 -0.012341
                                 0.005074 -0.001431 -0.000129  0.000933 -0.002900  0.295046  1.331268  1.374486 -1.824211 -0.365674
                                -1.219084  1.537250 -0.940297  0.617778 -0.312115  0.100656  0.005481 -0.000022 -0.019856  0.000080
                                 0.062558 -0.000256 -0.160614  0.000642  0.527480 -0.002196 -0.465568  0.001959  0.272479 -0.001155
                                -0.132108  0.000546  0.041354 -0.000173 -0.000144  0.000601 -0.000424 -0.001324 -0.000150  0.003440
                                -0.019218  0.011984

   2.4   0     0.0118   -0.8226 -0.000001  0.000004 -0.000018  0.000096 -0.001765 -0.016005  0.032885 -0.012599 -0.037898 -0.034664
                                 0.004210  0.030496 -0.045795  0.027982  0.030312  0.095772 -0.189056  0.357698 -0.493850  0.681007
                                -1.164799  1.635163 -0.000000  0.000001 -0.000007  0.000089  0.000642  0.000488 -0.001134 -0.000274
                                -0.000727  0.003044 -0.009319  0.023475 -0.046331  0.083766  0.000005 -0.000000 -0.000018  0.000000
                                 0.000050 -0.000000 -0.000122  0.000001  0.000285 -0.000002 -0.000655  0.000006  0.001392 -0.000018
                                -0.003284  0.000028  0.006881 -0.000071 -0.000000 -0.000000 -0.000000  0.000000  0.000000 -0.000001
                                -0.000024  0.000622

   3.4   0     0.0329   -1.1844 -0.000002  0.000009 -0.000038  0.000202 -0.003726 -0.033789  0.069412 -0.026599 -0.080312 -0.073710
                                 0.008887  0.064381 -0.096672  0.059250  0.064184  0.203434 -0.399997  0.774054 -1.084265  1.592553
                                -2.903368  1.451818  0.000000 -0.000003  0.000023 -0.000283 -0.002023 -0.001545  0.003576  0.000860
                                 0.002287 -0.009706  0.030624 -0.078602  0.158654 -0.358603 -0.000024  0.000000  0.000092 -0.000001
                                -0.000253  0.000002  0.000625 -0.000006 -0.001464  0.000011  0.003368 -0.000027 -0.007163  0.000075
                                 0.016594 -0.000107 -0.036461  0.000308  0.000000  0.000000  0.000000 -0.000002  0.000000  0.000006
                                 0.000105 -0.002937

 HOMO      6.1     5.290641 =     143.9657eV
 LUMO      7.1    -0.245447 =      -6.6789eV
 LUMO-HOMO        -5.536087 =    -150.6446eV

 No convergence



 **********************************************************************************************************************************
 DATASETS  * FILE   NREC   LENGTH (MB)   RECORD NAMES
              1      19       22.63       500      610      700      900      950      970     1000      129      960     1100
                                          VAR    BASINP    GEOM    SYMINP    ZMAT    AOBASIS   BASIS     P2S    ABASIS      S
                                         1400     1410     1420     1200     1210     1080     1600     1650     1700
                                           T        V       ECP      H0       H01     AOSYM     SMH    MOLCAS    OPER

              2       4        4.60       700     1000      520     3202
                                         GEOM     BASIS   MCVARS     RHF

 PROGRAMS   *        TOTAL       RHF       INT
 CPU TIMES  *       219.23    101.94    116.84
 REAL TIME  *       255.12 SEC
 DISK USED  *        13.31 GB
 SF USED    *         0.25 MB
 GA USED    *         0.00 MB       (max)       0.00 MB       (current)
 **********************************************************************************************************************************
   -->
   <time start="13:54:11" end="13:58:26" cpu="219.23" system="22.16" real="255.12"/>
   <storage units="megabyte" memory="8001.84" sf="0.25" df="400.41" eaf="12907.89" ga="0.0"/>
  </jobstep><!--
  --><jobstep command="RHF-SCF" commandset="SCFPRO">
   <!--


 PROGRAM * RHF-SCF (OPEN SHELL)       Authors: W. Meyer, H.-J. Werner


 NUMBER OF ELECTRONS:      13+    6-    SPACE SYMMETRY=4    SPIN SYMMETRY: Octet
 CONVERGENCE THRESHOLDS:    1.00E-05 (Density)    1.00E-07 (Energy)
 MAX. NUMBER OF ITERATIONS:      200
 INTERPOLATION TYPE:            DIIS
 INTERPOLATION STEPS:              2 (START)      1 (STEP)
 LEVEL SHIFTS:                 -0.60 (CLOSED) -0.30 (OPEN)

 Number of closed-shell orbitals:    6 (   4   1   1   0 )
 Number of open-shell orbitals:      7 (   2   2   2   1 )



 Extra symmetries of mos in symmetry 1:   1   1   2   1   1   1
 Molecular orbitals read from record     3202.2  Type=RHF/CANONICAL (state 1.4)

 Molecular orbital dump at record        2101.2

 ITERATION    DDIFF          GRAD             ENERGY        2-EL.EN.            DIPOLE MOMENTS         DIIS   ORB.
    1      0.000D+00      0.000D+00       -72.87843051    145.208130    0.00000    0.00000    2.42156    0    start
    2      0.000D+00      0.111D+00       -97.57459920    270.973775    0.00000    0.00000    0.98136    1    diag,B
    3      0.130D+03      0.804D-01       -91.59997363     83.393581    0.00000    0.00000   -6.18645    2    diag,B
    4      0.445D+00      0.694D-01      -105.46318147    242.405439    0.00000    0.00000    1.57951    3    diag,B
    5      0.744D-01      0.429D-01      -106.76990111    227.692516    0.00000    0.00000    1.57944    4    diag,B
    6      0.352D-01      0.335D-01      -107.10140485    224.455018    0.00000    0.00000    1.35859    5    diag,B
    7      0.396D-02      0.282D-01      -107.90846641    179.550896    0.00000    0.00000    0.52540    6    diag,B
    8      0.414D-01      0.440D-02      -107.99731839    181.488327    0.00000    0.00000   -0.07688    7    orth
    9      0.570D-02      0.212D-02      -108.06194703    183.670737    0.00000    0.00000   -0.36486    8    diag,B
   10      0.690D-02      0.198D-02      -108.07923849    184.287169    0.00000    0.00000   -0.51725    9    diag,B
   11      0.156D-02      0.208D-02      -107.82415534    185.059798    0.00000    0.00000    2.86382    9    diag,B
   12      0.643D-02      0.554D-02      -107.81678534    184.878455    0.00000    0.00000    2.86206    9    diag,B
   13      0.438D-03      0.547D-02      -108.04279572    182.728859    0.00000    0.00000   -0.39798    9    diag,B
   14      0.849D-02      0.202D-02      -108.04085072    182.628242    0.00000    0.00000   -0.38917    9    diag,B
   15      0.341D-03      0.201D-02      -108.07043746    183.828214    0.00000    0.00000   -0.26508    9    diag,B
   16      0.381D-02      0.210D-02      -108.06784308    189.535598    0.00000    0.00000    1.71692    9    diag,B
   17      0.162D-01      0.557D-02      -108.22038258    191.266464    0.00000    0.00000    0.74476    9    diag,B
   18      0.159D-01      0.467D-02      -107.63275748    164.949022    0.00000    0.00000    0.33238    9    orth
   19      0.225D-01      0.131D-01      -108.08073585    185.242955    0.00000    0.00000   -0.06512    9    diag,B
   20      0.107D-01      0.211D-02      -108.12143087    186.437742    0.00000    0.00000   -0.40660    9    diag,B
   21      0.365D-02      0.215D-02      -108.09568727    185.658497    0.00000    0.00000   -0.03582    9    diag,B
   22      0.235D-02      0.207D-02      -108.13340502    187.464937    0.00000    0.00000   -0.05041    9    diag,B
   23      0.493D-02      0.203D-02      -108.03772869    189.337712    0.00000    0.00000    3.12331    9    diag,B
   24      0.133D-01      0.529D-02      -108.19564634    189.485308    0.00000    0.00000   -0.63071    9    diag,B
   25      0.788D-02      0.175D-02      -108.03151258    189.167151    0.00000    0.00000    1.54014    9    diag,B
   26      0.588D-02      0.479D-02      -107.99989649    188.262939    0.00000    0.00000    4.33895    9    diag,B
   27      0.336D-02      0.558D-02      -108.22922449    190.931787    0.00000    0.00000   -0.97785    9    diag,B
   28      0.480D-02      0.183D-02      -108.25084889    192.302771    0.00000    0.00000   -0.95069    9    orth
   29      0.269D-02      0.183D-02      -108.25888422    192.146807    0.00000    0.00000   -0.93539    9    diag,B
   30      0.758D-03      0.174D-02      -108.25176448    191.611945    0.00000    0.00000   -0.77485    9    diag,B
   31      0.730D-03      0.160D-02      -108.26887293    191.649816    0.00000    0.00000   -0.90908    9    diag,B
   32      0.205D-02      0.169D-02      -108.26833460    191.651428    0.00000    0.00000   -0.90000    9    diag,B
   33      0.741D-04      0.169D-02      -108.27024224    191.497428    0.00000    0.00000   -0.96143    9    diag,B
   34      0.280D-03      0.173D-02      -108.25391539    193.191282    0.00000    0.00000   -0.27635    9    diag,B
   35      0.249D-02      0.143D-02      -108.25393917    193.690174    0.00000    0.00000    0.00904    9    diag,B
   36      0.149D-02      0.141D-02      -108.25611112    194.081503    0.00000    0.00000    0.55539    9    diag,B
   37      0.254D-02      0.128D-02      -108.26116956    194.322261    0.00000    0.00000    1.26632    9    diag,B
   38      0.247D-02      0.112D-02      -108.26808785    194.254041    0.00000    0.00000    1.72946    9    orth
   39      0.196D-02      0.110D-02      -108.26824744    194.254772    0.00000    0.00000    1.71101    9    diag,B
   40      0.369D-03      0.115D-02      -108.26490476    194.097391    0.00000    0.00000    1.81254    9    diag,B
   41      0.119D-02      0.105D-02      -108.26143028    193.987547    0.00000    0.00000    1.88992    9    diag,B
   42      0.866D-03      0.975D-03      -108.25639414    193.944311    0.00000    0.00000    1.97440    9    diag,B
   43      0.276D-02      0.764D-03      -108.25744128    194.122067    0.00000    0.00000    1.76981    9    diag,B
   44      0.287D-02      0.560D-03       -98.24327892    194.103286    0.00000    0.00000    0.81481    9    diag,B
[...]
                                -0.000132  0.001321  0.000433 -0.000168  0.002522 -0.000307  0.000492  0.000286  0.004138  0.008171
                                -0.001070 -0.005762

   3.2   +    -0.8467  -14.5776 -0.000000  0.000000 -0.000000  0.000000 -0.000000  0.000001 -0.000001  0.000003 -0.000013  0.000113
                                 0.001096  0.001520  0.011893 -0.004824 -0.036911  0.000551  0.019206 -0.004928  0.004080 -0.000431
                                -0.001530 -0.008533 -0.007017  0.005649  0.071071 -0.000833 -0.004701  0.002540  0.000124 -0.000039
                                -0.000000  0.000000 -0.000000  0.000002 -0.000031 -0.000281  0.000520 -0.000195 -0.000490 -0.001197
                                 0.000074  0.000508 -0.000713  0.000929  0.000835  0.000926 -0.001162 -0.000121 -0.000299 -0.000081
                                 0.000033 -0.000010 -0.000023 -0.000106  0.000187  0.000852 -0.002583 -0.011764 -0.048802 -0.222381
                                -0.077438 -0.353254 -0.079820 -0.369351 -0.045282 -0.188911 -0.020634 -0.093889 -0.012673 -0.054628
                                 0.004328  0.007060 -0.009875 -0.047127  0.007086  0.026967 -0.003619 -0.016291  0.001335  0.005612
                                 0.000015  0.000062  0.000038  0.000125  0.000062  0.000383  0.000199  0.000567  0.000014  0.000487
                                 0.000079  0.000127  0.000777 -0.000137 -0.000370 -0.000061  0.000313 -0.000030 -0.000354 -0.000052
                                -0.000765 -0.000900 -0.000442 -0.001417 -0.000989 -0.001235 -0.001225 -0.000047 -0.000926 -0.002165
                                 0.000237  0.001422

   4.2   0     0.0044   -0.9996 -0.000000  0.000000 -0.000000  0.000001 -0.000001  0.000002 -0.000004  0.000011 -0.000043  0.000398
                                 0.004357  0.005962  0.035114  0.046807  0.121613  0.077313 -0.129451  0.234211 -0.689390 -0.001609
                                -0.006255 -0.028788 -0.039899 -0.059485 -0.136093  2.538221  1.930412 -2.677440 -2.017943  1.808994
                                 0.000000 -0.000000  0.000001 -0.000003  0.000063  0.000568 -0.001052  0.000185  0.001662  0.003140
                                -0.000150 -0.001081  0.001564 -0.000938  0.000097 -0.002808  0.008936 -0.015170  0.026372 -0.021870
                                 0.040761 -0.077834  0.000000 -0.000000 -0.000000  0.000001 -0.000000 -0.000007 -0.000038 -0.000092
                                -0.000147 -0.000053 -0.000179 -0.000149 -0.000318  0.000137  0.000033 -0.000093  0.000124 -0.000159
                                 0.000047  0.000559  0.000848  0.000209 -0.002126  0.004186  0.001305  0.000385 -0.006066  0.010385
                                 0.000002 -0.000001  0.000001 -0.000001  0.000019 -0.000002  0.000008  0.000002  0.000084 -0.000007
                                -0.000044  0.000036  0.000253  0.000114 -0.001054  0.000498 -0.000748  0.000596 -0.000004  0.000002
                                -0.000000 -0.000025  0.000009  0.000004 -0.000022  0.000004  0.000040  0.000310  0.001093  0.003176
                                -0.000069  0.000114

   5.2   0     0.0112   -0.8429 -0.000000  0.000000 -0.000000  0.000000 -0.000000  0.000000 -0.000000  0.000001 -0.000004  0.000037
                                 0.000406  0.000552  0.002975  0.004328  0.010887  0.006490 -0.011983  0.021390 -0.056495 -0.000150
                                -0.000583 -0.002516 -0.003267 -0.005842 -0.013067  0.219842  0.168827 -0.226144 -0.151674  0.100528
                                -0.000001  0.000004 -0.000017  0.000090 -0.001672 -0.015229  0.031773 -0.012815 -0.035771 -0.028190
                                 0.003992  0.029069 -0.043919  0.027122  0.032494  0.094829 -0.175633  0.347036 -0.460558  0.659673
                                -1.103768  1.599818  0.000000 -0.000000 -0.000000  0.000000  0.000000 -0.000004 -0.000040 -0.000070
                                -0.000171 -0.000087 -0.000165 -0.000100  0.000039  0.000008  0.000046 -0.000043  0.000150 -0.000052
                                -0.000646  0.000204  0.001109  0.000325 -0.002783  0.001390  0.006702  0.001031 -0.015405  0.002689
                                 0.000003 -0.000002  0.000015 -0.000004  0.000010 -0.000006  0.000120 -0.000016  0.000012 -0.000014
                                 0.000423 -0.000043 -0.000384  0.000007  0.001548  0.000043 -0.000408  0.000289 -0.000001  0.000000
                                -0.000000 -0.000004  0.000001  0.000000 -0.000006  0.000001  0.000005  0.000068  0.001271 -0.002913
                                 0.000090 -0.000094

                                   1 2py     1 2py     1 2py     1 2py     1 2py     1 2py     1 2py     1 2py     1 2py     1 2py
                                   1 2py     1 2py     1 2py     1 2py     1 2py     1 2py     1 2py     1 2py     1 2py     1 2py
                                   1 2py     1 2py     1 2py     1 2py     1 2py     1 2py     1 2py     1 2py     1 2py     1 2py
                                   1 3d1-    1 3d1-    1 3d1-    1 3d1-    1 3d1-    1 3d1-    1 3d1-    1 3d1-    1 3d1-    1 3d1-
                                   1 3d1-    1 3d1-    1 3d1-    1 3d1-    1 3d1-    1 3d1-    1 3d1-    1 3d1-    1 3d1-    1 3d1-
                                   1 3d1-    1 3d1-    1 4f1-    1 4f3-    1 4f1-    1 4f3-    1 4f1-    1 4f3-    1 4f1-    1 4f3-
                                   1 4f1-    1 4f3-    1 4f1-    1 4f3-    1 4f1-    1 4f3-    1 4f1-    1 4f3-    1 4f1-    1 4f3-
                                   1 4f1-    1 4f3-    1 4f1-    1 4f3-    1 4f1-    1 4f3-    1 4f1-    1 4f3-    1 4f1-    1 4f3-
                                   1 5g1-    1 5g3-    1 5g1-    1 5g3-    1 5g1-    1 5g3-    1 5g1-    1 5g3-    1 5g1-    1 5g3-
                                   1 5g1-    1 5g3-    1 5g1-    1 5g3-    1 5g1-    1 5g3-    1 5g1-    1 5g3-    1 6h1-    1 6h3-
                                   1 6h5-    1 6h1-    1 6h3-    1 6h5-    1 6h1-    1 6h3-    1 6h5-    2 2py     2 2py     2 2py
                                   2 3d1-    2 3d1-

   1.3   2    -1.1655  -11.9504 -0.000000  0.000000 -0.000000  0.000001 -0.000002  0.000002 -0.000005  0.000014 -0.000058  0.000539
                                 0.005847  0.004608 -0.170379  0.069896 -0.151462 -0.332340 -0.091831 -0.008363 -0.000046 -0.002180
                                -0.007958  0.087797  0.224065 -0.214580 -0.393689 -0.000420 -0.001136  0.000856  0.000065 -0.000035
                                -0.000000  0.000000 -0.000001  0.000003 -0.000058 -0.000533  0.001282 -0.000915 -0.000541 -0.000178
                                 0.000138  0.001015 -0.001612  0.001276  0.003518 -0.001084  0.001047  0.000429  0.000462 -0.000083
                                 0.000038 -0.000011 -0.000005 -0.000001  0.000044  0.000006 -0.000641 -0.000105 -0.013293 -0.002881
                                -0.023942 -0.006699 -0.027333 -0.006708 -0.019577 -0.006554 -0.004135  0.000047  0.000802  0.002355
                                 0.000326  0.001844 -0.003598  0.000550  0.002108  0.001132 -0.001184 -0.000179  0.000428  0.000199
                                -0.000004 -0.000007 -0.000018 -0.000032 -0.000009 -0.000005 -0.000025  0.000014  0.000051  0.000051
                                -0.000211  0.000265  0.000255  0.000065 -0.000195 -0.000038  0.000114  0.000007  0.000011  0.000002
                                 0.000020 -0.000130  0.000022 -0.000132  0.000022  0.000283  0.002128 -0.000339 -0.001063 -0.000520
                                 0.000324  0.000502

   2.3   +    -0.8809  -14.6070 -0.000000  0.000000 -0.000000  0.000000 -0.000000  0.000000 -0.000000  0.000000 -0.000001  0.000008
                                 0.000099 -0.000015 -0.011184  0.006415  0.009837 -0.007402 -0.009117  0.006318 -0.002670 -0.000033
                                -0.000142  0.006322  0.011411 -0.016197 -0.046378  0.000128  0.001990 -0.000700  0.000039  0.000005
                                 0.000000 -0.000000  0.000001 -0.000007  0.000122  0.001127 -0.001896 -0.000049  0.003442  0.009856
                                -0.000291 -0.002112  0.002907 -0.002378  0.001042 -0.003939  0.002993 -0.003524  0.000200  0.000036
                                -0.000047  0.000016  0.000097 -0.000047 -0.000782  0.000379  0.010800 -0.005240  0.204127 -0.099126
                                 0.323974 -0.157379  0.337621 -0.163403  0.181112 -0.084399  0.086684 -0.042025  0.052263 -0.024799
                                -0.010552  0.004190  0.041577 -0.020900 -0.025733  0.011938  0.014161 -0.007291 -0.004997  0.002460
                                -0.000068  0.000022 -0.000195  0.000036 -0.000409  0.000133 -0.000872  0.000232 -0.000156  0.000199
                                -0.000056  0.000038 -0.002947 -0.000125  0.001705 -0.000061 -0.001233 -0.000008  0.000430  0.000671
                                -0.000302  0.001465  0.001209 -0.000478  0.002312  0.000911  0.000251  0.000346  0.004268  0.008337
                                -0.001054 -0.005618

   3.3   +    -0.8438  -14.5673 -0.000000  0.000000 -0.000000  0.000000 -0.000001  0.000001 -0.000001  0.000004 -0.000016  0.000140
                                 0.001271  0.000836 -0.002158  0.019222 -0.045475 -0.035327 -0.010161 -0.013365  0.000592 -0.000527
                                -0.001487 -0.000356 -0.006040  0.007230  0.038838 -0.000805 -0.003322  0.002147  0.000112 -0.000048
                                 0.000000 -0.000000  0.000001 -0.000003  0.000062  0.000566 -0.000990  0.000137  0.001529  0.004136
                                -0.000147 -0.001051  0.001464 -0.001414 -0.000254 -0.001620  0.002174 -0.000480  0.000489  0.000084
                                -0.000050  0.000015  0.000047  0.000098 -0.000375 -0.000786  0.005183  0.010858  0.097944  0.205185
                                 0.155672  0.325797  0.163736  0.341388  0.086719  0.173678  0.041338  0.086715  0.024383  0.050530
                                -0.004169 -0.005855  0.020011  0.044021 -0.012212 -0.024465  0.006776  0.015076 -0.002370 -0.005125
                                -0.000032 -0.000058 -0.000083 -0.000119 -0.000164 -0.000362 -0.000429 -0.000528 -0.000062 -0.000452
                                -0.000092 -0.000111 -0.001495  0.000141  0.000782  0.000060 -0.000590  0.000029  0.000337  0.000299
                                 0.000714  0.001012  0.000974  0.001344  0.001620  0.001895  0.001255  0.000095  0.001951  0.004256
                                -0.000488 -0.002791

   4.3   0     0.0042   -1.0397  0.000000 -0.000000  0.000000 -0.000001  0.000001 -0.000002  0.000004 -0.000010  0.000042 -0.000388
                                -0.004239 -0.005782 -0.032988 -0.045456 -0.116076 -0.071689  0.126187 -0.228847  0.652206  0.001565
                                 0.006083  0.027328  0.037210  0.058508  0.133334 -2.441472 -1.858762  2.568152  1.927712 -1.758036
                                -0.000000  0.000000 -0.000001  0.000005 -0.000101 -0.000935  0.002430 -0.001786 -0.001055  0.005819
                                 0.000242  0.001797 -0.002961  0.001919  0.006540  0.009589 -0.000531  0.028269 -0.005889  0.052955
                                -0.035178  0.098053  0.000000 -0.000000 -0.000000  0.000004  0.000003 -0.000047  0.000072 -0.000822
                                 0.000155 -0.001143  0.000194 -0.001184  0.000131 -0.000361  0.000005 -0.000440 -0.000045 -0.000427
                                -0.000828  0.000835 -0.002632  0.000091 -0.001102  0.005733 -0.004007 -0.001525  0.001987  0.014551
                                 0.000001  0.000001  0.000002  0.000001  0.000010  0.000009  0.000072  0.000020  0.000119  0.000038
                                 0.000257 -0.000048  0.000255 -0.000044  0.000663 -0.000617  0.001050 -0.000160 -0.000000  0.000000
                                -0.000003  0.000011  0.000000 -0.000011 -0.000000  0.000000 -0.000052 -0.000144 -0.000465 -0.002531
                                 0.000030 -0.000040

   5.3   0     0.0110   -0.8880 -0.000000  0.000000 -0.000000  0.000001 -0.000001  0.000001 -0.000002  0.000005 -0.000022  0.000205
                                 0.002240  0.003146  0.024462  0.025257  0.074810  0.057340 -0.070747  0.126910 -0.431630 -0.000829
                                -0.003221 -0.018425 -0.030239 -0.025728 -0.065242  1.465571  1.113877 -1.638611 -1.315643  0.705863
                                -0.000001  0.000004 -0.000016  0.000085 -0.001582 -0.014423  0.030402 -0.012781 -0.033099 -0.021660
                                 0.003779  0.027536 -0.041761  0.025862  0.033734  0.092214 -0.159285  0.330692 -0.422571  0.626575
                                -1.021396  1.516228 -0.000000 -0.000000  0.000000  0.000002 -0.000001 -0.000026 -0.000046 -0.000462
                                -0.000128 -0.000659 -0.000098 -0.000675  0.000108 -0.000146  0.000012 -0.000236  0.000068 -0.000213
                                -0.000981  0.000396 -0.000517  0.000554 -0.003430  0.002570  0.002917  0.001401 -0.012167  0.005055
                                 0.000001  0.000000  0.000008  0.000003  0.000001  0.000002  0.000130  0.000043  0.000077  0.000002
                                 0.000515  0.000067 -0.000081 -0.000187  0.001658 -0.000077  0.000140 -0.000591 -0.000000  0.000000
                                -0.000002  0.000005 -0.000001 -0.000006 -0.000003 -0.000001 -0.000028  0.000000  0.000675 -0.003069
                                 0.000066 -0.000058

                                   1 3d2-    1 3d2-    1 3d2-    1 3d2-    1 3d2-    1 3d2-    1 3d2-    1 3d2-    1 3d2-    1 3d2-
                                   1 3d2-    1 3d2-    1 3d2-    1 3d2-    1 3d2-    1 3d2-    1 3d2-    1 3d2-    1 3d2-    1 3d2-
                                   1 3d2-    1 3d2-    1 4f2-    1 4f2-    1 4f2-    1 4f2-    1 4f2-    1 4f2-    1 4f2-    1 4f2-
                                   1 4f2-    1 4f2-    1 4f2-    1 4f2-    1 4f2-    1 4f2-    1 5g2-    1 5g4-    1 5g2-    1 5g4-
                                   1 5g2-    1 5g4-    1 5g2-    1 5g4-    1 5g2-    1 5g4-    1 5g2-    1 5g4-    1 5g2-    1 5g4-
                                   1 5g2-    1 5g4-    1 5g2-    1 5g4-    1 6h4-    1 6h2-    1 6h4-    1 6h2-    1 6h4-    1 6h2-
                                   2 3d2-    2 3d2-

   1.4   +    -0.8719  -14.6136  0.000000 -0.000000  0.000000 -0.000001  0.000019  0.000191 -0.000199 -0.000251 -0.000015  0.002243
                                -0.000046 -0.000321  0.000329 -0.000717  0.000814  0.002139  0.000617  0.000391 -0.000125  0.000059
                                -0.000029  0.000008  0.000109 -0.000872  0.012043  0.227733  0.361686  0.375754  0.199721  0.096344
                                 0.057385 -0.011718  0.049333 -0.029756  0.017408 -0.006144 -0.000075 -0.000008 -0.000157 -0.000030
                                -0.000478 -0.000079 -0.000651 -0.000065 -0.000565 -0.000064 -0.000049 -0.000055  0.000231 -0.000028
                                 0.000099  0.000013 -0.000013  0.000019  0.000452  0.000683  0.000755  0.002044  0.000424  0.002780
                                 0.000228 -0.000060

   2.4   0     0.0112   -0.8344  0.000001 -0.000004  0.000017 -0.000091  0.001679  0.015294 -0.031740  0.012517  0.036202  0.030713
                                -0.004010 -0.029186  0.044005 -0.027125 -0.031045 -0.093619  0.178184 -0.342742  0.464905 -0.655422
                                 1.105286 -1.604556 -0.000000  0.000000 -0.000001  0.000016  0.000089  0.000076 -0.000104 -0.000032
                                -0.000091  0.000415 -0.000949  0.003076 -0.005445  0.010411  0.000000 -0.000000 -0.000001 -0.000001
                                 0.000001 -0.000001 -0.000021 -0.000013 -0.000009  0.000004 -0.000093 -0.000033  0.000036  0.000055
                                -0.000271 -0.000136  0.000259  0.000097 -0.000000  0.000000  0.000000 -0.000000  0.000000  0.000001
                                -0.000006 -0.000044

   3.4   0     0.0315   -1.2450  0.000002 -0.000008  0.000036 -0.000190  0.003526  0.032078 -0.065126  0.023199  0.079943  0.088694
                                -0.008419 -0.061188  0.091516 -0.056309 -0.051231 -0.189167  0.409420 -0.748661  1.092953 -1.507743
                                 2.868042 -1.467389  0.000000 -0.000000  0.000002 -0.000053 -0.000296 -0.000267  0.000234  0.000105
                                 0.000305 -0.001469  0.002754 -0.010646  0.017500 -0.043726  0.000001  0.000001  0.000003  0.000004
                                 0.000005  0.000012  0.000094  0.000070  0.000135  0.000008  0.000401  0.000132  0.000167 -0.000198
                                 0.001170  0.000538 -0.000860 -0.000464  0.000000 -0.000000 -0.000001  0.000001 -0.000003 -0.000007
                                 0.000081 -0.000169

 HOMO      6.1    -0.111258 =      -3.0275eV
 LUMO      7.1    -0.011838 =      -0.3221eV
 LUMO-HOMO         0.099420 =       2.7054eV

 No convergence



 **********************************************************************************************************************************
 DATASETS  * FILE   NREC   LENGTH (MB)   RECORD NAMES
              1      19       22.63       500      610      700      900      950      970     1000      129      960     1100
                                          VAR    BASINP    GEOM    SYMINP    ZMAT    AOBASIS   BASIS     P2S    ABASIS      S
                                         1400     1410     1420     1200     1210     1080     1600     1650     1700
                                           T        V       ECP      H0       H01     AOSYM     SMH    MOLCAS    OPER

              2       5        9.61       700     1000      520     3202     2101
                                         GEOM     BASIS   MCVARS     RHF      RHF

 PROGRAMS   *        TOTAL       RHF       RHF       INT
 CPU TIMES  *       305.71     86.47    101.94    116.84
 REAL TIME  *       348.44 SEC
 DISK USED  *        13.36 GB
 SF USED    *         0.25 MB
 GA USED    *         0.00 MB       (max)       0.00 MB       (current)
 **********************************************************************************************************************************
   -->
   <time start="13:58:26" end="13:59:59" cpu="86.48" system="6.75" real="93.32"/>
   <storage units="megabyte" memory="8001.84" sf="0.25" df="455.52" eaf="12907.89" ga="0.0"/>
  </jobstep><!--
 SETTING SCF            =       -98.27823824  AU
 SETTING _CC_NORM_MAX   =         2.00000000
  --><jobstep command="RCCSD(T)" commandset="CCSD">
   <!--


 PROGRAM * CCSD (Restricted open-shell coupled cluster)     Authors: C. Hampel, H.-J. Werner, 1991, M. Deegan, P.J. Knowles, 1992


 Convergence thresholds:  THRVAR = 1.00D-08  THRDEN = 1.00D-06

 CCSD(T)     terms to be evaluated (factor= 1.000)


 Number of closed-shell orbitals:   6 (   4   1   1   0 )
 Number of active  orbitals:        7 (   2   2   2   1 )
 Number of external orbitals:     456 ( 177 109 109  61 )

 Memory could be reduced to 500.27 Mwords without degradation in triples

 Number of N-1 electron functions:              19
 Number of N-2 electron functions:             171
 Number of singly external CSFs:              2740
 Number of doubly external CSFs:           6840384
 Total number of CSFs:                     6843124

 Molecular orbitals read from record     2101.2  Type=RHF/CANONICAL (state 1.4)

 ?Error: RHF not converged. This error exit can be avoided using the IGNORE_ERROR option on the ORBITAL directive
   --><error/><!--
  --></jobstep><!--
  -->
  <input>
  <!--
 --></job><!--
--></molpro>
