<?xml version="1.0"?>
<molpro xmlns="http://www.molpro.net/schema/molpro-output"
  xmlns:xsd="http://www.w3.org/1999/XMLSchema"
  xmlns:cml="http://www.xml-cml.org/schema"
  xmlns:stm="http://www.xml-cml.org/schema"
  xmlns:xhtml="http://www.w3.org/1999/xhtml">
 <!--

 Nodes     nprocs
 nid01586    11
 Number of processes for MPI-2 version of Molpro:   nprocs(total)=   12   nprocs(compute)=   11   nprocs(helper)=    1

 Using customized tuning parameters: mindgm=7; mindgv=16; mindgc=1; mindgr=1; noblas=0; minvec=7
 default implementation of scratch files=sf

 --><job>
  <!--

 Variables initialized (889), CPU time= 0.01 sec
 Commands  initialized (702), CPU time= 0.02 sec, 572 directives.
 Default parameters read. Elapsed time= 0.13 sec

 Checking input...
 Passed
1


                                         ***  PROGRAM SYSTEM MOLPRO  ***
                                       Copyright, TTI GmbH Stuttgart, 2015
                                    Version 2015.1 linked Dec 29 2018 15:55:43


 **********************************************************************************************************************************
 LABEL *   Calculation for Lu atom, singlet and triplet
  64 bit mpp version                                                                     DATE: 07-Apr-23          TIME: 21:41:55
 **********************************************************************************************************************************

 SHA1:             19cd028119e0e09f93f0674bd8af7968d9b3eff6
 **********************************************************************************************************************************
  -->
  <!--

 THRESHOLDS:

 ZERO    =  1.00D-12  ONEINT  =  1.00D-12  TWOINT  =  1.00D-15  PREFAC  =  1.00D-14  LOCALI  =  1.00D-09  EORDER  =  1.00D-04
 ENERGY  =  0.00D+00  ETEST   =  0.00D+00  EDENS   =  0.00D+00  THRDEDEF=  1.00D-06  GRADIENT=  1.00D-02  STEP    =  1.00D-03
 ORBITAL =  1.00D-05  CIVEC   =  1.00D-05  COEFF   =  1.00D-04  PRINTCI =  5.00D-02  PUNCHCI =  9.90D+01  OPTGRAD =  3.00D-04
 OPTENERG=  1.00D-06  OPTSTEP =  3.00D-04  THRGRAD =  1.00D-10  COMPRESS=  1.00D-11  VARMIN  =  1.00D-07  VARMAX  =  1.00D-03
 THRDOUB =  0.00D+00  THRDIV  =  1.00D-05  THRRED  =  1.00D-07  THRPSP  =  1.00D+00  THRDC   =  1.00D-10  THRCS   =  1.00D-10
 THRNRM  =  1.00D-08  THREQ   =  0.00D+00  THRDE   =  1.00D+00  THRREF  =  1.00D-05  SPARFAC =  1.00D+00  THRDLP  =  1.00D-07
 THRDIA  =  1.00D-10  THRDLS  =  1.00D-07  THRGPS  =  0.00D+00  THRKEX  =  0.00D+00  THRDIS  =  2.00D-01  THRVAR  =  1.00D-10
 THRLOC  =  1.00D-06  THRGAP  =  1.00D-06  THRLOCT = -1.00D+00  THRGAPT = -1.00D+00  THRORB  =  1.00D-06  THRMLTP =  0.00D+00
 THRCPQCI=  1.00D-10  KEXTA   =  0.00D+00  THRCOARS=  0.00D+00  SYMTOL  =  1.00D-06  GRADTOL =  1.00D-06  THROVL  =  1.00D-08
 THRORTH =  1.00D-08  GRID    =  1.00D-06  GRIDMAX =  1.00D-03  DTMAX   =  0.00D+00  THROCCDE=  1.00D-01  THROCCDE=  1.00D-01



 THRESHOLDS:

 ZERO    =  1.00D-12  ONEINT  =  1.00D-15  TWOINT  =  1.00D-15  PREFAC  =  1.00D-14  LOCALI  =  1.00D-09  EORDER  =  1.00D-04
 ENERGY  =  0.00D+00  ETEST   =  0.00D+00  EDENS   =  0.00D+00  THRDEDEF=  1.00D-06  GRADIENT=  1.00D-02  STEP    =  1.00D-03
 ORBITAL =  1.00D-05  CIVEC   =  1.00D-05  COEFF   =  1.00D-04  PRINTCI =  5.00D-02  PUNCHCI =  9.90D+01  OPTGRAD =  3.00D-04
 OPTENERG=  1.00D-06  OPTSTEP =  3.00D-04  THRGRAD =  1.00D-10  COMPRESS=  1.00D-11  VARMIN  =  1.00D-07  VARMAX  =  1.00D-03
 THRDOUB =  0.00D+00  THRDIV  =  1.00D-05  THRRED  =  1.00D-07  THRPSP  =  1.00D+00  THRDC   =  1.00D-10  THRCS   =  1.00D-10
 THRNRM  =  1.00D-08  THREQ   =  0.00D+00  THRDE   =  1.00D+00  THRREF  =  1.00D-05  SPARFAC =  1.00D+00  THRDLP  =  1.00D-07
 THRDIA  =  1.00D-10  THRDLS  =  1.00D-07  THRGPS  =  0.00D+00  THRKEX  =  0.00D+00  THRDIS  =  2.00D-01  THRVAR  =  1.00D-10
 THRLOC  =  1.00D-06  THRGAP  =  1.00D-06  THRLOCT = -1.00D+00  THRGAPT = -1.00D+00  THRORB  =  1.00D-06  THRMLTP =  0.00D+00
 THRCPQCI=  1.00D-10  KEXTA   =  0.00D+00  THRCOARS=  0.00D+00  SYMTOL  =  1.00D-06  GRADTOL =  1.00D-06  THROVL  =  1.00D-08
 THRORTH =  1.00D-08  GRID    =  1.00D-06  GRIDMAX =  1.00D-03  DTMAX   =  0.00D+00  THROCCDE=  1.00D-01  THROCCDE=  1.00D-01



Geometry recognized as XYZ


 Variable memory set to 1000000000 words,  buffer space   230000 words

 SETTING BASIS          =    USERDEF

 DO I                   =        15.00000000

 Running procedure=XP
  --><jobstep command="RHF-SCF" commandset="SCFPRO">
   <!--


 Recomputing integrals since basis changed


 Using spherical harmonics



 PROGRAM * SEWARD (Integral evaluation for generally contracted gaussian basis sets)     Author: Roland Lindh, 1990

 Geometry written to block  1 of record 700

 Orientation using atomic masses
 Molecule type: Atom
 Symmetry elements: X,Y,Z
 Rotational constants:       0.0000000      0.0000000      0.0000000 GHz  (calculated with average atomic masses)

 Point group  D2h


   --><cml:molecule>
    <cml:symmetry pointGroup="D2h"/>
    <cml:atomArray>
     <cml:atom id="a1" elementType="Lu" x3="0.0" y3="0.0" z3="0.0"/>
    </cml:atomArray>
    <cml:bondArray>
    </cml:bondArray>
   </cml:molecule><!--

 ATOMIC COORDINATES

 NR  ATOM    CHARGE       X              Y              Z

   1  LU     25.00    0.000000000    0.000000000    0.000000000

 NUCLEAR CHARGE:                   25
 NUMBER OF PRIMITIVE AOS:         581
 NUMBER OF SYMMETRY AOS:          442
 NUMBER OF CONTRACTIONS:          442   ( 103Ag  +  70B3u +  70B2u +  36B1g +  70B1u +  36B2g +  36B3g +  21Au  )
 NUMBER OF CORE ORBITALS:           0   (   0Ag  +   0B3u +   0B2u +   0B1g +   0B1u +   0B2g +   0B3g +   0Au  )
 NUMBER OF VALENCE ORBITALS:       17   (   4Ag  +   3B3u +   3B2u +   1B1g +   3B1u +   1B2g +   1B3g +   1Au  )


 NUCLEAR REPULSION ENERGY    0.00000000

 EXTRA SYMMETRY OF AOS IN SYMMETRY 1:   1 1 1 1 1 1 1 1 1 1   1 1 1 1 1 1 1 1 1 1   1 1 1 1 1 1 1 1 1 1   1 1 1 1 1 1 1 1 2 3
                                        2 3 2 3 2 3 2 3 2 3   2 3 2 3 2 3 2 3 2 3   2 3 2 3 2 3 2 3 2 3   2 3 2 3 2 3 2 3 2 3
                                        2 3 4 5 6 4 5 6 4 5   6 4 5 6 4 5 6 4 5 6   4 5 6
 EXTRA SYMMETRY OF AOS IN SYMMETRY 2:   1 1 1 1 1 1 1 1 1 1   1 1 1 1 1 1 1 1 1 1   1 1 1 1 1 1 1 1 1 1   1 2 3 2 3 2 3 2 3 2
                                        3 2 3 2 3 2 3 2 3 2   3 2 3 2 3 2 3 2 3 2   3 4 5 6 4 5 6 4 5 6
 EXTRA SYMMETRY OF AOS IN SYMMETRY 3:   1 1 1 1 1 1 1 1 1 1   1 1 1 1 1 1 1 1 1 1   1 1 1 1 1 1 1 1 1 1   1 2 3 2 3 2 3 2 3 2
                                        3 2 3 2 3 2 3 2 3 2   3 2 3 2 3 2 3 2 3 2   3 4 5 6 4 5 6 4 5 6
 EXTRA SYMMETRY OF AOS IN SYMMETRY 4:   1 1 1 1 1 1 1 1 1 1   1 1 1 1 1 1 1 1 1 1   1 1 2 3 2 3 2 3 2 3   2 3 2 3 2 3
 EXTRA SYMMETRY OF AOS IN SYMMETRY 5:   1 1 1 1 1 1 1 1 1 1   1 1 1 1 1 1 1 1 1 1   1 1 1 1 1 1 1 1 1 1   1 2 3 2 3 2 3 2 3 2
                                        3 2 3 2 3 2 3 2 3 2   3 2 3 2 3 2 3 2 3 2   3 4 5 6 4 5 6 4 5 6
 EXTRA SYMMETRY OF AOS IN SYMMETRY 6:   1 1 1 1 1 1 1 1 1 1   1 1 1 1 1 1 1 1 1 1   1 1 2 3 2 3 2 3 2 3   2 3 2 3 2 3
 EXTRA SYMMETRY OF AOS IN SYMMETRY 7:   1 1 1 1 1 1 1 1 1 1   1 1 1 1 1 1 1 1 1 1   1 1 2 3 2 3 2 3 2 3   2 3 2 3 2 3
 EXTRA SYMMETRY OF AOS IN SYMMETRY 8:   1 1 1 1 1 1 1 1 1 1   1 1 1 1 1 2 3 2 3 2   3

 Eigenvalues of metric

         1 0.333E-06 0.964E-06 0.340E-05 0.186E-04 0.475E-04 0.703E-04 0.799E-04 0.799E-04
         2 0.960E-06 0.179E-05 0.251E-04 0.110E-03 0.525E-03 0.525E-03 0.534E-03 0.156E-02
         3 0.960E-06 0.179E-05 0.251E-04 0.110E-03 0.525E-03 0.525E-03 0.534E-03 0.156E-02
         4 0.799E-04 0.144E-03 0.223E-02 0.632E-02 0.897E-02 0.238E-01 0.240E-01 0.240E-01
         5 0.960E-06 0.179E-05 0.251E-04 0.110E-03 0.525E-03 0.525E-03 0.534E-03 0.156E-02
         6 0.799E-04 0.144E-03 0.223E-02 0.632E-02 0.897E-02 0.238E-01 0.240E-01 0.240E-01
         7 0.799E-04 0.144E-03 0.223E-02 0.632E-02 0.897E-02 0.238E-01 0.240E-01 0.240E-01
         8 0.525E-03 0.142E-01 0.219E-01 0.528E-01 0.103E+00 0.167E+00 0.268E+00 0.268E+00


 Contracted 2-electron integrals neglected if value below      1.0D-15
 AO integral compression algorithm  1   Integral accuracy      1.0D-15

     3532.128 MB (compressed) written to integral file ( 42.0%)

     Node minimum: 157.549 MB, node maximum: 429.130 MB


 NUMBER OF SORTED TWO-ELECTRON INTEGRALS:   55861870.     BUFFER LENGTH:  32768
 NUMBER OF SEGMENTS:   2  SEGMENT LENGTH:   31997722      RECORD LENGTH: 524288

 Memory used in sort:      32.55 MW

 SORT1 READ  1050599776. AND WROTE    31971422. INTEGRALS IN     93 RECORDS. CPU TIME:    27.43 SEC, REAL TIME:    31.82 SEC
 SORT2 READ   352987961. AND WROTE   613618504. INTEGRALS IN  13244 RECORDS. CPU TIME:     2.09 SEC, REAL TIME:     2.70 SEC

 Node minimum:    55639389.  Node maximum:    55868715. integrals

 OPERATOR DM      FOR CENTER  0  COORDINATES:    0.000000    0.000000    0.000000


 **********************************************************************************************************************************
 DATASETS  * FILE   NREC   LENGTH (MB)   RECORD NAMES
              1      19       21.26       500      610      700      900      950      970     1000      129      960     1100
                                          VAR    BASINP    GEOM    SYMINP    ZMAT    AOBASIS   BASIS     P2S    ABASIS      S
                                         1400     1410     1420     1200     1210     1080     1600     1650     1700
                                           T        V       ECP      H0       H01     AOSYM     SMH    MOLCAS    OPER

 PROGRAMS   *        TOTAL       INT
 CPU TIMES  *       160.97    160.48
 REAL TIME  *       168.15 SEC
 DISK USED  *         7.80 GB
 GA USED    *         0.00 MB       (max)       0.00 MB       (current)
 **********************************************************************************************************************************


 PROGRAM * RHF-SCF (OPEN SHELL)       Authors: W. Meyer, H.-J. Werner


 NUMBER OF ELECTRONS:       9+    8-    SPACE SYMMETRY=2    SPIN SYMMETRY: Doublet
 CONVERGENCE THRESHOLDS:    1.00E-05 (Density)    1.00E-07 (Energy)
 MAX. NUMBER OF ITERATIONS:      150
 INTERPOLATION TYPE:            DIIS
 INTERPOLATION STEPS:              2 (START)      1 (STEP)
 LEVEL SHIFTS:                 -0.60 (CLOSED) -0.30 (OPEN)

 Number of closed-shell orbitals:    8 (   1   2   2   0   2   0   0   1 )
 Number of open-shell orbitals:      1 (   0   1   0   0   0   0   0   0 )



 Extra symmetries of mos in symmetry 2:   3   2   1
 Extra symmetries of mos in symmetry 3:   3   2   1
 Extra symmetries of mos in symmetry 5:   3   2   1
 Guess basis ATOMIC-GUESS,LU=ECP46_GUESS not found. No density guess!


 Molecular orbital dump at record        4202.2

 ITERATION    DDIFF          GRAD             ENERGY        2-EL.EN.            DIPOLE MOMENTS         DIIS   ORB.
    1      0.000D+00      0.000D+00      -168.09274291    327.149203    0.00000    0.00000    0.00000    0    start
    2      0.000D+00      0.370D+00      -175.53598686    162.034896    0.00000    0.00000    0.00000    0    diag,B
    3      0.127D+00      0.246D+00      -185.17081444    278.050255    0.00000    0.00000    0.00000    1    diag,B
    4      0.531D-01      0.201D+00      -190.90203972    238.489883    0.00000    0.00000    0.00000    2    diag,B
    5      0.302D-01      0.315D-01      -181.31940482    181.591578    0.00000    0.00000    0.00000    3    diag,B
    6      0.197D-01      0.733D-01      -187.23785103    208.400890    0.00000    0.00000    0.00000    4    diag,B
    7      0.139D-01      0.326D-01      -187.23113234    209.118369    0.00000    0.00000    0.00000    5    diag,B
    8      0.166D-01      0.307D-01      -186.99409482    212.489965    0.00000    0.00000    0.00000    6    diag,B
    9      0.165D-01      0.182D-01      -190.88222835    240.249764    0.00000    0.00000    0.00000    7    diag,B
   10      0.122D-01      0.309D-01      -190.97726069    239.022715    0.00000    0.00000    0.00000    8    orth
   11      0.622D-02      0.283D-01      -186.97014724    212.135852    0.00000    0.00000    0.00000    9    diag,B
   12      0.112D-01      0.189D-01      -190.87656781    239.404849    0.00000    0.00000    0.00000    9    diag,B
   13      0.107D-01      0.267D-01      -190.86554501    239.270345    0.00000    0.00000    0.00000    9    diag,B
   14      0.193D-02      0.257D-01      -190.74782094    239.722739    0.00000    0.00000    0.00000    9    diag,B
   15      0.299D-02      0.238D-01      -191.21224384    236.567785    0.00000    0.00000    0.00000    9    diag,B
   16      0.706D-02      0.267D-01      -190.86172449    238.081491    0.00000    0.00000    0.00000    9    diag,B
   17      0.845D-02      0.204D-01      -190.81350672    238.230900    0.00000    0.00000    0.00000    9    diag,B
   18      0.175D-02      0.197D-01      -190.78959587    238.524796    0.00000    0.00000    0.00000    9    diag,B
   19      0.248D-02      0.200D-01      -190.86185395    237.902817    0.00000    0.00000    0.00000    9    diag,B
   20      0.332D-02      0.203D-01      -190.80623112    237.901810    0.00000    0.00000    0.00000    9    orth
   21      0.162D-02      0.181D-01      -191.15439447    235.584080    0.00000    0.00000    0.00000    9    diag,B
   22      0.656D-02      0.231D-01      -190.78813413    237.543490    0.00000    0.00000    0.00000    9    diag,B
   23      0.643D-02      0.159D-01      -190.95807485    237.357488    0.00000    0.00000    0.00000    9    diag,B
   24      0.405D-02      0.216D-01      -191.34775255    235.529471    0.00000    0.00000    0.00000    9    diag,B
   25      0.789D-02      0.276D-01      -190.78280868    237.827528    0.00000    0.00000    0.00000    9    diag,B
   26      0.754D-02      0.169D-01      -190.96635661    237.183810    0.00000    0.00000    0.00000    9    diag,B
   27      0.431D-02      0.213D-01      -191.04823378    236.589075    0.00000    0.00000    0.00000    9    diag,B
   28      0.540D-02      0.212D-01      -190.80453511    237.484198    0.00000    0.00000    0.00000    9    diag,B
   29      0.428D-02      0.164D-01      -187.23411932    208.274677    0.00000    0.00000    0.00000    9    diag,B
   30      0.125D-01      0.315D-01      -190.90766622    237.762739    0.00000    0.00000    0.00000    9    orth
   31      0.136D-01      0.214D-01      -190.82565231    238.276619    0.00000    0.00000    0.00000    9    diag,B
   32      0.140D-02      0.206D-01      -191.15044050    236.252040    0.00000    0.00000    0.00000    9    diag,B
   33      0.646D-02      0.239D-01      -190.85696800    237.475670    0.00000    0.00000    0.00000    9    diag,B
   34      0.607D-02      0.175D-01      -191.07227884    236.531656    0.00000    0.00000    0.00000    9    diag,B
   35      0.508D-02      0.225D-01      -186.99106629    210.052304    0.00000    0.00000    0.00000    9    diag,B
   36      0.125D-01      0.249D-01      -190.76126944    238.578816    0.00000    0.00000    0.00000    9    diag,B
   37      0.110D-01      0.190D-01      -190.77888728    238.210007    0.00000    0.00000    0.00000    9    diag,B
   38      0.623D-03      0.180D-01      -190.93162543    236.926153    0.00000    0.00000    0.00000    9    diag,B
   39      0.361D-02      0.191D-01      -191.04426806    236.718935    0.00000    0.00000    0.00000    9    diag,B
   40      0.622D-02      0.218D-01      -190.92607794    236.602653    0.00000    0.00000    0.00000    9    orth
   41      0.554D-02      0.181D-01      -191.08071548    236.014771    0.00000    0.00000    0.00000    9    diag,B
   42      0.261D-02      0.211D-01      -191.00558715    236.105684    0.00000    0.00000    0.00000    9    diag,B
   43      0.731D-02      0.196D-01      -190.92309769    234.406902    0.00000    0.00000    0.00000    9    diag,B
   44      0.656D-02      0.123D-01      -186.72131634    205.885838    0.00000    0.00000    0.00000    9    diag,B
   45      0.114D-01      0.386D-01      -190.84681193    234.374375    0.00000    0.00000    0.00000    9    diag,B
   46      0.111D-01      0.655D-02      -190.93473827    233.458410    0.00000    0.00000    0.00000    9    diag,B
   47      0.352D-02      0.107D-01      -190.84393151    233.260110    0.00000    0.00000    0.00000    9    diag,B
   48      0.296D-02      0.404D-02      -190.83591451    233.277405    0.00000    0.00000    0.00000    9    diag,B
   49      0.152D-02      0.265D-02      -190.84135267    233.211773    0.00000    0.00000    0.00000    9    diag,B
   50      0.159D-02      0.355D-02      -190.83444879    233.222913    0.00000    0.00000    0.00000    9    orth
   51      0.787D-03      0.229D-02      -190.83096308    233.243530    0.00000    0.00000    0.00000    9    diag,B
   52      0.785D-03      0.113D-02      -190.82989827    233.243525    0.00000    0.00000    0.00000    9    diag,B
   53      0.230D-03      0.296D-03      -190.82993184    233.249551    0.00000    0.00000    0.00000    9    diag,B
   54      0.160D-03      0.365D-03      -190.82982466    233.246169    0.00000    0.00000    0.00000    9    diag,B
   55      0.883D-04      0.966D-04      -190.82981694    233.244520    0.00000    0.00000    0.00000    9    diag,B
   56      0.304D-04      0.225D-04      -190.82981708    233.244411    0.00000    0.00000    0.00000    9    diag,B
   57      0.129D-04      0.256D-04      -190.82981649    233.244661    0.00000    0.00000    0.00000    9    diag,B
   58      0.725D-05      0.131D-05      -190.82981649    233.244511    0.00000    0.00000    0.00000    9    diag,B
   59      0.358D-06      0.131D-05      -190.82981673    233.244551    0.00000    0.00000    0.00000    0    orth

 Final alpha occupancy:   1   3   2   0   2   0   0   1
 Final beta  occupancy:   1   2   2   0   2   0   0   1

 !RHF STATE 1.2 Energy               -190.829816733880
   --><property name="Energy" method="RHF" principal="true" stateSymmetry="2" stateNumber="1"
     value="-190.82981673388"/><!--
 Nuclear energy                         0.00000000
 One-electron energy                 -307.45209241
 Two-electron energy                  116.62227568
 Virial quotient                       -1.03859575
 !RHF STATE 1.2 Dipole moment           0.00000000     0.00000000     0.00000000
 Dipole moment /Debye                   0.00000000     0.00000000     0.00000000
   --><property name="Dipole moment" method="RHF" principal="true" stateSymmetry="2"
     stateNumber="1" value="0.0 0.0 0.0"/><!--

 ELECTRON ORBITALS
 =================


   Orb  Occ    Energy  Couls-En    Coefficients

                                   1 1s      1 1s      1 1s      1 1s      1 1s      1 1s      1 1s      1 1s      1 1s      1 1s
                                   1 1s      1 1s      1 1s      1 1s      1 1s      1 1s      1 1s      1 1s      1 1s      1 1s
                                   1 1s      1 1s      1 1s      1 1s      1 1s      1 1s      1 1s      1 1s      1 1s      1 1s
                                   1 1s      1 1s      1 1s      1 1s      1 1s      1 1s      1 1s      1 1s      1 3d0     1 3d2+
                                   1 3d0     1 3d2+    1 3d0     1 3d2+    1 3d0     1 3d2+    1 3d0     1 3d2+    1 3d0     1 3d2+
                                   1 3d0     1 3d2+    1 3d0     1 3d2+    1 3d0     1 3d2+    1 3d0     1 3d2+    1 3d0     1 3d2+
                                   1 3d0     1 3d2+    1 3d0     1 3d2+    1 3d0     1 3d2+    1 3d0     1 3d2+    1 3d0     1 3d2+
                                   1 3d0     1 3d2+    1 3d0     1 3d2+    1 3d0     1 3d2+    1 3d0     1 3d2+    1 3d0     1 3d2+
                                   1 3d0     1 3d2+    1 5g0     1 5g4+    1 5g2+    1 5g0     1 5g4+    1 5g2+    1 5g0     1 5g4+
                                   1 5g2+    1 5g0     1 5g4+    1 5g2+    1 5g0     1 5g4+    1 5g2+    1 5g0     1 5g4+    1 5g2+
                                   1 5g0     1 5g4+    1 5g2+

   1.1   2    -6.2520  -24.5513  0.000000 -0.000000  0.000000 -0.000000  0.000000 -0.000000  0.000000 -0.000001  0.000003 -0.000007
                                 0.000018 -0.000047  0.000133 -0.000437  0.002462  0.008090 -0.005832  0.008903 -0.017500 -0.007638
                                 0.048856 -0.267960  0.332288 -0.199566  0.549523 -1.179812  0.087421  1.221373  0.167957  0.035865
                                -0.047023  0.070297 -0.105176  0.078208 -0.030478  0.011643 -0.002981  0.000528  0.000000 -0.000000
                                -0.000000  0.000000  0.000000 -0.000000 -0.000001  0.000002  0.000003 -0.000005 -0.000010  0.000017
                                 0.000030 -0.000052 -0.000095  0.000165  0.000482 -0.000836 -0.001207  0.002091  0.001154 -0.002000
                                -0.000731  0.001267  0.000600 -0.001039 -0.000641  0.001109 -0.001188  0.002058  0.000595 -0.001030
                                -0.001946  0.003372  0.002763 -0.004786 -0.001367  0.002369  0.000268 -0.000465 -0.000096  0.000166
                                 0.000025 -0.000044 -0.000000 -0.000000  0.000000  0.000000  0.000001 -0.000001 -0.000007 -0.000014
                                 0.000011 -0.000011 -0.000022  0.000017  0.000011  0.000022 -0.000017 -0.000004 -0.000009  0.000007
                                 0.000001  0.000003 -0.000002

   2.1   0    -3.3198  -16.9761  0.000000 -0.000000  0.000000 -0.000000  0.000000 -0.000000  0.000000 -0.000000  0.000000 -0.000000
                                 0.000000 -0.000001  0.000004 -0.000012  0.000065  0.000215 -0.000155  0.000236 -0.000464 -0.000203
                                 0.001302 -0.007889  0.010878 -0.007626  0.008397 -0.008885 -0.003774  0.025502 -0.014303 -0.011379
                                 0.004118 -0.004178  0.005591 -0.003923  0.001446 -0.000535  0.000134 -0.000023 -0.000000  0.000000
                                 0.000000 -0.000000 -0.000001  0.000002  0.000004 -0.000007 -0.000014  0.000025  0.000047 -0.000082
                                -0.000152  0.000264  0.000556 -0.000963 -0.003523  0.006103  0.010264 -0.017780 -0.010454  0.018108
                                 0.004327 -0.007495  0.060561 -0.104909 -0.327355  0.567071 -0.264830  0.458763  0.045525 -0.078862
                                -0.173074  0.299813  0.248491 -0.430458 -0.123980  0.214769  0.024546 -0.042521 -0.008777  0.015205
                                 0.002322 -0.004022 -0.000047 -0.000093  0.000070  0.000170  0.000335 -0.000253 -0.001948 -0.003843
                                 0.002904 -0.004660 -0.009192  0.006947  0.004394  0.008667 -0.006550 -0.001705 -0.003362  0.002541
                                 0.000546  0.001078 -0.000815

   3.1   0    -3.2803  -16.8709 -0.000000  0.000000 -0.000000  0.000000 -0.000000  0.000000 -0.000000  0.000000 -0.000000  0.000000
                                -0.000000  0.000000 -0.000000  0.000000 -0.000000 -0.000000  0.000000 -0.000000  0.000000  0.000000
                                -0.000000  0.000000 -0.000000  0.000000  0.000000 -0.000002  0.000002  0.000001 -0.000000 -0.000000
                                 0.000000 -0.000000  0.000000 -0.000000  0.000000 -0.000000  0.000000 -0.000000  0.000000  0.000000
                                -0.000000 -0.000000  0.000001  0.000000 -0.000003 -0.000002  0.000011  0.000006 -0.000037 -0.000021
                                 0.000127  0.000073 -0.000521 -0.000301  0.003820  0.002205 -0.011951 -0.006898  0.012451  0.007187
                                -0.003550 -0.002049 -0.107318 -0.061952  0.553295  0.319401  0.472080  0.272519 -0.076117 -0.043940
                                 0.296454  0.171135 -0.426415 -0.246158  0.213026  0.122974 -0.042234 -0.024381  0.015110  0.008722
                                -0.003997 -0.002308  0.000042 -0.000049 -0.000037 -0.000175  0.000208  0.000157  0.001638 -0.001939
                                -0.001466  0.004381 -0.005184 -0.003920 -0.004108  0.004861  0.003676  0.001591 -0.001882 -0.001424
                                -0.000510  0.000603  0.000456

                                   1 2px     1 2px     1 2px     1 2px     1 2px     1 2px     1 2px     1 2px     1 2px     1 2px
                                   1 2px     1 2px     1 2px     1 2px     1 2px     1 2px     1 2px     1 2px     1 2px     1 2px
                                   1 2px     1 2px     1 2px     1 2px     1 2px     1 2px     1 2px     1 2px     1 2px     1 2px
                                   1 2px     1 4f1+    1 4f3+    1 4f1+    1 4f3+    1 4f1+    1 4f3+    1 4f1+    1 4f3+    1 4f1+
                                   1 4f3+    1 4f1+    1 4f3+    1 4f1+    1 4f3+    1 4f1+    1 4f3+    1 4f1+    1 4f3+    1 4f1+
                                   1 4f3+    1 4f1+    1 4f3+    1 4f1+    1 4f3+    1 4f1+    1 4f3+    1 4f1+    1 4f3+    1 4f1+
                                   1 4f3+    1 6h1+    1 6h3+    1 6h5+    1 6h1+    1 6h3+    1 6h5+    1 6h1+    1 6h3+    1 6h5+


   1.2   2    -4.0024  -22.1609  0.000000 -0.000000  0.000000 -0.000000  0.000000 -0.000000  0.000000 -0.000000  0.000000 -0.000001
                                 0.000003 -0.000007  0.000020 -0.000061  0.000229 -0.002130  0.005596 -0.011861  0.023529 -0.025216
                                -0.000712  0.025890  0.005099  0.015518  0.000012  0.000608 -0.000043 -0.000000 -0.000006  0.000003
                                -0.000001 -0.000004  0.000005  0.000025 -0.000032 -0.000112  0.000145  0.000139 -0.000180 -0.029681
                                 0.038305 -0.016623  0.021453 -0.142763  0.184245 -0.171747  0.221652 -0.245225  0.316480 -0.175587
                                 0.226607 -0.022969  0.029643  0.001725 -0.002226 -0.001110  0.001432  0.000467 -0.000603 -0.000141
                                 0.000182 -0.000813  0.000878 -0.001178 -0.002359  0.002548 -0.003418 -0.000175  0.000189 -0.000254

   2.2   2    -4.0281  -22.1903 -0.000000  0.000000 -0.000000  0.000000 -0.000000  0.000000 -0.000000  0.000000 -0.000000  0.000000
                                -0.000000  0.000000 -0.000000  0.000000 -0.000000  0.000000 -0.000000  0.000001 -0.000002  0.000002
                                 0.000001 -0.000002 -0.000001 -0.000002 -0.000001 -0.000000  0.000000  0.000001 -0.000000  0.000000
                                -0.000000 -0.000005 -0.000004  0.000032  0.000025 -0.000147 -0.000114  0.000190  0.000147 -0.038330
                                -0.029700 -0.021262 -0.016475 -0.184210 -0.142736 -0.221484 -0.171617 -0.317758 -0.246215 -0.226616
                                -0.175594 -0.028836 -0.022344  0.002053  0.001590 -0.001284 -0.000995  0.000529  0.000410 -0.000158
                                -0.000122 -0.000882  0.000408  0.000913 -0.002560  0.001185  0.002651 -0.000181  0.000084  0.000187

   3.2   +    -5.3120  -21.9001  0.000000 -0.000000  0.000000 -0.000000  0.000000 -0.000000  0.000001 -0.000003  0.000010 -0.000031
                                 0.000091 -0.000253  0.000697 -0.002109  0.007774 -0.068957  0.178657 -0.352641  0.670427 -0.789526
                                 0.187576  0.832336  0.029782  0.215445 -0.199199 -0.012276  0.008888  0.197537 -0.004412  0.001868
                                -0.000410  0.000000 -0.000000 -0.000001  0.000002  0.000006 -0.000008 -0.000013  0.000016  0.001207
                                -0.001558  0.000519 -0.000670  0.005619 -0.007254  0.006483 -0.008368  0.009908 -0.012790  0.007156
                                -0.009238  0.000782 -0.001010 -0.000019  0.000025  0.000003 -0.000003  0.000002 -0.000003 -0.000001
                                 0.000001  0.000009 -0.000010  0.000013  0.000007 -0.000008  0.000011  0.000012 -0.000013  0.000017

   4.2   0    -2.2289  -11.4804 -0.000000  0.000000 -0.000000  0.000000 -0.000000  0.000000 -0.000001  0.000004 -0.000013  0.000042
                                -0.000123  0.000341 -0.000937  0.002822 -0.010257  0.085612 -0.210640  0.370637 -0.588287  0.631484
                                -0.272361 -0.308545 -1.010795  0.936425  2.071021  0.903264 -0.085797 -2.052877  0.045129 -0.018952
                                 0.004128 -0.000000  0.000000  0.000003 -0.000003 -0.000012  0.000016  0.000053 -0.000068 -0.000735
                                 0.000949  0.000614 -0.000793 -0.002120  0.002737 -0.000949  0.001226 -0.004264  0.005506  0.004508
                                -0.005821  0.018784 -0.024255  0.002319 -0.002995 -0.000574  0.000741  0.000143 -0.000184 -0.000032
                                 0.000041  0.000002 -0.000002  0.000003  0.000014 -0.000015  0.000020  0.000147 -0.000158  0.000213

   5.2   0    -1.7770  -10.9417  0.000000 -0.000000  0.000000 -0.000000  0.000000 -0.000000  0.000000 -0.000000  0.000000 -0.000000
                                 0.000000 -0.000000  0.000000 -0.000000  0.000000 -0.000000  0.000000 -0.000000 -0.000000  0.000001
                                 0.000001 -0.000001 -0.000001 -0.000006 -0.000030  0.000011  0.000003  0.000029 -0.000001  0.000000
                                -0.000000 -0.000000 -0.000000  0.000001  0.000001  0.000001  0.000001 -0.000260 -0.000201 -0.015338
                                -0.011884 -0.016852 -0.013057 -0.080174 -0.062119 -0.110204 -0.085386 -0.123184 -0.095443  0.086061
                                 0.066680  0.581608  0.450629  0.273247  0.211712 -0.111937 -0.086729  0.047049  0.036453 -0.014273
                                -0.011058 -0.000290  0.000134  0.000300 -0.000490  0.000227  0.000508  0.005215 -0.002415 -0.005401

                                   1 2py     1 2py     1 2py     1 2py     1 2py     1 2py     1 2py     1 2py     1 2py     1 2py
                                   1 2py     1 2py     1 2py     1 2py     1 2py     1 2py     1 2py     1 2py     1 2py     1 2py
                                   1 2py     1 2py     1 2py     1 2py     1 2py     1 2py     1 2py     1 2py     1 2py     1 2py
                                   1 2py     1 4f1-    1 4f3-    1 4f1-    1 4f3-    1 4f1-    1 4f3-    1 4f1-    1 4f3-    1 4f1-
                                   1 4f3-    1 4f1-    1 4f3-    1 4f1-    1 4f3-    1 4f1-    1 4f3-    1 4f1-    1 4f3-    1 4f1-
                                   1 4f3-    1 4f1-    1 4f3-    1 4f1-    1 4f3-    1 4f1-    1 4f3-    1 4f1-    1 4f3-    1 4f1-
                                   1 4f3-    1 6h1-    1 6h3-    1 6h5-    1 6h1-    1 6h3-    1 6h5-    1 6h1-    1 6h3-    1 6h5-


   1.3   2    -4.0087  -22.1695  0.000000 -0.000000  0.000000 -0.000000  0.000000 -0.000000  0.000000 -0.000000  0.000000 -0.000000
                                 0.000001 -0.000002  0.000006 -0.000019  0.000072 -0.000715  0.001914 -0.004438  0.009085 -0.008444
                                -0.003595  0.008421  0.003676  0.009041  0.002795  0.000641 -0.000158 -0.002763  0.000057 -0.000024
                                 0.000005 -0.000002  0.000006  0.000010 -0.000039 -0.000046  0.000178  0.000058 -0.000225 -0.012125
                                 0.046953 -0.006768  0.026207 -0.058301  0.225762 -0.070115  0.271512 -0.100259  0.388241 -0.071729
                                 0.277762 -0.009314  0.036068  0.000690 -0.002671 -0.000441  0.001706  0.000185 -0.000714 -0.000055
                                 0.000215 -0.000199  0.000645 -0.001443 -0.000578  0.001874 -0.004190 -0.000042  0.000137 -0.000307

   2.3   2    -4.0599  -22.2240 -0.000000  0.000000 -0.000000  0.000000 -0.000000  0.000000 -0.000000  0.000000 -0.000000  0.000000
                                -0.000000  0.000000 -0.000000  0.000000 -0.000001  0.000013 -0.000033  0.000067 -0.000128  0.000150
                                -0.000033 -0.000158 -0.000010 -0.000049  0.000034  0.000002 -0.000001 -0.000034  0.000001 -0.000000
                                 0.000000  0.000006  0.000002 -0.000040 -0.000010  0.000182  0.000047 -0.000244 -0.000063  0.046929
                                 0.012119  0.025797  0.006662  0.225389  0.058205  0.270936  0.069967  0.390779  0.100916  0.277019
                                 0.071538  0.034047  0.008792 -0.002245 -0.000580  0.001344  0.000347 -0.000535 -0.000138  0.000157
                                 0.000040  0.000360 -0.000723 -0.000373  0.001046 -0.002098 -0.001083  0.000069 -0.000138 -0.000071

   3.3   0    -4.7310  -21.2052  0.000000 -0.000000  0.000000 -0.000000  0.000000 -0.000000  0.000001 -0.000003  0.000009 -0.000029
                                 0.000085 -0.000235  0.000648 -0.001964  0.007250 -0.064669  0.168290 -0.335232  0.641944 -0.754093
                                 0.162055  0.791518  0.051794  0.244390 -0.173858 -0.008628  0.007564  0.172465 -0.003884  0.001649
                                -0.000362  0.000000 -0.000000 -0.000000  0.000001  0.000001 -0.000004 -0.000002  0.000008  0.000211
                                -0.000779  0.000095 -0.000346  0.000990 -0.003646  0.001149 -0.004225  0.001715 -0.006320  0.001402
                                -0.005204  0.000210 -0.000784 -0.000019  0.000073  0.000013 -0.000051 -0.000006  0.000023  0.000002
                                -0.000007 -0.000001  0.000003 -0.000008 -0.000006  0.000018 -0.000042  0.000002 -0.000006  0.000014

   4.3   0    -2.2411  -11.5572 -0.000000  0.000000 -0.000000  0.000000 -0.000000  0.000000 -0.000001  0.000004 -0.000014  0.000043
                                -0.000126  0.000350 -0.000961  0.002896 -0.010531  0.088041 -0.216927  0.383060 -0.608258  0.648648
                                -0.268497 -0.325374 -1.034140  0.950336  2.122180  0.901852 -0.089172 -2.103418  0.046165 -0.019379
                                 0.004221 -0.000000  0.000000  0.000001 -0.000003 -0.000004  0.000016  0.000018 -0.000069 -0.000242
                                 0.000938  0.000211 -0.000819 -0.000689  0.002669 -0.000288  0.001115 -0.001374  0.005326  0.001347
                                -0.005220  0.005970 -0.023132  0.000713 -0.002764 -0.000170  0.000658  0.000040 -0.000153 -0.000008
                                 0.000032  0.000001 -0.000002  0.000004  0.000003 -0.000009  0.000021  0.000027 -0.000088  0.000198

                                   1 3d2-    1 3d2-    1 3d2-    1 3d2-    1 3d2-    1 3d2-    1 3d2-    1 3d2-    1 3d2-    1 3d2-
                                   1 3d2-    1 3d2-    1 3d2-    1 3d2-    1 3d2-    1 3d2-    1 3d2-    1 3d2-    1 3d2-    1 3d2-
                                   1 3d2-    1 3d2-    1 5g2-    1 5g4-    1 5g2-    1 5g4-    1 5g2-    1 5g4-    1 5g2-    1 5g4-
                                   1 5g2-    1 5g4-    1 5g2-    1 5g4-    1 5g2-    1 5g4-

   1.4   0    -3.3145  -16.9611  0.000000 -0.000000  0.000002 -0.000007  0.000026 -0.000085  0.000276 -0.001021  0.006575 -0.019327
                                 0.019738 -0.007833 -0.121600  0.652331  0.532179 -0.090689  0.345893 -0.496741  0.247884 -0.049086
                                 0.017553 -0.004643  0.000040 -0.000105 -0.000148  0.000392  0.001626 -0.004304  0.003977 -0.010525
                                -0.003746  0.009914  0.001453 -0.003845 -0.000466  0.001232

   2.4   0    -1.7438   -9.4930  0.000000 -0.000002  0.000009 -0.000036  0.000130 -0.000407  0.001200 -0.003673  0.016889 -0.038307
                                 0.033084 -0.019076  0.111079 -0.591970 -0.032333  1.365042 -1.840807  2.569245 -1.246347  0.238263
                                -0.083732  0.021907 -0.000012  0.000032  0.000027 -0.000070 -0.000860  0.002277  0.006774 -0.017924
                                -0.002002  0.005297  0.001382 -0.003657 -0.000390  0.001033

                                   1 2pz     1 2pz     1 2pz     1 2pz     1 2pz     1 2pz     1 2pz     1 2pz     1 2pz     1 2pz
                                   1 2pz     1 2pz     1 2pz     1 2pz     1 2pz     1 2pz     1 2pz     1 2pz     1 2pz     1 2pz
                                   1 2pz     1 2pz     1 2pz     1 2pz     1 2pz     1 2pz     1 2pz     1 2pz     1 2pz     1 2pz
                                   1 2pz     1 4f0     1 4f2+    1 4f0     1 4f2+    1 4f0     1 4f2+    1 4f0     1 4f2+    1 4f0
                                   1 4f2+    1 4f0     1 4f2+    1 4f0     1 4f2+    1 4f0     1 4f2+    1 4f0     1 4f2+    1 4f0
                                   1 4f2+    1 4f0     1 4f2+    1 4f0     1 4f2+    1 4f0     1 4f2+    1 4f0     1 4f2+    1 4f0
                                   1 4f2+    1 6h2+    1 6h4+    1 6h0     1 6h2+    1 6h4+    1 6h0     1 6h2+    1 6h4+    1 6h0


   1.5   2    -4.0087  -22.1695  0.000000 -0.000000  0.000000 -0.000000  0.000000 -0.000000  0.000000 -0.000000  0.000000 -0.000000
                                 0.000001 -0.000002  0.000006 -0.000019  0.000072 -0.000713  0.001909 -0.004429  0.009068 -0.008424
                                -0.003599  0.008400  0.003674  0.009034  0.002800  0.000641 -0.000158 -0.002768  0.000057 -0.000024
                                 0.000005 -0.000004  0.000005  0.000025 -0.000032 -0.000113  0.000145  0.000142 -0.000183 -0.029697
                                 0.038336 -0.016576  0.021397 -0.142793  0.184331 -0.171730  0.221685 -0.245559  0.316991 -0.175683
                                 0.226787 -0.022813  0.029449  0.001689 -0.002180 -0.001079  0.001393  0.000452 -0.000583 -0.000136
                                 0.000175  0.001054 -0.000913 -0.000771  0.003060 -0.002650 -0.002239  0.000224 -0.000194 -0.000164

   2.5   2    -4.0599  -22.2240  0.000000 -0.000000  0.000000 -0.000000  0.000000 -0.000000  0.000000 -0.000000  0.000000 -0.000000
                                 0.000000 -0.000000  0.000000 -0.000000  0.000002 -0.000016  0.000043 -0.000085  0.000163 -0.000192
                                 0.000042  0.000201  0.000013  0.000062 -0.000044 -0.000002  0.000002  0.000044 -0.000001  0.000000
                                -0.000000 -0.000005 -0.000004  0.000033  0.000025 -0.000148 -0.000115  0.000199  0.000155 -0.038316
                                -0.029682 -0.021063 -0.016316 -0.184025 -0.142558 -0.221213 -0.171366 -0.319063 -0.247166 -0.226180
                                -0.175213 -0.027798 -0.021534  0.001833  0.001420 -0.001098 -0.000850  0.000437  0.000339 -0.000128
                                -0.000099  0.000273  0.000708 -0.000465  0.000791  0.002055 -0.001350  0.000052  0.000135 -0.000089

   3.5   0    -4.7310  -21.2052  0.000000 -0.000000  0.000000 -0.000000  0.000000 -0.000000  0.000001 -0.000003  0.000009 -0.000029
                                 0.000085 -0.000235  0.000648 -0.001964  0.007250 -0.064669  0.168289 -0.335231  0.641942 -0.754091
                                 0.162054  0.791516  0.051795  0.244390 -0.173857 -0.008628  0.007564  0.172464 -0.003884  0.001649
                                -0.000362  0.000000 -0.000000 -0.000001  0.000001  0.000002 -0.000003 -0.000005  0.000006  0.000503
                                -0.000629  0.000225 -0.000279  0.002356 -0.002945  0.002733 -0.003411  0.004084 -0.005105  0.003353
                                -0.004210  0.000503 -0.000635 -0.000047  0.000059  0.000033 -0.000041 -0.000015  0.000019  0.000004
                                -0.000006  0.000006 -0.000005 -0.000004  0.000030 -0.000027 -0.000022 -0.000010  0.000009  0.000008

   4.5   0    -2.2411  -11.5571 -0.000000  0.000000 -0.000000  0.000000 -0.000000  0.000000 -0.000001  0.000004 -0.000014  0.000043
                                -0.000126  0.000350 -0.000961  0.002896 -0.010531  0.088041 -0.216926  0.383058 -0.608255  0.648645
                                -0.268495 -0.325371 -1.034140  0.950330  2.122165  0.901855 -0.089171 -2.103404  0.046165 -0.019379
                                 0.004221 -0.000000  0.000000  0.000002 -0.000003 -0.000010  0.000013  0.000044 -0.000056 -0.000593
                                 0.000766  0.000518 -0.000669 -0.001687  0.002179 -0.000705  0.000910 -0.003367  0.004349  0.003301
                                -0.004262  0.014627 -0.018888  0.001748 -0.002257 -0.000416  0.000537  0.000097 -0.000125 -0.000020
                                 0.000026 -0.000003  0.000003  0.000002 -0.000015  0.000013  0.000011 -0.000144  0.000125  0.000106

                                   1 3d1+    1 3d1+    1 3d1+    1 3d1+    1 3d1+    1 3d1+    1 3d1+    1 3d1+    1 3d1+    1 3d1+
                                   1 3d1+    1 3d1+    1 3d1+    1 3d1+    1 3d1+    1 3d1+    1 3d1+    1 3d1+    1 3d1+    1 3d1+
                                   1 3d1+    1 3d1+    1 5g1+    1 5g3+    1 5g1+    1 5g3+    1 5g1+    1 5g3+    1 5g1+    1 5g3+
                                   1 5g1+    1 5g3+    1 5g1+    1 5g3+    1 5g1+    1 5g3+

   1.6   0    -3.3145  -16.9611  0.000000 -0.000000  0.000002 -0.000007  0.000026 -0.000085  0.000276 -0.001021  0.006575 -0.019326
                                 0.019738 -0.007833 -0.121599  0.652329  0.532181 -0.090688  0.345892 -0.496740  0.247883 -0.049086
                                 0.017553 -0.004643  0.000084 -0.000074 -0.000315  0.000277  0.003450 -0.003044  0.008437 -0.007442
                                -0.007947  0.007010  0.003082 -0.002719 -0.000988  0.000871

   2.6   0    -1.7438   -9.4930  0.000000 -0.000002  0.000009 -0.000036  0.000130 -0.000407  0.001200 -0.003673  0.016889 -0.038308
                                 0.033085 -0.019076  0.111079 -0.591968 -0.032337  1.365043 -1.840802  2.569238 -1.246345  0.238263
                                -0.083732  0.021907 -0.000026  0.000023  0.000056 -0.000050 -0.001825  0.001610  0.014370 -0.012674
                                -0.004247  0.003746  0.002932 -0.002586 -0.000828  0.000730

                                   1 3d1-    1 3d1-    1 3d1-    1 3d1-    1 3d1-    1 3d1-    1 3d1-    1 3d1-    1 3d1-    1 3d1-
                                   1 3d1-    1 3d1-    1 3d1-    1 3d1-    1 3d1-    1 3d1-    1 3d1-    1 3d1-    1 3d1-    1 3d1-
                                   1 3d1-    1 3d1-    1 5g1-    1 5g3-    1 5g1-    1 5g3-    1 5g1-    1 5g3-    1 5g1-    1 5g3-
                                   1 5g1-    1 5g3-    1 5g1-    1 5g3-    1 5g1-    1 5g3-

   1.7   0    -3.2803  -16.8709  0.000000 -0.000000  0.000001 -0.000003  0.000012 -0.000042  0.000146 -0.000602  0.004410 -0.013799
                                 0.014377 -0.004099 -0.123916  0.638868  0.545093 -0.087890  0.342304 -0.492365  0.245973 -0.048766
                                 0.017447 -0.004616  0.000026 -0.000070 -0.000111  0.000294  0.001036 -0.002742  0.002770 -0.007332
                                -0.002597  0.006875  0.001006 -0.002663 -0.000322  0.000853

   2.7   0    -1.7513   -9.5412  0.000000 -0.000002  0.000009 -0.000039  0.000137 -0.000431  0.001273 -0.003907  0.018068 -0.041253
                                 0.035908 -0.021167  0.115606 -0.603038 -0.034324  1.370049 -1.870017  2.607278 -1.264351  0.241646
                                -0.084917  0.022218 -0.000008  0.000021  0.000023 -0.000062 -0.000562  0.001488  0.004840 -0.012811
                                -0.001485  0.003929  0.000992 -0.002627 -0.000282  0.000746

                                   1 4f2-    1 4f2-    1 4f2-    1 4f2-    1 4f2-    1 4f2-    1 4f2-    1 4f2-    1 4f2-    1 4f2-
                                   1 4f2-    1 4f2-    1 4f2-    1 4f2-    1 4f2-    1 6h4-    1 6h2-    1 6h4-    1 6h2-    1 6h4-
                                   1 6h2-

   1.8   2    -4.0281  -22.1903  0.000006 -0.000041  0.000185 -0.000240  0.048490  0.026898  0.233038  0.280192  0.401985  0.286684
                                 0.036480 -0.002597  0.001624 -0.000670  0.000200 -0.001155  0.000667 -0.003353  0.001935 -0.000236
                                 0.000136

   2.8   0    -1.7770  -10.9417 -0.000000  0.000001  0.000002 -0.000328 -0.019403 -0.021318 -0.101424 -0.139412 -0.155833  0.108870
                                 0.735754  0.345667 -0.141604  0.059519 -0.018055  0.000380 -0.000219  0.000642 -0.000371 -0.006830
                                 0.003943

   3.8   0    -1.1574   -7.0786  0.000006 -0.000038  0.000177 -0.000578  0.020920  0.003402  0.083540  0.091658  0.122851 -0.205495
                                -0.577916  0.881080  0.238494  0.012558 -0.004534 -0.000303  0.000175  0.000483 -0.000279  0.004414
                                -0.002548

 HOMO      1.8    -4.028058 =    -109.6090eV
 LUMO      3.3    -4.730965 =    -128.7361eV
 LUMO-HOMO        -0.702908 =     -19.1271eV


 **********************************************************************************************************************************
 DATASETS  * FILE   NREC   LENGTH (MB)   RECORD NAMES
              1      19       21.31       500      610      700      900      950      970     1000      129      960     1100
                                          VAR    BASINP    GEOM    SYMINP    ZMAT    AOBASIS   BASIS     P2S    ABASIS      S
                                         1400     1410     1420     1200     1210     1080     1600     1650     1700
                                           T        V       ECP      H0       H01     AOSYM     SMH    MOLCAS    OPER

              2       5        6.25       200      700     1000      520     4202
                                        OPTIONS   GEOM     BASIS   MCVARS     RHF

 PROGRAMS   *        TOTAL       RHF       INT
 CPU TIMES  *       171.47     10.49    160.48
 REAL TIME  *       179.97 SEC
 DISK USED  *         8.15 GB
 SF USED    *         0.12 MB
 GA USED    *         0.00 MB       (max)       0.00 MB       (current)
 **********************************************************************************************************************************
   -->
   <time start="21:41:55" end="21:44:54" cpu="171.47" system="7.45" real="179.97"/>
   <storage units="megabyte" memory="8001.84" sf="0.12" df="352.05" eaf="7796.01" ga="0.0"/>
  </jobstep><!--
  --><jobstep command="POP" commandset="POP">
   <!--


 PROGRAM * POP (Mulliken population analysis)


 Density matrix read from record         4202.2  Type=RHF/CHARGE (state 1.2)

 Population analysis by basis function type

 Unique atom        s        p        d        f        g    Total    Charge
   1  LU      1.99999  1.00287  0.00001 13.99681  0.00000 17.00000  + 8.00000


 **********************************************************************************************************************************
 DATASETS  * FILE   NREC   LENGTH (MB)   RECORD NAMES
              1      19       21.31       500      610      700      900      950      970     1000      129      960     1100
                                          VAR    BASINP    GEOM    SYMINP    ZMAT    AOBASIS   BASIS     P2S    ABASIS      S
                                         1400     1410     1420     1200     1210     1080     1600     1650     1700
                                           T        V       ECP      H0       H01     AOSYM     SMH    MOLCAS    OPER

              2       5        6.25       200      700     1000      520     4202
                                        OPTIONS   GEOM     BASIS   MCVARS     RHF

 PROGRAMS   *        TOTAL       POP       RHF       INT
 CPU TIMES  *       171.48      0.01     10.49    160.48
 REAL TIME  *       179.99 SEC
 DISK USED  *         8.15 GB
 SF USED    *         0.12 MB
 GA USED    *         0.00 MB       (max)       0.00 MB       (current)
 **********************************************************************************************************************************
   -->
   <time start="21:44:54" end="21:44:54" cpu="0.01" system="0.0" real="0.02"/>
   <storage units="megabyte" memory="8001.84" sf="0.12" df="352.05" eaf="7796.01" ga="0.0"/>
  </jobstep><!--
  --><jobstep command="MULTI" commandset="MULTI">
   <!--


 PROGRAM * MULTI (Direct Multiconfiguration SCF)       Authors: P.J. Knowles, H.-J. Werner (1984)     S.T. Elbert (1988)


 Number of closed-shell orbitals:   8 (   1   2   2   0   2   0   0   1 )
 Number of active  orbitals:        3 (   0   1   1   0   1   0   0   0 )
 Number of external orbitals:     431 ( 102  67  67  36  67  36  36  20 )

 State symmetry 1

 Number of electrons:     1    Spin symmetry=Doublet   Space symmetry=2
 Number of states:        1
 Number of CSFs:          1   (1 determinants, 3 intermediate states)

 State symmetry 2

 Number of electrons:     1    Spin symmetry=Doublet   Space symmetry=3
 Number of states:        1
 Number of CSFs:          1   (1 determinants, 3 intermediate states)

 State symmetry 3

 Number of electrons:     1    Spin symmetry=Doublet   Space symmetry=5
 Number of states:        1
 Number of CSFs:          1   (1 determinants, 3 intermediate states)

 Molecular orbitals read from record     4202.2  Type=RHF/CANONICAL (state 1.2)
 *** IN SYMMETRY 1 ORBITAL  1 SYMMETRY CONTAMINATION OF 0.801D-02 HAS BEEN REMOVED

 EXTRA SYMMETRY OF MOS IN SYMMETRY 1:   1 3 2 1 2 3 1 4 5 6   2 3 1 4 5 5 2 3 1 4   5 6 2 3 1 2 3 1 2 3   4 1 6 6 1 2 3 1 2 3
                                        1 4 5 6 1 2 3 1 4 5   6 2 3 1 2 3 4 5 6 1   2 3 1 2 3 1 2 3 1 2   3 1 1 2 3 1 2 3 1 1
                                        2 3 1 2 3 1 1 2 3 1   1 2 3 1 1 1 1 1 1 1   1 1 1
 *** IN SYMMETRY 2 ORBITAL  1 SYMMETRY CONTAMINATION OF 0.473D+00 HAS BEEN REMOVED
 *** IN SYMMETRY 2 ORBITAL  2 SYMMETRY CONTAMINATION OF 0.439D+00 HAS BEEN REMOVED
 *** IN SYMMETRY 2 ORBITAL  3 SYMMETRY CONTAMINATION OF 0.190D-01 HAS BEEN REMOVED
 EXTRA SYMMETRY OF MOS IN SYMMETRY 2:   3 2 1 1 2 3 1 2 3 1   2 3 1 2 3 1 2 3 1 1   1 5 2 6 3 4 1 5 6 4   2 3 1 1 2 3 5 6 4 1
                                        2 3 1 1 2 3 1 2 3 1   1 2 3 1 2 3 1 1 2 3   1 1 1 1 1 1 1 1 1 1
 *** IN SYMMETRY 3 ORBITAL  1 SYMMETRY CONTAMINATION OF 0.236D+00 HAS BEEN REMOVED
 *** IN SYMMETRY 3 ORBITAL  2 SYMMETRY CONTAMINATION OF 0.209D+00 HAS BEEN REMOVED
 *** IN SYMMETRY 3 ORBITAL  3 SYMMETRY CONTAMINATION OF 0.757D-02 HAS BEEN REMOVED
 EXTRA SYMMETRY OF MOS IN SYMMETRY 3:   3 2 1 1 2 3 1 2 3 1   2 3 1 2 3 1 2 3 1 1   1 4 2 5 3 6 1 4 5 6   2 3 1 1 2 3 4 5 6 1
                                        2 3 1 1 2 3 1 2 3 1   1 2 3 1 2 3 1 1 2 3   1 1 1 1 1 1 1 1 1 1
 EXTRA SYMMETRY OF MOS IN SYMMETRY 4:   1 1 2 3 1 2 3 1 2 3   1 1 1 2 3 1 1 2 3 1   2 3 1 1 2 3 1 1 1 1   1 1 1 1 1 1
 *** IN SYMMETRY 5 ORBITAL  1 SYMMETRY CONTAMINATION OF 0.456D+00 HAS BEEN REMOVED
 *** IN SYMMETRY 5 ORBITAL  2 SYMMETRY CONTAMINATION OF 0.439D+00 HAS BEEN REMOVED
 *** IN SYMMETRY 5 ORBITAL  3 SYMMETRY CONTAMINATION OF 0.865D-02 HAS BEEN REMOVED
 EXTRA SYMMETRY OF MOS IN SYMMETRY 5:   3 2 1 1 2 3 1 2 3 1   2 3 1 2 3 1 2 3 1 1   1 6 2 5 3 4 1 6 5 4   2 3 1 1 2 3 6 5 4 1
                                        2 3 1 1 2 3 1 2 3 1   1 2 3 1 2 3 1 1 2 3   1 1 1 1 1 1 1 1 1 1
 EXTRA SYMMETRY OF MOS IN SYMMETRY 6:   1 1 3 2 1 3 2 1 3 2   1 1 1 3 2 1 1 3 2 1   3 2 1 1 3 2 1 1 1 1   1 1 1 1 1 1
 EXTRA SYMMETRY OF MOS IN SYMMETRY 7:   1 1 2 3 1 2 3 1 2 3   1 1 1 2 3 1 1 2 3 1   2 3 1 1 2 3 1 1 1 1   1 1 1 1 1 1
 *** IN SYMMETRY 8 ORBITAL  1 SYMMETRY CONTAMINATION OF 0.564D-02 HAS BEEN REMOVED
 EXTRA SYMMETRY OF MOS IN SYMMETRY 8:   1 1 1 1 1 1 3 1 2 3   2 1 1 3 2 1 1 1 1 1   1

 Wavefunction dump at record             5202.2

 Convergence thresholds  0.10E-01 (gradient)  0.10E-05 (energy)  0.10E-02 (step length)

 Weight factors for state symmetry  1:    0.33333
 Weight factors for state symmetry  2:    0.33333
 Weight factors for state symmetry  3:    0.33333

 Number of orbital rotations:      731   (     6 Core/Active    524 Core/Virtual   0 Active/Active    201 Active/Virtual)
 Total number of variables:        734


 ITER. MIC  NCI  NEG     ENERGY(VAR)     ENERGY(PROJ)   ENERGY CHANGE     GRAD(0)  GRAD(ORB)   GRAD(CI)     STEP       TIME

   1   23   12    0    -190.82915904    -190.83063202   -0.00147298    0.05183430 0.00000000 0.00000000  0.37D-01      1.11
   2   13   15    0    -190.83063207    -190.83063207   -0.00000000    0.00014541 0.00000000 0.00000000  0.19D-04      2.14

 ** WVFN ****  CONVERGENCE REACHED, FINAL GRADIENT:  0.67D-09



 Results for state 1.2
 =====================

 !MCSCF STATE 1.2 Energy             -190.830632071838
   --><property name="Energy" method="MCSCF" principal="true" stateSymmetry="2" stateNumber="1"
     value="-190.830632071838"/><!--
 Nuclear energy                         0.00000000
 Kinetic energy                       183.74929306
 One electron energy                 -307.45652227
 Two electron energy                  116.62589020
 Virial ratio                           2.03853805

 !MCSCF STATE 1.2 Dipole moment         0.00000000     0.00000000     0.00000000
 Dipole moment /Debye                   0.00000000     0.00000000     0.00000000
   --><property name="Dipole moment" method="MCSCF" principal="true" stateSymmetry="2"
     stateNumber="1" value="0.0 0.0 0.0"/><!--



 Results for state 1.3
 =====================

 !MCSCF STATE 1.3 Energy             -190.830632071838
   --><property name="Energy" method="MCSCF" principal="true" stateSymmetry="3" stateNumber="1"
     value="-190.830632071838"/><!--
 Nuclear energy                         0.00000000
 Kinetic energy                       183.74929306
 One electron energy                 -307.45652227
 Two electron energy                  116.62589020
 Virial ratio                           2.03853805

 !MCSCF STATE 1.3 Dipole moment         0.00000000     0.00000000     0.00000000
 Dipole moment /Debye                   0.00000000     0.00000000     0.00000000
   --><property name="Dipole moment" method="MCSCF" principal="true" stateSymmetry="3"
     stateNumber="1" value="0.0 0.0 0.0"/><!--



 Results for state 1.5
 =====================

 !MCSCF STATE 1.5 Energy             -190.830632071838
   --><property name="Energy" method="MCSCF" principal="true" stateSymmetry="5" stateNumber="1"
     value="-190.830632071838"/><!--
 Nuclear energy                         0.00000000
 Kinetic energy                       183.74929306
 One electron energy                 -307.45652227
 Two electron energy                  116.62589020
 Virial ratio                           2.03853805

 !MCSCF STATE 1.5 Dipole moment         0.00000000     0.00000000     0.00000000
 Dipole moment /Debye                   0.00000000     0.00000000     0.00000000
   --><property name="Dipole moment" method="MCSCF" principal="true" stateSymmetry="5"
     stateNumber="1" value="0.0 0.0 0.0"/><!--

 State-averaged charge density matrix saved on record  5202.2 (density set 1)


 NATURAL ORBITALS (state averaged)
 =================================

   Orb     Occ        Energy       Coefficients

                                   1 1s      1 1s      1 1s      1 1s      1 1s      1 1s      1 1s      1 1s      1 1s      1 1s
                                   1 1s      1 1s      1 1s      1 1s      1 1s      1 1s      1 1s      1 1s      1 1s      1 1s
                                   1 1s      1 1s      1 1s      1 1s      1 1s      1 1s      1 1s      1 1s      1 1s      1 1s
                                   1 1s      1 1s      1 1s      1 1s      1 1s      1 1s      1 1s      1 1s      1 3d0     1 3d2+
                                   1 3d0     1 3d2+    1 3d0     1 3d2+    1 3d0     1 3d2+    1 3d0     1 3d2+    1 3d0     1 3d2+
                                   1 3d0     1 3d2+    1 3d0     1 3d2+    1 3d0     1 3d2+    1 3d0     1 3d2+    1 3d0     1 3d2+
                                   1 3d0     1 3d2+    1 3d0     1 3d2+    1 3d0     1 3d2+    1 3d0     1 3d2+    1 3d0     1 3d2+
                                   1 3d0     1 3d2+    1 3d0     1 3d2+    1 3d0     1 3d2+    1 3d0     1 3d2+    1 3d0     1 3d2+
                                   1 3d0     1 3d2+    1 5g0     1 5g4+    1 5g2+    1 5g0     1 5g4+    1 5g2+    1 5g0     1 5g4+
                                   1 5g2+    1 5g0     1 5g4+    1 5g2+    1 5g0     1 5g4+    1 5g2+    1 5g0     1 5g4+    1 5g2+
                                   1 5g0     1 5g4+    1 5g2+

   1.1  2.00000    -6.251676     0.000000 -0.000000  0.000000 -0.000000  0.000000 -0.000000  0.000000 -0.000001  0.000003 -0.000007
                                 0.000018 -0.000047  0.000133 -0.000437  0.002462  0.008089 -0.005832  0.008902 -0.017498 -0.007637
                                 0.048850 -0.267925  0.332241 -0.199533  0.549473 -1.179711  0.087311  1.221373  0.168020  0.035842
                                -0.047006  0.070277 -0.105148  0.078188 -0.030470  0.011640 -0.002980  0.000528  0.000000  0.000000
                                 0.000000  0.000000  0.000000  0.000000  0.000000  0.000000  0.000000  0.000000  0.000000  0.000000
                                 0.000000  0.000000  0.000000  0.000000  0.000000  0.000000  0.000000  0.000000  0.000000  0.000000
                                 0.000000  0.000000  0.000000  0.000000  0.000000  0.000000  0.000000  0.000000  0.000000  0.000000
                                 0.000000  0.000000  0.000000  0.000000  0.000000  0.000000  0.000000  0.000000  0.000000  0.000000
                                 0.000000  0.000000  0.000000  0.000000  0.000000  0.000000  0.000000  0.000000  0.000000  0.000000
                                 0.000000  0.000000  0.000000  0.000000  0.000000  0.000000  0.000000  0.000000  0.000000  0.000000
                                 0.000000  0.000000  0.000000

                                   1 2px     1 2px     1 2px     1 2px     1 2px     1 2px     1 2px     1 2px     1 2px     1 2px
                                   1 2px     1 2px     1 2px     1 2px     1 2px     1 2px     1 2px     1 2px     1 2px     1 2px
                                   1 2px     1 2px     1 2px     1 2px     1 2px     1 2px     1 2px     1 2px     1 2px     1 2px
                                   1 2px     1 4f1+    1 4f3+    1 4f1+    1 4f3+    1 4f1+    1 4f3+    1 4f1+    1 4f3+    1 4f1+
                                   1 4f3+    1 4f1+    1 4f3+    1 4f1+    1 4f3+    1 4f1+    1 4f3+    1 4f1+    1 4f3+    1 4f1+
                                   1 4f3+    1 4f1+    1 4f3+    1 4f1+    1 4f3+    1 4f1+    1 4f3+    1 4f1+    1 4f3+    1 4f1+
                                   1 4f3+    1 6h1+    1 6h3+    1 6h5+    1 6h1+    1 6h3+    1 6h5+    1 6h1+    1 6h3+    1 6h5+


   1.2  2.00000    -4.027594     0.000000  0.000000  0.000000  0.000000  0.000000  0.000000  0.000000  0.000000  0.000000  0.000000
                                 0.000000  0.000000  0.000000  0.000000  0.000000  0.000000  0.000000  0.000000  0.000000  0.000000
                                 0.000000  0.000000  0.000000  0.000000  0.000000  0.000000  0.000000  0.000000  0.000000  0.000000
                                 0.000000 -0.000006  0.000000  0.000041  0.000000 -0.000185  0.000000  0.000240  0.000000 -0.048488
                                 0.000000 -0.026900  0.000000 -0.233034  0.000000 -0.280191  0.000000 -0.401984  0.000000 -0.286696
                                 0.000000 -0.036504  0.000000  0.002602  0.000000 -0.001629  0.000000  0.000672  0.000000 -0.000200
                                 0.000000  0.000000  0.000000  0.000000  0.000000  0.000000  0.000000  0.000000  0.000000  0.000000

   2.2  2.00000    -4.027594     0.000000  0.000000  0.000000  0.000000  0.000000  0.000000  0.000000  0.000000  0.000000  0.000000
                                 0.000000  0.000000  0.000000  0.000000  0.000000  0.000000  0.000000  0.000000  0.000000  0.000000
                                 0.000000  0.000000  0.000000  0.000000  0.000000  0.000000  0.000000  0.000000  0.000000  0.000000
                                 0.000000  0.000000  0.000006  0.000000 -0.000041  0.000000  0.000185  0.000000 -0.000240  0.000000
                                 0.048488  0.000000  0.026900  0.000000  0.233034  0.000000  0.280191  0.000000  0.401984  0.000000
                                 0.286696  0.000000  0.036504  0.000000 -0.002602  0.000000  0.001629  0.000000 -0.000672  0.000000
                                 0.000200  0.000000  0.000000  0.000000  0.000000  0.000000  0.000000  0.000000  0.000000  0.000000

   3.2  0.33333    -4.785234     0.000000 -0.000000  0.000000 -0.000000  0.000000 -0.000000  0.000001 -0.000003  0.000010 -0.000031
                                 0.000091 -0.000254  0.000698 -0.002113  0.007790 -0.069108  0.179051 -0.353457  0.671764 -0.790582
                                 0.187383  0.833558  0.029506  0.215621 -0.199446 -0.012284  0.008899  0.197783 -0.004417  0.001871
                                -0.000410  0.000000  0.000000  0.000000  0.000000  0.000000  0.000000  0.000000  0.000000  0.000000
                                 0.000000  0.000000  0.000000  0.000000  0.000000  0.000000  0.000000  0.000000  0.000000  0.000000
                                 0.000000  0.000000  0.000000  0.000000  0.000000  0.000000  0.000000  0.000000  0.000000  0.000000
                                 0.000000  0.000000  0.000000  0.000000  0.000000  0.000000  0.000000  0.000000  0.000000  0.000000

                                   1 2py     1 2py     1 2py     1 2py     1 2py     1 2py     1 2py     1 2py     1 2py     1 2py
                                   1 2py     1 2py     1 2py     1 2py     1 2py     1 2py     1 2py     1 2py     1 2py     1 2py
                                   1 2py     1 2py     1 2py     1 2py     1 2py     1 2py     1 2py     1 2py     1 2py     1 2py
                                   1 2py     1 4f1-    1 4f3-    1 4f1-    1 4f3-    1 4f1-    1 4f3-    1 4f1-    1 4f3-    1 4f1-
                                   1 4f3-    1 4f1-    1 4f3-    1 4f1-    1 4f3-    1 4f1-    1 4f3-    1 4f1-    1 4f3-    1 4f1-
                                   1 4f3-    1 4f1-    1 4f3-    1 4f1-    1 4f3-    1 4f1-    1 4f3-    1 4f1-    1 4f3-    1 4f1-
                                   1 4f3-    1 6h1-    1 6h3-    1 6h5-    1 6h1-    1 6h3-    1 6h5-    1 6h1-    1 6h3-    1 6h5-


   1.3  2.00000    -4.027594     0.000000  0.000000  0.000000  0.000000  0.000000  0.000000  0.000000  0.000000  0.000000  0.000000
                                 0.000000  0.000000  0.000000  0.000000  0.000000  0.000000  0.000000  0.000000  0.000000  0.000000
                                 0.000000  0.000000  0.000000  0.000000  0.000000  0.000000  0.000000  0.000000  0.000000  0.000000
                                 0.000000  0.000006  0.000000 -0.000041  0.000000  0.000185  0.000000 -0.000240  0.000000  0.048488
                                 0.000000  0.026900  0.000000  0.233034  0.000000  0.280191  0.000000  0.401984  0.000000  0.286696
                                 0.000000  0.036504  0.000000 -0.002602  0.000000  0.001629  0.000000 -0.000672  0.000000  0.000200
                                 0.000000  0.000000  0.000000  0.000000  0.000000  0.000000  0.000000  0.000000  0.000000  0.000000

   2.3  2.00000    -4.027594     0.000000  0.000000  0.000000  0.000000  0.000000  0.000000  0.000000  0.000000  0.000000  0.000000
                                 0.000000  0.000000  0.000000  0.000000  0.000000  0.000000  0.000000  0.000000  0.000000  0.000000
                                 0.000000  0.000000  0.000000  0.000000  0.000000  0.000000  0.000000  0.000000  0.000000  0.000000
                                 0.000000  0.000000  0.000006  0.000000 -0.000041  0.000000  0.000185  0.000000 -0.000240  0.000000
                                 0.048488  0.000000  0.026900  0.000000  0.233034  0.000000  0.280191  0.000000  0.401984  0.000000
                                 0.286696  0.000000  0.036504  0.000000 -0.002602  0.000000  0.001629  0.000000 -0.000672  0.000000
                                 0.000200  0.000000  0.000000  0.000000  0.000000  0.000000  0.000000  0.000000  0.000000  0.000000

   3.3  0.33333    -4.785234     0.000000 -0.000000  0.000000 -0.000000  0.000000 -0.000000  0.000001 -0.000003  0.000010 -0.000031
                                 0.000091 -0.000254  0.000698 -0.002113  0.007790 -0.069108  0.179051 -0.353457  0.671764 -0.790582
                                 0.187383  0.833558  0.029506  0.215621 -0.199446 -0.012284  0.008899  0.197783 -0.004417  0.001871
                                -0.000410  0.000000  0.000000  0.000000  0.000000  0.000000  0.000000  0.000000  0.000000  0.000000
                                 0.000000  0.000000  0.000000  0.000000  0.000000  0.000000  0.000000  0.000000  0.000000  0.000000
                                 0.000000  0.000000  0.000000  0.000000  0.000000  0.000000  0.000000  0.000000  0.000000  0.000000
                                 0.000000  0.000000  0.000000  0.000000  0.000000  0.000000  0.000000  0.000000  0.000000  0.000000

                                   1 2pz     1 2pz     1 2pz     1 2pz     1 2pz     1 2pz     1 2pz     1 2pz     1 2pz     1 2pz
                                   1 2pz     1 2pz     1 2pz     1 2pz     1 2pz     1 2pz     1 2pz     1 2pz     1 2pz     1 2pz
                                   1 2pz     1 2pz     1 2pz     1 2pz     1 2pz     1 2pz     1 2pz     1 2pz     1 2pz     1 2pz
                                   1 2pz     1 4f0     1 4f2+    1 4f0     1 4f2+    1 4f0     1 4f2+    1 4f0     1 4f2+    1 4f0
                                   1 4f2+    1 4f0     1 4f2+    1 4f0     1 4f2+    1 4f0     1 4f2+    1 4f0     1 4f2+    1 4f0
                                   1 4f2+    1 4f0     1 4f2+    1 4f0     1 4f2+    1 4f0     1 4f2+    1 4f0     1 4f2+    1 4f0
                                   1 4f2+    1 6h2+    1 6h4+    1 6h0     1 6h2+    1 6h4+    1 6h0     1 6h2+    1 6h4+    1 6h0


   1.5  2.00000    -4.027594     0.000000  0.000000  0.000000  0.000000  0.000000  0.000000  0.000000  0.000000  0.000000  0.000000
                                 0.000000  0.000000  0.000000  0.000000  0.000000  0.000000  0.000000  0.000000  0.000000  0.000000
                                 0.000000  0.000000  0.000000  0.000000  0.000000  0.000000  0.000000  0.000000  0.000000  0.000000
                                 0.000000 -0.000006  0.000000  0.000041  0.000000 -0.000185  0.000000  0.000240  0.000000 -0.048488
                                 0.000000 -0.026900  0.000000 -0.233034  0.000000 -0.280191  0.000000 -0.401984  0.000000 -0.286696
                                 0.000000 -0.036504  0.000000  0.002602  0.000000 -0.001629  0.000000  0.000672  0.000000 -0.000200
                                 0.000000  0.000000  0.000000  0.000000  0.000000  0.000000  0.000000  0.000000  0.000000  0.000000

   2.5  2.00000    -4.027594     0.000000  0.000000  0.000000  0.000000  0.000000  0.000000  0.000000  0.000000  0.000000  0.000000
                                 0.000000  0.000000  0.000000  0.000000  0.000000  0.000000  0.000000  0.000000  0.000000  0.000000
                                 0.000000  0.000000  0.000000  0.000000  0.000000  0.000000  0.000000  0.000000  0.000000  0.000000
                                 0.000000  0.000000  0.000006  0.000000 -0.000041  0.000000  0.000185  0.000000 -0.000240  0.000000
                                 0.048488  0.000000  0.026900  0.000000  0.233034  0.000000  0.280191  0.000000  0.401984  0.000000
                                 0.286696  0.000000  0.036504  0.000000 -0.002602  0.000000  0.001629  0.000000 -0.000672  0.000000
                                 0.000200  0.000000  0.000000  0.000000  0.000000  0.000000  0.000000  0.000000  0.000000  0.000000

   3.5  0.33333    -4.785234     0.000000 -0.000000  0.000000 -0.000000  0.000000 -0.000000  0.000001 -0.000003  0.000010 -0.000031
                                 0.000091 -0.000254  0.000698 -0.002113  0.007790 -0.069108  0.179051 -0.353457  0.671764 -0.790582
                                 0.187383  0.833558  0.029506  0.215621 -0.199446 -0.012284  0.008899  0.197783 -0.004417  0.001871
                                -0.000410  0.000000  0.000000 -0.000000  0.000000  0.000000  0.000000 -0.000000  0.000000  0.000000
                                 0.000000  0.000000  0.000000  0.000000  0.000000  0.000000  0.000000  0.000000  0.000000  0.000000
                                 0.000000  0.000000  0.000000 -0.000000  0.000000  0.000000  0.000000 -0.000000  0.000000  0.000000
                                 0.000000  0.000000  0.000000  0.000000  0.000000  0.000000  0.000000  0.000000  0.000000  0.000000

                                   1 4f2-    1 4f2-    1 4f2-    1 4f2-    1 4f2-    1 4f2-    1 4f2-    1 4f2-    1 4f2-    1 4f2-
                                   1 4f2-    1 4f2-    1 4f2-    1 4f2-    1 4f2-    1 6h4-    1 6h2-    1 6h4-    1 6h2-    1 6h4-
                                   1 6h2-

   1.8  2.00000    -4.027594     0.000006 -0.000041  0.000185 -0.000240  0.048488  0.026900  0.233034  0.280191  0.401984  0.286696
                                 0.036504 -0.002602  0.001629 -0.000672  0.000200  0.000000  0.000000  0.000000  0.000000  0.000000
                                 0.000000

 Total charge:   8.000000000000


 EXTRA SYMMETRY OF MOS IN SYMMETRY 1:   1 2 3 1 3 2 1 6 5 4   3 2 1 5 4 6 3 2 1 6   5 4 3 2 1 3 2 1 3 2   1 5 4 6 1 3 2 1 3 2
                                        1 5 4 6 1 2 3 1 4 6   5 2 3 1 3 2 5 4 6 1   2 3 1 2 3 1 2 3 1 2   3 1 1 2 3 1 2 3 1 1
                                        2 3 1 3 2 1 1 3 2 1   1 2 3 1 1 1 1 1 1 1   1 1 1
 EXTRA SYMMETRY OF MOS IN SYMMETRY 2:   2 3 1 1 3 2 1 3 2 1   2 3 1 2 3 1 3 2 1 1   1 4 5 6 2 3 1 4 6 5   2 3 1 1 3 2 5 6 4 1
                                        3 2 1 1 3 2 1 3 2 1   1 3 2 1 2 3 1 1 2 3   1 1 1 1 1 1 1 1 1 1
 EXTRA SYMMETRY OF MOS IN SYMMETRY 3:   2 3 1 1 2 3 1 2 3 1   3 2 1 3 2 1 3 2 1 1   1 5 4 6 2 3 1 4 5 6   3 2 1 1 3 2 6 5 4 1
                                        3 2 1 1 3 2 1 3 2 1   1 3 2 1 2 3 1 1 3 2   1 1 1 1 1 1 1 1 1 1
 EXTRA SYMMETRY OF MOS IN SYMMETRY 4:   1 1 2 3 1 3 2 1 3 2   1 1 1 3 2 1 1 3 2 1   3 2 1 1 3 2 1 1 1 1   1 1 1 1 1 1
 EXTRA SYMMETRY OF MOS IN SYMMETRY 5:   2 3 1 1 2 3 1 3 2 1   2 3 1 2 3 1 2 3 1 1   1 6 4 5 2 3 1 6 5 4   2 3 1 1 2 3 6 5 4 1
                                        2 3 1 1 2 3 1 2 3 1   1 2 3 1 3 2 1 1 2 3   1 1 1 1 1 1 1 1 1 1
 EXTRA SYMMETRY OF MOS IN SYMMETRY 6:   1 1 2 3 1 3 2 1 2 3   1 1 1 2 3 1 1 3 2 1   2 3 1 1 3 2 1 1 1 1   1 1 1 1 1 1
 EXTRA SYMMETRY OF MOS IN SYMMETRY 7:   1 1 2 3 1 3 2 1 3 2   1 1 1 2 3 1 1 2 3 1   2 3 1 1 3 2 1 1 1 1   1 1 1 1 1 1
 EXTRA SYMMETRY OF MOS IN SYMMETRY 8:   1 1 1 1 1 1 3 2 1 3   2 1 1 2 3 1 1 1 1 1   1

 Natural orbital dump (state averaged) at molpro section  5202.2    (Orbital set 2)


 CI vector for state symmetry 1
 ==============================

 a 0 0           1.0000000

 TOTAL ENERGIES                      -190.83063207

 CI vector for state symmetry 2
 ==============================

 0 a 0           1.0000000

 TOTAL ENERGIES                      -190.83063207

 CI vector for state symmetry 3
 ==============================

 0 0 a           1.0000000

 TOTAL ENERGIES                      -190.83063207



 **********************************************************************************************************************************
 DATASETS  * FILE   NREC   LENGTH (MB)   RECORD NAMES
              1      20       41.81       500      610      700      900      950      970     1000      129      960     1100
                                          VAR    BASINP    GEOM    SYMINP    ZMAT    AOBASIS   BASIS     P2S    ABASIS      S
                                         1400     1410     1420     1200     1210     1080     1600     1650     1700     1380
                                           T        V       ECP      H0       H01     AOSYM     SMH    MOLCAS    OPER     JKOP

              2       6        9.83       200      700     1000      520     4202     5202
                                        OPTIONS   GEOM     BASIS   MCVARS     RHF     MCSCF

 PROGRAMS   *        TOTAL     MULTI       POP       RHF       INT
 CPU TIMES  *       174.81      3.32      0.01     10.49    160.48
 REAL TIME  *       183.63 SEC
 DISK USED  *         8.15 GB
 SF USED    *        76.43 MB
 GA USED    *         0.00 MB       (max)       0.00 MB       (current)
 **********************************************************************************************************************************
   -->
   <time start="21:44:54" end="21:44:58" cpu="3.33" system="0.24" real="3.64"/>
   <storage units="megabyte" memory="8001.84" sf="76.43" df="352.05" eaf="7796.01" ga="0.0"/>
  </jobstep><!--
  --><jobstep command="RHF-SCF" commandset="SCFPRO">
   <!--


 PROGRAM * RHF-SCF (OPEN SHELL)       Authors: W. Meyer, H.-J. Werner


 NUMBER OF ELECTRONS:       9+    8-    SPACE SYMMETRY=2    SPIN SYMMETRY: Doublet
 CONVERGENCE THRESHOLDS:    1.00E-05 (Density)    1.00E-07 (Energy)
 MAX. NUMBER OF ITERATIONS:        0
 INTERPOLATION TYPE:            DIIS
 INTERPOLATION STEPS:              2 (START)      1 (STEP)
 LEVEL SHIFTS:                 -0.60 (CLOSED) -0.30 (OPEN)

 Number of closed-shell orbitals:    8 (   1   2   2   0   2   0   0   1 )
 Number of open-shell orbitals:      1 (   0   1   0   0   0   0   0   0 )


 Molecular orbitals read from record     5202.2  Type=MCSCF/NATURAL (state averaged)

 Molecular orbital dump at record        2132.2

 ITERATION    DDIFF          GRAD             ENERGY        2-EL.EN.            DIPOLE MOMENTS         DIIS   ORB.
    1      0.000D+00      0.000D+00      -190.83063207    233.251780    0.00000    0.00000    0.00000    0    start

 Final alpha occupancy:   1   3   2   0   2   0   0   1
 Final beta  occupancy:   1   2   2   0   2   0   0   1

 !RHF STATE 1.2 Energy               -190.830632071838
   --><property name="Energy" method="RHF" principal="true" stateSymmetry="2" stateNumber="1"
     value="-190.830632071838"/><!--
 Nuclear energy                         0.00000000
 One-electron energy                 -307.45652227
 Two-electron energy                  116.62589020
 Virial quotient                       -1.03853805
 !RHF STATE 1.2 Dipole moment           0.00000000     0.00000000     0.00000000
 Dipole moment /Debye                   0.00000000     0.00000000     0.00000000
   --><property name="Dipole moment" method="RHF" principal="true" stateSymmetry="2"
     stateNumber="1" value="0.0 0.0 0.0"/><!--

 Orbital energies:

         1.1          2.1          3.1
     -6.251676    -3.262505    -3.262505

         1.2          2.2          3.2          4.2          5.2
     -4.027594    -4.027594    -4.785234    -2.231423    -1.774034

         1.3          2.3          3.3          4.3
     -4.027594    -4.027594    -4.785234    -2.231423

         1.4          2.4
     -3.262505    -1.740835

         1.5          2.5          3.5          4.5
     -4.027594    -4.027594    -4.785234    -2.231423

         1.6          2.6
     -3.262505    -1.740835

         1.7          2.7
     -3.262505    -1.740835

         1.8          2.8          3.8
     -4.027594    -1.774034    -1.155945

 HOMO      2.3    -4.027594 =    -109.5964eV
 LUMO      3.3    -4.785234 =    -130.2128eV
 LUMO-HOMO        -0.757640 =     -20.6164eV


 **********************************************************************************************************************************
 DATASETS  * FILE   NREC   LENGTH (MB)   RECORD NAMES
              1      20       41.81       500      610      700      900      950      970     1000      129      960     1100
                                          VAR    BASINP    GEOM    SYMINP    ZMAT    AOBASIS   BASIS     P2S    ABASIS      S
                                         1400     1410     1420     1200     1210     1080     1600     1650     1700     1380
                                           T        V       ECP      H0       H01     AOSYM     SMH    MOLCAS    OPER     JKOP

              2       7       13.66       200      700     1000      520     4202     5202     2132
                                        OPTIONS   GEOM     BASIS   MCVARS     RHF     MCSCF     RHF

 PROGRAMS   *        TOTAL       RHF     MULTI       POP       RHF       INT
 CPU TIMES  *       175.01      0.19      3.32      0.01     10.49    160.48
 REAL TIME  *       183.86 SEC
 DISK USED  *         8.15 GB
 SF USED    *        76.43 MB
 GA USED    *         0.00 MB       (max)       0.00 MB       (current)
 **********************************************************************************************************************************
   -->
   <time start="21:44:58" end="21:44:58" cpu="0.2" system="0.02" real="0.23"/>
   <storage units="megabyte" memory="8001.84" sf="76.43" df="352.05" eaf="7796.01" ga="0.0"/>
  </jobstep><!--
 SETTING SCF(15)        =      -190.83063207  AU
 SETTING _CC_NORM_MAX   =         2.00000000
  --><jobstep command="RCCSD(T)" commandset="CCSD">
   <!--


 PROGRAM * CCSD (Restricted open-shell coupled cluster)     Authors: C. Hampel, H.-J. Werner, 1991, M. Deegan, P.J. Knowles, 1992


 Convergence thresholds:  THRVAR = 1.00D-08  THRDEN = 1.00D-06

 CCSD(T)     terms to be evaluated (factor= 1.000)


 Number of closed-shell orbitals:   8 (   1   2   2   0   2   0   0   1 )
 Number of active  orbitals:        1 (   0   1   0   0   0   0   0   0 )
 Number of external orbitals:     433 ( 102  67  68  36  68  36  36  20 )

 Memory could be reduced to 170.29 Mwords without degradation in triples

 Number of N-1 electron functions:              17
 Number of N-2 electron functions:             136
 Number of singly external CSFs:              1128
 Number of doubly external CSFs:           2462472
 Total number of CSFs:                     2463600

 Molecular orbitals read from record     2132.2  Type=RHF/CANONICAL (state 1.2)

 Integral transformation finished. Total CPU:   4.28 sec, npass=  1  Memory used:  30.50 MW

 Starting RMP2 calculation

 Wavefunction is spin-projected

 ITER.      SQ.NORM     CORR.ENERGY   TOTAL ENERGY   ENERGY CHANGE        DEN1      VAR(S)    VAR(P)  DIIS     TIME
   1      9.24750470    -2.17139089  -193.00202296    -2.17139089     1.07059069  0.11D+02  0.11D+00  0  0     5.25
   2    264.70215725    -1.10080019  -191.93143226     1.07059069    32.89522443  0.36D+03  0.11D+00  0  0     5.43

 UNREASONABLE NORM:264.702157 CALCULATION WILL BE STOPPED

 The threshold can be changed using option CC_NORM_MAX (see manual). The current value is CC_NORM_MAX=2.00

 Norm of t1 vector:     16.20821843      S-energy:     0.91333162      T1 diagnostic:  2.77963221
 Norm of t2 vector:      0.99790413      P-energy:    -2.01413182
                                         Alpha-Beta:  -1.36911341
                                         Alpha-Alpha: -0.33587647
                                         Beta-Beta:   -0.30914193

 Singles amplitudes (print threshold =  0.500E-01):

         I         SYM. A    A   T(IA) [Alpha-Alpha]

         5         3         1     -0.40793908
         6         3         1      0.55909046
         7         5         1      0.67621993
         8         5         1      0.65540457

         I         SYM. A    A   T(IA) [Beta-Beta]

         2         2         1     11.81572287
         3         2         1     10.95608422
         5         3         1     -0.47372986
         6         3         1      0.59877878
         7         5         1      0.76266399
         8         5         1      0.72303253

 Spin contamination <S**2-Sz**2-Sz>     0.00000000


 RESULTS
 =======

  Reference energy                   -190.830632071838
   --><property name="energy" method="Reference" stateSymmetry="1" stateNumber="1"
     value="-190.830632071838"/><!--
  RCCSD singles energy                  0.913331624574
   --><property name="energy" method="RCCSD singles" stateSymmetry="1" stateNumber="1"
     value="0.91333162457449"/><!--
  RCCSD pair energy                    -2.014131817420
   --><property name="energy" method="RCCSD pair" stateSymmetry="1" stateNumber="1"
     value="-2.01413181741982"/><!--
  RCCSD correlation energy             -1.100800192845
   --><property name="energy" method="RCCSD correlation" stateSymmetry="1" stateNumber="1"
     value="-1.10080019284533"/><!--

 !RHF-RCCSD energy                   -191.931432264684
   --><property name="energy" method="RHF-RCCSD" principal="true" stateSymmetry="1"
     stateNumber="1" value="-191.931432264684"/><!--

 Program statistics:

 Available memory in ccsd:               999999162
 Min. memory needed in ccsd:               7041070
 Max. memory used in ccsd:                10017550
 Max. memory used in cckext:                     0 ( 0 integral passes)
 Max. memory used in cckint:              30499174 ( 1 integral passes)


 ? Error
 ? No convergence. This error exit can be avoided using the NOCHECK option
 ? The problem occurs in ccsd
   --><error type="Error" location="ccsd"
     message="No convergence. This error exit can be avoided using the NOCHECK option"/><!--
  --></jobstep><!--
  -->
  <input>
  <!--
 --></job><!--
--></molpro>
