<?xml version="1.0"?>
<molpro xmlns="http://www.molpro.net/schema/molpro-output"
  xmlns:xsd="http://www.w3.org/1999/XMLSchema"
  xmlns:cml="http://www.xml-cml.org/schema"
  xmlns:stm="http://www.xml-cml.org/schema"
  xmlns:xhtml="http://www.w3.org/1999/xhtml">
 <!--

 Nodes     nprocs
 nid01061    11
 Number of processes for MPI-2 version of Molpro:   nprocs(total)=   12   nprocs(compute)=   11   nprocs(helper)=    1

 Using customized tuning parameters: mindgm=7; mindgv=16; mindgc=1; mindgr=1; noblas=0; minvec=7
 default implementation of scratch files=sf

 --><job>
  <!--

 Variables initialized (889), CPU time= 0.01 sec
 Commands  initialized (702), CPU time= 0.01 sec, 572 directives.
 Default parameters read. Elapsed time= 0.12 sec

 Checking input...
 Passed
1


                                         ***  PROGRAM SYSTEM MOLPRO  ***
                                       Copyright, TTI GmbH Stuttgart, 2015
                                    Version 2015.1 linked Dec 29 2018 15:55:43


 **********************************************************************************************************************************
 LABEL *   Calculation for Lu atom, singlet and triplet
  64 bit mpp version                                                                     DATE: 30-Mar-23          TIME: 06:23:38
 **********************************************************************************************************************************

 SHA1:             19cd028119e0e09f93f0674bd8af7968d9b3eff6
 **********************************************************************************************************************************
  -->
  <!--

 THRESHOLDS:

 ZERO    =  1.00D-12  ONEINT  =  1.00D-12  TWOINT  =  1.00D-15  PREFAC  =  1.00D-14  LOCALI  =  1.00D-09  EORDER  =  1.00D-04
 ENERGY  =  0.00D+00  ETEST   =  0.00D+00  EDENS   =  0.00D+00  THRDEDEF=  1.00D-06  GRADIENT=  1.00D-02  STEP    =  1.00D-03
 ORBITAL =  1.00D-05  CIVEC   =  1.00D-05  COEFF   =  1.00D-04  PRINTCI =  5.00D-02  PUNCHCI =  9.90D+01  OPTGRAD =  3.00D-04
 OPTENERG=  1.00D-06  OPTSTEP =  3.00D-04  THRGRAD =  1.00D-10  COMPRESS=  1.00D-11  VARMIN  =  1.00D-07  VARMAX  =  1.00D-03
 THRDOUB =  0.00D+00  THRDIV  =  1.00D-05  THRRED  =  1.00D-07  THRPSP  =  1.00D+00  THRDC   =  1.00D-10  THRCS   =  1.00D-10
 THRNRM  =  1.00D-08  THREQ   =  0.00D+00  THRDE   =  1.00D+00  THRREF  =  1.00D-05  SPARFAC =  1.00D+00  THRDLP  =  1.00D-07
 THRDIA  =  1.00D-10  THRDLS  =  1.00D-07  THRGPS  =  0.00D+00  THRKEX  =  0.00D+00  THRDIS  =  2.00D-01  THRVAR  =  1.00D-10
 THRLOC  =  1.00D-06  THRGAP  =  1.00D-06  THRLOCT = -1.00D+00  THRGAPT = -1.00D+00  THRORB  =  1.00D-06  THRMLTP =  0.00D+00
 THRCPQCI=  1.00D-10  KEXTA   =  0.00D+00  THRCOARS=  0.00D+00  SYMTOL  =  1.00D-06  GRADTOL =  1.00D-06  THROVL  =  1.00D-08
 THRORTH =  1.00D-08  GRID    =  1.00D-06  GRIDMAX =  1.00D-03  DTMAX   =  0.00D+00  THROCCDE=  1.00D-01  THROCCDE=  1.00D-01



 THRESHOLDS:

 ZERO    =  1.00D-12  ONEINT  =  1.00D-15  TWOINT  =  1.00D-15  PREFAC  =  1.00D-14  LOCALI  =  1.00D-09  EORDER  =  1.00D-04
 ENERGY  =  0.00D+00  ETEST   =  0.00D+00  EDENS   =  0.00D+00  THRDEDEF=  1.00D-06  GRADIENT=  1.00D-02  STEP    =  1.00D-03
 ORBITAL =  1.00D-05  CIVEC   =  1.00D-05  COEFF   =  1.00D-04  PRINTCI =  5.00D-02  PUNCHCI =  9.90D+01  OPTGRAD =  3.00D-04
 OPTENERG=  1.00D-06  OPTSTEP =  3.00D-04  THRGRAD =  1.00D-10  COMPRESS=  1.00D-11  VARMIN  =  1.00D-07  VARMAX  =  1.00D-03
 THRDOUB =  0.00D+00  THRDIV  =  1.00D-05  THRRED  =  1.00D-07  THRPSP  =  1.00D+00  THRDC   =  1.00D-10  THRCS   =  1.00D-10
 THRNRM  =  1.00D-08  THREQ   =  0.00D+00  THRDE   =  1.00D+00  THRREF  =  1.00D-05  SPARFAC =  1.00D+00  THRDLP  =  1.00D-07
 THRDIA  =  1.00D-10  THRDLS  =  1.00D-07  THRGPS  =  0.00D+00  THRKEX  =  0.00D+00  THRDIS  =  2.00D-01  THRVAR  =  1.00D-10
 THRLOC  =  1.00D-06  THRGAP  =  1.00D-06  THRLOCT = -1.00D+00  THRGAPT = -1.00D+00  THRORB  =  1.00D-06  THRMLTP =  0.00D+00
 THRCPQCI=  1.00D-10  KEXTA   =  0.00D+00  THRCOARS=  0.00D+00  SYMTOL  =  1.00D-06  GRADTOL =  1.00D-06  THROVL  =  1.00D-08
 THRORTH =  1.00D-08  GRID    =  1.00D-06  GRIDMAX =  1.00D-03  DTMAX   =  0.00D+00  THROCCDE=  1.00D-01  THROCCDE=  1.00D-01



Geometry recognized as XYZ


 Variable memory set to 1000000000 words,  buffer space   230000 words

 SETTING BASIS          =    USERDEF

 DO I                   =        15.00000000

 Running procedure=XP
  --><jobstep command="RHF-SCF" commandset="SCFPRO">
   <!--


 Recomputing integrals since basis changed


 Using spherical harmonics



 PROGRAM * SEWARD (Integral evaluation for generally contracted gaussian basis sets)     Author: Roland Lindh, 1990

 Geometry written to block  1 of record 700

 Orientation using atomic masses
 Molecule type: Atom
 Symmetry elements: X,Y,Z
 Rotational constants:       0.0000000      0.0000000      0.0000000 GHz  (calculated with average atomic masses)

 Point group  D2h


   --><cml:molecule>
    <cml:symmetry pointGroup="D2h"/>
    <cml:atomArray>
     <cml:atom id="a1" elementType="Lu" x3="0.0" y3="0.0" z3="0.0"/>
    </cml:atomArray>
    <cml:bondArray>
    </cml:bondArray>
   </cml:molecule><!--

 ATOMIC COORDINATES

 NR  ATOM    CHARGE       X              Y              Z

   1  LU     25.00    0.000000000    0.000000000    0.000000000

 NUCLEAR CHARGE:                   25
 NUMBER OF PRIMITIVE AOS:         581
 NUMBER OF SYMMETRY AOS:          442
 NUMBER OF CONTRACTIONS:          442   ( 103Ag  +  70B3u +  70B2u +  36B1g +  70B1u +  36B2g +  36B3g +  21Au  )
 NUMBER OF CORE ORBITALS:           0   (   0Ag  +   0B3u +   0B2u +   0B1g +   0B1u +   0B2g +   0B3g +   0Au  )
 NUMBER OF VALENCE ORBITALS:       17   (   4Ag  +   3B3u +   3B2u +   1B1g +   3B1u +   1B2g +   1B3g +   1Au  )


 NUCLEAR REPULSION ENERGY    0.00000000

 EXTRA SYMMETRY OF AOS IN SYMMETRY 1:   1 1 1 1 1 1 1 1 1 1   1 1 1 1 1 1 1 1 1 1   1 1 1 1 1 1 1 1 1 1   1 1 1 1 1 1 1 1 2 3
                                        2 3 2 3 2 3 2 3 2 3   2 3 2 3 2 3 2 3 2 3   2 3 2 3 2 3 2 3 2 3   2 3 2 3 2 3 2 3 2 3
                                        2 3 4 5 6 4 5 6 4 5   6 4 5 6 4 5 6 4 5 6   4 5 6
 EXTRA SYMMETRY OF AOS IN SYMMETRY 2:   1 1 1 1 1 1 1 1 1 1   1 1 1 1 1 1 1 1 1 1   1 1 1 1 1 1 1 1 1 1   1 2 3 2 3 2 3 2 3 2
                                        3 2 3 2 3 2 3 2 3 2   3 2 3 2 3 2 3 2 3 2   3 4 5 6 4 5 6 4 5 6
 EXTRA SYMMETRY OF AOS IN SYMMETRY 3:   1 1 1 1 1 1 1 1 1 1   1 1 1 1 1 1 1 1 1 1   1 1 1 1 1 1 1 1 1 1   1 2 3 2 3 2 3 2 3 2
                                        3 2 3 2 3 2 3 2 3 2   3 2 3 2 3 2 3 2 3 2   3 4 5 6 4 5 6 4 5 6
 EXTRA SYMMETRY OF AOS IN SYMMETRY 4:   1 1 1 1 1 1 1 1 1 1   1 1 1 1 1 1 1 1 1 1   1 1 2 3 2 3 2 3 2 3   2 3 2 3 2 3
 EXTRA SYMMETRY OF AOS IN SYMMETRY 5:   1 1 1 1 1 1 1 1 1 1   1 1 1 1 1 1 1 1 1 1   1 1 1 1 1 1 1 1 1 1   1 2 3 2 3 2 3 2 3 2
                                        3 2 3 2 3 2 3 2 3 2   3 2 3 2 3 2 3 2 3 2   3 4 5 6 4 5 6 4 5 6
 EXTRA SYMMETRY OF AOS IN SYMMETRY 6:   1 1 1 1 1 1 1 1 1 1   1 1 1 1 1 1 1 1 1 1   1 1 2 3 2 3 2 3 2 3   2 3 2 3 2 3
 EXTRA SYMMETRY OF AOS IN SYMMETRY 7:   1 1 1 1 1 1 1 1 1 1   1 1 1 1 1 1 1 1 1 1   1 1 2 3 2 3 2 3 2 3   2 3 2 3 2 3
 EXTRA SYMMETRY OF AOS IN SYMMETRY 8:   1 1 1 1 1 1 1 1 1 1   1 1 1 1 1 2 3 2 3 2   3

 Eigenvalues of metric

         1 0.333E-06 0.964E-06 0.340E-05 0.186E-04 0.475E-04 0.703E-04 0.799E-04 0.799E-04
         2 0.960E-06 0.179E-05 0.251E-04 0.110E-03 0.525E-03 0.525E-03 0.534E-03 0.156E-02
         3 0.960E-06 0.179E-05 0.251E-04 0.110E-03 0.525E-03 0.525E-03 0.534E-03 0.156E-02
         4 0.799E-04 0.144E-03 0.223E-02 0.632E-02 0.897E-02 0.238E-01 0.240E-01 0.240E-01
         5 0.960E-06 0.179E-05 0.251E-04 0.110E-03 0.525E-03 0.525E-03 0.534E-03 0.156E-02
         6 0.799E-04 0.144E-03 0.223E-02 0.632E-02 0.897E-02 0.238E-01 0.240E-01 0.240E-01
         7 0.799E-04 0.144E-03 0.223E-02 0.632E-02 0.897E-02 0.238E-01 0.240E-01 0.240E-01
         8 0.525E-03 0.142E-01 0.219E-01 0.528E-01 0.103E+00 0.167E+00 0.268E+00 0.268E+00


 Contracted 2-electron integrals neglected if value below      1.0D-15
 AO integral compression algorithm  1   Integral accuracy      1.0D-15

     3531.604 MB (compressed) written to integral file ( 42.0%)

     Node minimum: 182.190 MB, node maximum: 421.265 MB


 NUMBER OF SORTED TWO-ELECTRON INTEGRALS:   55865977.     BUFFER LENGTH:  32768
 NUMBER OF SEGMENTS:   2  SEGMENT LENGTH:   31980199      RECORD LENGTH: 524288

 Memory used in sort:      32.54 MW

 SORT1 READ  1050599776. AND WROTE    31907181. INTEGRALS IN     92 RECORDS. CPU TIME:    25.72 SEC, REAL TIME:    30.13 SEC
 SORT2 READ   352987961. AND WROTE   613618504. INTEGRALS IN  11803 RECORDS. CPU TIME:     1.06 SEC, REAL TIME:     1.92 SEC

 Node minimum:    55639389.  Node maximum:    55868715. integrals

 OPERATOR DM      FOR CENTER  0  COORDINATES:    0.000000    0.000000    0.000000


 **********************************************************************************************************************************
 DATASETS  * FILE   NREC   LENGTH (MB)   RECORD NAMES
              1      19       21.26       500      610      700      900      950      970     1000      129      960     1100
                                          VAR    BASINP    GEOM    SYMINP    ZMAT    AOBASIS   BASIS     P2S    ABASIS      S
                                         1400     1410     1420     1200     1210     1080     1600     1650     1700
                                           T        V       ECP      H0       H01     AOSYM     SMH    MOLCAS    OPER

 PROGRAMS   *        TOTAL       INT
 CPU TIMES  *       158.42    158.01
 REAL TIME  *       165.77 SEC
 DISK USED  *         7.77 GB
 GA USED    *         0.00 MB       (max)       0.00 MB       (current)
 **********************************************************************************************************************************


 PROGRAM * RHF-SCF (OPEN SHELL)       Authors: W. Meyer, H.-J. Werner


 NUMBER OF ELECTRONS:       9+    8-    SPACE SYMMETRY=2    SPIN SYMMETRY: Doublet
 CONVERGENCE THRESHOLDS:    1.00E-05 (Density)    1.00E-07 (Energy)
 MAX. NUMBER OF ITERATIONS:       60
 INTERPOLATION TYPE:            DIIS
 INTERPOLATION STEPS:              2 (START)      1 (STEP)
 LEVEL SHIFTS:                 -0.60 (CLOSED) -0.30 (OPEN)

 Number of closed-shell orbitals:    8 (   1   2   2   0   2   0   0   1 )
 Number of open-shell orbitals:      1 (   0   1   0   0   0   0   0   0 )



 Extra symmetries of mos in symmetry 2:   3   2   1
 Extra symmetries of mos in symmetry 3:   3   2   1
 Extra symmetries of mos in symmetry 5:   3   2   1
 Guess basis ATOMIC-GUESS,LU=ECP46_GUESS not found. No density guess!


 Molecular orbital dump at record        4202.2

 ITERATION    DDIFF          GRAD             ENERGY        2-EL.EN.            DIPOLE MOMENTS         DIIS   ORB.
    1      0.000D+00      0.000D+00      -168.09274291    327.149203    0.00000    0.00000    0.00000    0    start
    2      0.000D+00      0.370D+00      -175.53598686    162.034896    0.00000    0.00000    0.00000    0    diag,B
    3      0.127D+00      0.246D+00      -185.17081444    278.050255    0.00000    0.00000    0.00000    1    diag,B
    4      0.531D-01      0.201D+00      -190.90203972    238.489883    0.00000    0.00000    0.00000    2    diag,B
    5      0.302D-01      0.315D-01      -181.31940482    181.591578    0.00000    0.00000    0.00000    3    diag,B
    6      0.197D-01      0.733D-01      -187.23785103    208.400890    0.00000    0.00000    0.00000    4    diag,B
    7      0.139D-01      0.326D-01      -187.23113234    209.118369    0.00000    0.00000    0.00000    5    fixocc
     Orbital  1.3 strongly deviates from fixed occupation: 1.30430  (now: 2.00)
     Orbital  2.3 strongly deviates from fixed occupation: 1.86664  (now: 2.00)
     Note:  Use {hf,nitord=N} to fix occupations at iteration N
            Use {gthresh,occdev=1.0} to suppress deviation warnings
    8      0.166D-01      0.307D-01      -181.62925487    188.366716    0.00000    0.00000    0.00000    6    diag,B
    9      0.127D-01      0.546D-01      -181.62929708    188.367456    0.00000    0.00000    0.00000    7    diag,B
   10      0.126D-05      0.546D-01      -181.61001153    188.308163    0.00000    0.00000    0.00000    8    orth
     Orbital  1.3 strongly deviates from fixed occupation: 1.34016  (now: 2.00)
     Orbital  2.3 strongly deviates from fixed occupation: 1.86234  (now: 2.00)
     Orbital  2.5 strongly deviates from fixed occupation: 1.47950  (now: 2.00)
   11      0.716D-03      0.549D-01      -181.78945035    188.823443    0.00000    0.00000    0.00000    9    diag,B
     Orbital  2.5 strongly deviates from fixed occupation: 1.44496  (now: 2.00)
   12      0.876D-02      0.522D-01      -187.04461229    213.716281    0.00000    0.00000    0.00000    9    diag,B
     Orbital  3.2 strongly deviates from fixed occupation: 1.11149  (now: 1.00)
   13      0.117D-01      0.131D-01      -187.10515482    214.223831    0.00000    0.00000    0.00000    9    diag,B
     Orbital  2.2 strongly deviates from fixed occupation: 1.82157  (now: 2.00)
     Orbital  3.2 strongly deviates from fixed occupation: 1.24479  (now: 1.00)
     Orbital  1.5 strongly deviates from fixed occupation: 1.76543  (now: 2.00)
   14      0.300D-02      0.116D-01      -181.99959140    189.737241    0.00000    0.00000    0.00000    9    diag,B
     Orbital  1.3 strongly deviates from fixed occupation: 1.61043  (now: 2.00)
   15      0.119D-01      0.485D-01      -182.01850707    188.287043    0.00000    0.00000    0.00000    9    diag,B
     Orbital  1.3 strongly deviates from fixed occupation: 1.85012  (now: 2.00)
   16      0.948D-02      0.541D-01      -181.87858258    189.831284    0.00000    0.00000    0.00000    9    diag,B
   17      0.567D-02      0.490D-01      -181.88409897    189.704789    0.00000    0.00000    0.00000    9    diag,B
   18      0.583D-02      0.495D-01      -181.95523638    189.033037    0.00000    0.00000    0.00000    9    diag,B
   19      0.319D-02      0.520D-01      -181.93454058    189.384740    0.00000    0.00000    0.00000    9    diag,B
   20      0.549D-02      0.504D-01      -181.98692710    188.917022    0.00000    0.00000    0.00000    9    orth
   21      0.658D-02      0.520D-01      -182.07484593    188.118977    0.00000    0.00000    0.00000    9    diag,B
     Orbital  1.3 strongly deviates from fixed occupation: 1.84256  (now: 2.00)
   22      0.435D-02      0.548D-01      -181.94390312    189.336819    0.00000    0.00000    0.00000    9    diag,B
   23      0.634D-02      0.504D-01      -181.97526298    189.029115    0.00000    0.00000    0.00000    9    diag,B
     Orbital  1.3 strongly deviates from fixed occupation: 1.88655  (now: 2.00)
   24      0.674D-02      0.516D-01      -175.46411731    167.405842    0.00000    0.00000    0.00000    9    diag,B
   25      0.127D-01      0.865D-01      -175.50403549    167.349350    0.00000    0.00000    0.00000    9    diag,B
   26      0.157D-02      0.865D-01      -175.49580027    167.435884    0.00000    0.00000    0.00000    9    diag,B
   27      0.789D-02      0.861D-01      -175.47428162    167.477987    0.00000    0.00000    0.00000    9    diag,B
   28      0.597D-02      0.860D-01      -175.48900102    167.342470    0.00000    0.00000    0.00000    9    diag,B
   29      0.105D-02      0.864D-01      -175.50224667    167.351073    0.00000    0.00000    0.00000    9    diag,B
   30      0.738D-02      0.863D-01      -175.47964371    167.421642    0.00000    0.00000    0.00000    9    orth
   31      0.604D-02      0.862D-01      -175.49025471    167.333091    0.00000    0.00000    0.00000    9    diag,B
   32      0.142D-02      0.864D-01      -175.50152824    167.351971    0.00000    0.00000    0.00000    9    diag,B
   33      0.710D-02      0.863D-01      -175.48092436    167.420125    0.00000    0.00000    0.00000    9    diag,B
   34      0.523D-02      0.862D-01      -175.49177834    167.318332    0.00000    0.00000    0.00000    9    diag,B
   35      0.211D-02      0.864D-01      -175.50033979    167.357407    0.00000    0.00000    0.00000    9    diag,B
   36      0.700D-02      0.863D-01      -175.48232842    167.419890    0.00000    0.00000    0.00000    9    diag,B
   37      0.437D-02      0.862D-01      -175.49345172    167.302785    0.00000    0.00000    0.00000    9    diag,B
   38      0.287D-02      0.864D-01      -175.49930709    167.361920    0.00000    0.00000    0.00000    9    diag,B
   39      0.693D-02      0.863D-01      -175.48419945    167.416249    0.00000    0.00000    0.00000    9    diag,B
   40      0.352D-02      0.862D-01      -175.49508546    167.288210    0.00000    0.00000    0.00000    9    orth
   41      0.361D-02      0.865D-01      -175.49851944    167.364785    0.00000    0.00000    0.00000    9    diag,B
   42      0.686D-02      0.863D-01      -175.48628811    167.409932    0.00000    0.00000    0.00000    9    diag,B
   43      0.275D-02      0.862D-01      -175.49653189    167.275800    0.00000    0.00000    0.00000    9    diag,B
   44      0.428D-02      0.865D-01      -175.49794867    167.366352    0.00000    0.00000    0.00000    9    diag,B
   45      0.681D-02      0.863D-01      -175.48832283    167.402518    0.00000    0.00000    0.00000    9    diag,B
   46      0.210D-02      0.863D-01      -175.49769673    167.266114    0.00000    0.00000    0.00000    9    diag,B
   47      0.485D-02      0.865D-01      -175.49753513    167.367109    0.00000    0.00000    0.00000    9    diag,B
   48      0.678D-02      0.863D-01      -175.49013495    167.395215    0.00000    0.00000    0.00000    9    diag,B
   49      0.158D-02      0.863D-01      -175.49853743    167.259240    0.00000    0.00000    0.00000    9    diag,B
   50      0.531D-02      0.865D-01      -175.49721959    167.367451    0.00000    0.00000    0.00000    9    orth
   51      0.675D-02      0.863D-01      -175.49165558    167.388686    0.00000    0.00000    0.00000    9    diag,B
   52      0.118D-02      0.863D-01      -175.49904349    167.255039    0.00000    0.00000    0.00000    9    diag,B
   53      0.569D-02      0.865D-01      -175.49695321    167.367645    0.00000    0.00000    0.00000    9    diag,B
   54      0.674D-02      0.863D-01      -175.49287912    167.383186    0.00000    0.00000    0.00000    9    diag,B
   55      0.855D-03      0.863D-01      -175.49921085    167.253368    0.00000    0.00000    0.00000    9    diag,B
   56      0.600D-02      0.865D-01      -175.49669704    167.367862    0.00000    0.00000    0.00000    9    diag,B
   57      0.674D-02      0.863D-01      -175.49383138    167.378724    0.00000    0.00000    0.00000    9    diag,B
   58      0.602D-03      0.863D-01      -175.49900762    167.254323    0.00000    0.00000    0.00000    9    diag,B
   59      0.626D-02      0.865D-01      -175.51105439    167.567701    0.00000    0.00000    0.00000    9    orth
     Orbital  1.2 strongly deviates from fixed occupation: 1.66433  (now: 2.00)
     Orbital  2.2 strongly deviates from fixed occupation: 1.62382  (now: 2.00)
     Orbital  3.2 strongly deviates from fixed occupation: 1.60647  (now: 1.00)
     Orbital  1.3 strongly deviates from fixed occupation: 1.75255  (now: 2.00)
     Orbital  2.3 strongly deviates from fixed occupation: 1.77705  (now: 2.00)
     Orbital  2.5 strongly deviates from fixed occupation: 1.79367  (now: 2.00)
   60      0.707D-02      0.856D-01      -163.05926219    156.397635    0.00000    0.00000    0.00000    0    orth

 Final alpha occupancy:   1   3   2   0   2   0   0   1
 Final beta  occupancy:   1   2   2   0   2   0   0   1

 !RHF STATE 1.2 Energy               -163.059262185322
   --><property name="Energy" method="RHF" principal="true" stateSymmetry="2" stateNumber="1"
     value="-163.059262185322"/><!--
 Nuclear energy                         0.00000000
 One-electron energy                 -241.25807972
 Two-electron energy                   78.19881754
 Virial quotient                       -1.23636342
 !RHF STATE 1.2 Dipole moment           0.00000000     0.00000000     0.00000000
 Dipole moment /Debye                   0.00000000     0.00000000     0.00000000
   --><property name="Dipole moment" method="RHF" principal="true" stateSymmetry="2"
     stateNumber="1" value="0.0 0.0 0.0"/><!--

 ELECTRON ORBITALS
 =================


   Orb  Occ    Energy  Couls-En    Coefficients

                                   1 1s      1 1s      1 1s      1 1s      1 1s      1 1s      1 1s      1 1s      1 1s      1 1s
                                   1 1s      1 1s      1 1s      1 1s      1 1s      1 1s      1 1s      1 1s      1 1s      1 1s
                                   1 1s      1 1s      1 1s      1 1s      1 1s      1 1s      1 1s      1 1s      1 1s      1 1s
                                   1 1s      1 1s      1 1s      1 1s      1 1s      1 1s      1 1s      1 1s      1 3d0     1 3d2+
                                   1 3d0     1 3d2+    1 3d0     1 3d2+    1 3d0     1 3d2+    1 3d0     1 3d2+    1 3d0     1 3d2+
                                   1 3d0     1 3d2+    1 3d0     1 3d2+    1 3d0     1 3d2+    1 3d0     1 3d2+    1 3d0     1 3d2+
                                   1 3d0     1 3d2+    1 3d0     1 3d2+    1 3d0     1 3d2+    1 3d0     1 3d2+    1 3d0     1 3d2+
                                   1 3d0     1 3d2+    1 3d0     1 3d2+    1 3d0     1 3d2+    1 3d0     1 3d2+    1 3d0     1 3d2+
                                   1 3d0     1 3d2+    1 5g0     1 5g4+    1 5g2+    1 5g0     1 5g4+    1 5g2+    1 5g0     1 5g4+
                                   1 5g2+    1 5g0     1 5g4+    1 5g2+    1 5g0     1 5g4+    1 5g2+    1 5g0     1 5g4+    1 5g2+
                                   1 5g0     1 5g4+    1 5g2+

   1.1   2    -8.1385  -26.8755  0.000000 -0.000000  0.000000 -0.000000  0.000000 -0.000000  0.000000 -0.000001  0.000003 -0.000008
                                 0.000020 -0.000052  0.000145 -0.000479  0.002697  0.008856 -0.006376  0.009707 -0.018989 -0.008364
                                 0.052466 -0.276823  0.329620 -0.175094  0.611075 -1.541597  0.609681  1.149163 -0.060421  0.135117
                                -0.129922  0.169336 -0.244700  0.178815 -0.068572  0.025973 -0.006614  0.001168  0.000000 -0.000000
                                -0.000000  0.000001  0.000000 -0.000003 -0.000001  0.000013  0.000004 -0.000048 -0.000012  0.000152
                                 0.000037 -0.000456 -0.000117  0.001460  0.000606 -0.007438 -0.001555  0.018851  0.001531 -0.018433
                                -0.001147  0.014821  0.001457 -0.018274 -0.000437 -0.010614 -0.000622  0.004150  0.000438 -0.003645
                                -0.001426  0.012370  0.002023 -0.017685 -0.001000  0.008803  0.000196 -0.001741 -0.000070  0.000623
                                 0.000018 -0.000165 -0.000048 -0.000025  0.000036  0.000405  0.000059 -0.000212  0.000099  0.000522
                                -0.001162 -0.000237  0.000072 -0.000281  0.000386 -0.000065  0.000220 -0.000182  0.000024 -0.000075
                                 0.000061 -0.000007  0.000023

   2.1   0    -4.6173  -19.1848 -0.000000  0.000000 -0.000000  0.000000 -0.000000  0.000000 -0.000000  0.000000 -0.000000  0.000000
                                -0.000001  0.000002 -0.000004  0.000015 -0.000082 -0.000268  0.000192 -0.000291  0.000564  0.000253
                                -0.001552  0.009030 -0.012091  0.007407 -0.007361  0.014851 -0.025277 -0.008068  0.045948 -0.017544
                                 0.016182 -0.020440  0.029406 -0.021461  0.008227 -0.003116  0.000793 -0.000140 -0.000000  0.000001
                                 0.000002 -0.000005 -0.000008  0.000026  0.000035 -0.000109 -0.000126  0.000390  0.000401 -0.001238
                                -0.001213  0.003746  0.003938 -0.012147 -0.020580  0.063382  0.052921 -0.162634 -0.051168  0.157180
                                 0.034014 -0.105119  0.006813 -0.015989 -0.281592  0.817106 -0.084547  0.230981  0.022503 -0.059696
                                -0.070806  0.186977  0.099542 -0.262541 -0.048881  0.128795  0.009501 -0.025002 -0.003375  0.008875
                                 0.000891 -0.002342 -0.000081  0.000105  0.000076 -0.000605  0.001934  0.000338 -0.005291 -0.006454
                                 0.006386 -0.005705 -0.010412  0.002563  0.004921  0.007811 -0.003206 -0.001882 -0.002934  0.001306
                                 0.000596  0.000919 -0.000426

   3.1   0    -4.5718  -19.1073 -0.000000  0.000000 -0.000000  0.000000 -0.000000  0.000000 -0.000000  0.000000 -0.000000  0.000000
                                -0.000000  0.000001 -0.000003  0.000010 -0.000058 -0.000189  0.000136 -0.000206  0.000401  0.000179
                                -0.001108  0.006664 -0.009250  0.006280 -0.004201  0.000837 -0.001372 -0.003108  0.014813 -0.008930
                                 0.006141 -0.007766  0.011139 -0.008122  0.003112 -0.001179  0.000300 -0.000053  0.000001  0.000000
                                -0.000005 -0.000002  0.000025  0.000009 -0.000108 -0.000040  0.000384  0.000142 -0.001221 -0.000452
                                 0.003695  0.001367 -0.011980 -0.004430  0.062515  0.023086 -0.160329 -0.059097  0.154937  0.057094
                                -0.103489 -0.038334 -0.019870 -0.006251  0.809379  0.283979  0.241918  0.080925 -0.055475 -0.017468
                                 0.179087  0.056572 -0.252008 -0.079557  0.123810  0.039063 -0.024069 -0.007588  0.008548  0.002694
                                -0.002257 -0.000711 -0.000035  0.000033 -0.000042 -0.000655  0.000667 -0.000292 -0.000864 -0.002955
                                -0.011019  0.004671 -0.004318 -0.009318 -0.003071  0.003386  0.007673  0.001119 -0.001282 -0.002918
                                -0.000344  0.000404  0.000922

                                   1 2px     1 2px     1 2px     1 2px     1 2px     1 2px     1 2px     1 2px     1 2px     1 2px
                                   1 2px     1 2px     1 2px     1 2px     1 2px     1 2px     1 2px     1 2px     1 2px     1 2px
                                   1 2px     1 2px     1 2px     1 2px     1 2px     1 2px     1 2px     1 2px     1 2px     1 2px
                                   1 2px     1 4f1+    1 4f3+    1 4f1+    1 4f3+    1 4f1+    1 4f3+    1 4f1+    1 4f3+    1 4f1+
                                   1 4f3+    1 4f1+    1 4f3+    1 4f1+    1 4f3+    1 4f1+    1 4f3+    1 4f1+    1 4f3+    1 4f1+
                                   1 4f3+    1 4f1+    1 4f3+    1 4f1+    1 4f3+    1 4f1+    1 4f3+    1 4f1+    1 4f3+    1 4f1+
                                   1 4f3+    1 6h1+    1 6h3+    1 6h5+    1 6h1+    1 6h3+    1 6h5+    1 6h1+    1 6h3+    1 6h5+


   1.2   2    -2.5834  -14.0211 -0.000000  0.000000 -0.000000  0.000000 -0.000000  0.000000 -0.000000  0.000000 -0.000001  0.000003
                                -0.000009  0.000025 -0.000070  0.000210 -0.000766  0.006763 -0.016799  0.030162 -0.048147  0.044884
                                -0.006746 -0.043393 -0.037041  0.071708  0.143691  0.030272 -0.007112 -0.142281  0.003061 -0.001279
                                 0.000278  0.000004  0.000007 -0.000029 -0.000048  0.000150  0.000242 -0.001037 -0.001622 -0.012654
                                -0.017376 -0.033757 -0.051039 -0.081919 -0.117635 -0.142366 -0.209205 -0.028628 -0.033144  0.366991
                                 0.533535  0.253695  0.351548 -0.013765 -0.019994  0.017479  0.024660 -0.009240 -0.012978  0.003047
                                 0.004273 -0.000537  0.001056  0.002402  0.002394 -0.003230 -0.009922 -0.000544  0.002828  0.001429

   2.2   2    -2.5459  -13.9087  0.000000 -0.000000  0.000000 -0.000000  0.000000 -0.000000  0.000000 -0.000000  0.000001 -0.000003
                                 0.000008 -0.000022  0.000061 -0.000185  0.000673 -0.006007  0.015057 -0.027719  0.043350 -0.034812
                                -0.004928  0.019526  0.062102 -0.061213 -0.129626 -0.036706  0.006263  0.128374 -0.002772  0.001160
                                -0.000252  0.000005 -0.000004 -0.000036  0.000029  0.000186 -0.000149 -0.001350  0.001036 -0.019169
                                 0.012772 -0.045914  0.033818 -0.118283  0.082346 -0.199723  0.142500 -0.047463  0.027341  0.516252
                                -0.364532  0.377451 -0.253220 -0.017999  0.012995  0.024650 -0.017011 -0.013157  0.009024  0.004350
                                -0.002978 -0.000952  0.001474 -0.001600  0.003980 -0.005901  0.006089  0.001388 -0.003122  0.002007

   3.2   +    -6.6503  -25.2063  0.000000 -0.000000  0.000000 -0.000000  0.000000 -0.000000  0.000001 -0.000002  0.000007 -0.000022
                                 0.000065 -0.000179  0.000493 -0.001486  0.005421 -0.047015  0.119124 -0.222464  0.419686 -0.528990
                                 0.227361  0.523937 -0.103917  0.090047 -0.150119 -0.010684  0.006830  0.148835 -0.003310  0.001401
                                -0.000307  0.000001  0.000001 -0.000009 -0.000004  0.000030  0.000014  0.000483  0.000211  0.041191
                                 0.018199  0.038689  0.017225  0.212307  0.094389  0.276289  0.123459  0.301405  0.127044  0.104371
                                 0.044443  0.001040  0.000711  0.002512  0.000932 -0.002195 -0.000819  0.001114  0.000417 -0.000365
                                -0.000137  0.002402 -0.003744 -0.002507  0.002134 -0.002511 -0.001527 -0.000835  0.000808  0.000092

   4.2   0    -6.5346  -24.8341 -0.000000  0.000000 -0.000000  0.000000 -0.000000  0.000000 -0.000001  0.000002 -0.000008  0.000026
                                -0.000077  0.000214 -0.000590  0.001779 -0.006489  0.056613 -0.143688  0.269561 -0.507692  0.627887
                                -0.249731 -0.621330  0.115722 -0.111261  0.175649  0.012293 -0.007978 -0.174150  0.003874 -0.001640
                                 0.000360  0.000001 -0.000001 -0.000008  0.000006  0.000028 -0.000024  0.000383 -0.000253  0.033966
                                -0.024432  0.031453 -0.022252  0.174063 -0.125055  0.225432 -0.161861  0.244296 -0.168889  0.086857
                                -0.061632  0.001799 -0.000913  0.001879 -0.001309 -0.001645  0.001155  0.000837 -0.000588 -0.000274
                                 0.000193  0.001900 -0.002661  0.002003  0.002107 -0.002014  0.000537 -0.000043  0.000314  0.000248

   5.2   0    -7.0777  -25.5951 -0.000000  0.000000 -0.000000  0.000000 -0.000000  0.000000 -0.000001  0.000002 -0.000007  0.000022
                                -0.000065  0.000181 -0.000498  0.001499 -0.005468  0.046758 -0.118278  0.220397 -0.418857  0.544840
                                -0.260033 -0.539940  0.115493 -0.092508  0.154274  0.010942 -0.007022 -0.152953  0.003401 -0.001439
                                 0.000316 -0.000000  0.000001  0.000001 -0.000006 -0.000003  0.000018  0.000035  0.000576  0.001278
                                 0.043168  0.001720  0.042369  0.007431  0.225591  0.010514  0.296288  0.009060  0.324455  0.002199
                                 0.107623  0.000515  0.001487 -0.000064  0.002528  0.000057 -0.002203 -0.000028  0.001117  0.000009
                                -0.000366 -0.000342  0.000305 -0.007096 -0.000058  0.001187 -0.005987  0.000323 -0.000198  0.001857

                                   1 2py     1 2py     1 2py     1 2py     1 2py     1 2py     1 2py     1 2py     1 2py     1 2py
                                   1 2py     1 2py     1 2py     1 2py     1 2py     1 2py     1 2py     1 2py     1 2py     1 2py
                                   1 2py     1 2py     1 2py     1 2py     1 2py     1 2py     1 2py     1 2py     1 2py     1 2py
                                   1 2py     1 4f1-    1 4f3-    1 4f1-    1 4f3-    1 4f1-    1 4f3-    1 4f1-    1 4f3-    1 4f1-
                                   1 4f3-    1 4f1-    1 4f3-    1 4f1-    1 4f3-    1 4f1-    1 4f3-    1 4f1-    1 4f3-    1 4f1-
                                   1 4f3-    1 4f1-    1 4f3-    1 4f1-    1 4f3-    1 4f1-    1 4f3-    1 4f1-    1 4f3-    1 4f1-
                                   1 4f3-    1 6h1-    1 6h3-    1 6h5-    1 6h1-    1 6h3-    1 6h5-    1 6h1-    1 6h3-    1 6h5-


   1.3   2    -2.7535  -13.2031 -0.000000  0.000000 -0.000000  0.000000 -0.000000  0.000000 -0.000000  0.000001 -0.000002  0.000006
                                -0.000017  0.000048 -0.000131  0.000395 -0.001435  0.012232 -0.029961  0.051821 -0.081841  0.085673
                                -0.038318 -0.065125 -0.065651  0.126890  0.228106  0.074333 -0.010230 -0.226001  0.004924 -0.002064
                                 0.000450 -0.000002  0.000005  0.000012 -0.000034 -0.000059  0.000175  0.000411 -0.001217  0.004877
                                -0.014738  0.013346 -0.039675  0.031653 -0.095534  0.055786 -0.167308  0.011570 -0.037225 -0.163462
                                 0.464297 -0.182070  0.534017 -0.024112  0.089978  0.006273 -0.025711 -0.001768  0.008454  0.000428
                                -0.002261  0.000036 -0.000360  0.001915 -0.000010  0.002758 -0.009048 -0.001593  0.001598  0.001334

   2.3   2    -2.8188  -13.3937  0.000000 -0.000000  0.000000 -0.000000  0.000000 -0.000000  0.000000 -0.000001  0.000003 -0.000011
                                 0.000031 -0.000086  0.000237 -0.000712  0.002568 -0.020927  0.050412 -0.082940  0.134877 -0.176107
                                 0.143791  0.137981  0.039055 -0.226655 -0.415622 -0.105160  0.020258  0.411583 -0.008874  0.003710
                                -0.000807  0.000006  0.000002 -0.000042 -0.000017  0.000212  0.000084 -0.001380 -0.000533 -0.012608
                                -0.004387 -0.042080 -0.015864 -0.090318 -0.032803 -0.167315 -0.061822 -0.024766 -0.011415  0.484693
                                 0.177487  0.500631  0.183228  0.065322  0.029148 -0.016212 -0.007904  0.004445  0.002505 -0.001052
                                -0.000655  0.000159  0.001156  0.000675 -0.001370 -0.005101 -0.003054  0.001972 -0.001294 -0.002780

   3.3   0    -6.4615  -23.6411  0.000000 -0.000000  0.000000 -0.000000  0.000000 -0.000000  0.000001 -0.000004  0.000013 -0.000042
                                 0.000122 -0.000340  0.000935 -0.002817  0.010275 -0.088863  0.224562 -0.417753  0.794221 -1.015351
                                 0.465384  0.986632 -0.231024  0.167500 -0.298133 -0.021447  0.013524  0.295599 -0.006584  0.002788
                                -0.000612  0.000000  0.000000 -0.000001 -0.000002  0.000005  0.000013 -0.000073 -0.000133 -0.002836
                                -0.004188 -0.003605 -0.005850 -0.015905 -0.024203 -0.022215 -0.034039 -0.024157 -0.046781 -0.001007
                                -0.007938  0.004969  0.001788  0.000681 -0.000309 -0.000134  0.000371  0.000024 -0.000195 -0.000003
                                 0.000065  0.000211  0.000242 -0.000499 -0.000592 -0.000063 -0.001545  0.000071  0.000209  0.000946

   4.3   0    -5.9761  -25.2898  0.000000 -0.000000  0.000000 -0.000000  0.000000 -0.000000  0.000000 -0.000000  0.000001 -0.000003
                                 0.000010 -0.000027  0.000074 -0.000222  0.000814 -0.007451  0.019138 -0.036808  0.068984 -0.077238
                                 0.016071  0.078948 -0.017956  0.026380 -0.004006  0.004528  0.000109  0.004002 -0.000107  0.000048
                                -0.000011  0.000000  0.000000 -0.000002 -0.000000 -0.000003 -0.000004  0.000824  0.000224  0.051198
                                 0.012987  0.053806  0.014031  0.272324  0.069716  0.365770  0.094293  0.380196  0.096442  0.077971
                                 0.020357 -0.040771 -0.008277 -0.002307 -0.000648 -0.001350 -0.000260  0.000999  0.000202 -0.000362
                                -0.000074 -0.001443 -0.004228 -0.001525 -0.001367 -0.001748 -0.000473  0.000275  0.000864  0.000344

                                   1 3d2-    1 3d2-    1 3d2-    1 3d2-    1 3d2-    1 3d2-    1 3d2-    1 3d2-    1 3d2-    1 3d2-
                                   1 3d2-    1 3d2-    1 3d2-    1 3d2-    1 3d2-    1 3d2-    1 3d2-    1 3d2-    1 3d2-    1 3d2-
                                   1 3d2-    1 3d2-    1 5g2-    1 5g4-    1 5g2-    1 5g4-    1 5g2-    1 5g4-    1 5g2-    1 5g4-
                                   1 5g2-    1 5g4-    1 5g2-    1 5g4-    1 5g2-    1 5g4-

   1.4   0    -4.6278  -19.2045  0.000001 -0.000005  0.000028 -0.000118  0.000423 -0.001342  0.004062 -0.013166  0.068653 -0.176054
                                 0.170056 -0.113855 -0.012928  0.865321  0.240769 -0.060265  0.189229 -0.265648  0.130290 -0.025284
                                 0.008974 -0.002368  0.000124 -0.000304  0.000943 -0.004516  0.005930 -0.031615  0.001532 -0.000754
                                -0.002635  0.003703  0.001111 -0.001697 -0.000367  0.000579

   2.4   0    -2.1647  -11.0256 -0.000001  0.000004 -0.000024  0.000103 -0.000367  0.001167 -0.003544  0.011562 -0.061112  0.159064
                                -0.156834  0.118265 -0.060077 -0.788874  0.732415  0.790582 -1.325750  1.782950 -0.847464  0.158752
                                -0.055442  0.014487 -0.000161  0.000589 -0.000014  0.002166 -0.007776  0.046996 -0.022521  0.143107
                                 0.016369 -0.096485 -0.007094  0.039880  0.002256 -0.012585

                                   1 2pz     1 2pz     1 2pz     1 2pz     1 2pz     1 2pz     1 2pz     1 2pz     1 2pz     1 2pz
                                   1 2pz     1 2pz     1 2pz     1 2pz     1 2pz     1 2pz     1 2pz     1 2pz     1 2pz     1 2pz
                                   1 2pz     1 2pz     1 2pz     1 2pz     1 2pz     1 2pz     1 2pz     1 2pz     1 2pz     1 2pz
                                   1 2pz     1 4f0     1 4f2+    1 4f0     1 4f2+    1 4f0     1 4f2+    1 4f0     1 4f2+    1 4f0
                                   1 4f2+    1 4f0     1 4f2+    1 4f0     1 4f2+    1 4f0     1 4f2+    1 4f0     1 4f2+    1 4f0
                                   1 4f2+    1 4f0     1 4f2+    1 4f0     1 4f2+    1 4f0     1 4f2+    1 4f0     1 4f2+    1 4f0
                                   1 4f2+    1 6h2+    1 6h4+    1 6h0     1 6h2+    1 6h4+    1 6h0     1 6h2+    1 6h4+    1 6h0


   1.5   2    -6.6061  -25.6782 -0.000000  0.000000 -0.000000  0.000000 -0.000000  0.000000 -0.000000  0.000001 -0.000002  0.000007
                                -0.000020  0.000056 -0.000153  0.000461 -0.001674  0.013934 -0.035143  0.064737 -0.126689  0.178222
                                -0.103405 -0.173407  0.045295 -0.029877  0.050936  0.003362 -0.002334 -0.050499  0.001123 -0.000475
                                 0.000104 -0.000001  0.000001  0.000006 -0.000010 -0.000020  0.000034 -0.000371  0.000489 -0.030366
                                 0.042813 -0.028729  0.039846 -0.156045  0.220116 -0.202761  0.285591 -0.218378  0.313858 -0.071695
                                 0.112612  0.006311  0.003371  0.000157  0.002604  0.000800 -0.002186 -0.000492  0.001103  0.000171
                                -0.000361  0.003131 -0.004291 -0.002007  0.002881 -0.002913 -0.001852 -0.000623  0.000797  0.000450

   2.5   2    -2.7947  -13.3654 -0.000000  0.000000 -0.000000  0.000000 -0.000000  0.000000 -0.000000  0.000000 -0.000000  0.000001
                                -0.000004  0.000012 -0.000033  0.000100 -0.000360  0.002954 -0.007167  0.011710 -0.018586  0.023887
                                -0.020534 -0.015880 -0.002312  0.031109  0.067849  0.001599 -0.004261 -0.067077  0.001398 -0.000579
                                 0.000125  0.000006  0.000002 -0.000042 -0.000013  0.000212  0.000064 -0.001422 -0.000365 -0.015221
                                -0.000885 -0.044836 -0.009396 -0.103005 -0.013255 -0.184068 -0.031515 -0.037131  0.003710  0.504278
                                 0.103788  0.542540  0.086588  0.085631  0.010342 -0.023114 -0.002312  0.007265  0.000568 -0.001888
                                -0.000123  0.001232  0.000276 -0.000389 -0.005436 -0.001527  0.001199 -0.000569 -0.000476  0.001776

   3.5   0    -6.3808  -23.5858  0.000000 -0.000000  0.000000 -0.000000  0.000000 -0.000000  0.000001 -0.000004  0.000013 -0.000041
                                 0.000119 -0.000331  0.000909 -0.002740  0.009997 -0.086675  0.219463 -0.409940  0.777773 -0.985724
                                 0.433547  0.969862 -0.210975  0.166140 -0.287176 -0.020225  0.013009  0.284739 -0.006344  0.002687
                                -0.000590 -0.000001  0.000001  0.000004 -0.000004 -0.000016  0.000019 -0.000068  0.000004 -0.009756
                                 0.006619 -0.008212  0.004538 -0.049076  0.031774 -0.062959  0.039213 -0.067508  0.033739 -0.019916
                                 0.017049  0.006175  0.000794  0.000016  0.000415  0.000516 -0.000310 -0.000306  0.000153  0.000105
                                -0.000050  0.000639 -0.000813 -0.000073  0.000475 -0.000663 -0.000811 -0.000485  0.000106  0.000107

   4.5   0    -5.9419  -25.2235  0.000000 -0.000000  0.000000 -0.000000  0.000000 -0.000000  0.000000 -0.000000  0.000001 -0.000004
                                 0.000011 -0.000030  0.000081 -0.000246  0.000897 -0.008103  0.020668 -0.039025  0.072891 -0.084562
                                 0.025002  0.082256 -0.013512  0.015202 -0.025643 -0.001138  0.001225  0.025416 -0.000562  0.000237
                                -0.000052  0.000000  0.000000 -0.000002 -0.000003 -0.000002  0.000005  0.000683  0.000452  0.042888
                                 0.030322  0.044847  0.031046  0.227741  0.160991  0.305434  0.215405  0.318953  0.228556  0.067574
                                 0.060764 -0.032449 -0.007113 -0.002839  0.001692 -0.000759 -0.001858  0.000664  0.000972 -0.000249
                                -0.000322 -0.003492 -0.003057 -0.000250 -0.001701 -0.001397 -0.000874  0.000613  0.000567  0.000113

                                   1 3d1+    1 3d1+    1 3d1+    1 3d1+    1 3d1+    1 3d1+    1 3d1+    1 3d1+    1 3d1+    1 3d1+
                                   1 3d1+    1 3d1+    1 3d1+    1 3d1+    1 3d1+    1 3d1+    1 3d1+    1 3d1+    1 3d1+    1 3d1+
                                   1 3d1+    1 3d1+    1 5g1+    1 5g3+    1 5g1+    1 5g3+    1 5g1+    1 5g3+    1 5g1+    1 5g3+
                                   1 5g1+    1 5g3+    1 5g1+    1 5g3+    1 5g1+    1 5g3+

   1.6   0    -4.6242  -19.2145  0.000001 -0.000005  0.000027 -0.000114  0.000407 -0.001292  0.003911 -0.012685  0.066228 -0.170097
                                 0.164354 -0.109953 -0.013166  0.866855  0.240513 -0.066983  0.206692 -0.289982  0.142185 -0.027591
                                 0.009794 -0.002585  0.000043 -0.000079  0.000748 -0.001156  0.007400 -0.015254 -0.001700 -0.004687
                                 0.000589  0.004657 -0.000142 -0.001864  0.000033  0.000602

   2.6   0    -2.1401  -10.9434 -0.000000  0.000004 -0.000021  0.000089 -0.000319  0.001017 -0.003092  0.010112 -0.053722  0.140491
                                -0.139048  0.105725 -0.045983 -0.785960  0.713434  0.824721 -1.395795  1.880602 -0.895078  0.167910
                                -0.058665  0.015332 -0.000146  0.000091 -0.000295  0.001518 -0.013014  0.017661 -0.041467  0.027617
                                 0.027018 -0.017207 -0.011304  0.006990  0.003555 -0.002194

                                   1 3d1-    1 3d1-    1 3d1-    1 3d1-    1 3d1-    1 3d1-    1 3d1-    1 3d1-    1 3d1-    1 3d1-
                                   1 3d1-    1 3d1-    1 3d1-    1 3d1-    1 3d1-    1 3d1-    1 3d1-    1 3d1-    1 3d1-    1 3d1-
                                   1 3d1-    1 3d1-    1 5g1-    1 5g3-    1 5g1-    1 5g3-    1 5g1-    1 5g3-    1 5g1-    1 5g3-
                                   1 5g1-    1 5g3-    1 5g1-    1 5g3-    1 5g1-    1 5g3-

   1.7   0    -4.5795  -19.1360  0.000001 -0.000005  0.000027 -0.000115  0.000412 -0.001309  0.003963 -0.012852  0.067067 -0.171996
                                 0.166259 -0.111341 -0.020753  0.865555  0.246954 -0.061721  0.194686 -0.273490  0.134207 -0.026060
                                 0.009252 -0.002442 -0.000039  0.000042 -0.000846  0.000343 -0.004980 -0.009816  0.002260 -0.002132
                                -0.001434  0.002097  0.000458 -0.000858 -0.000136  0.000279

   2.7   0    -2.1655  -11.0713 -0.000001  0.000005 -0.000026  0.000111 -0.000396  0.001261 -0.003828  0.012475 -0.065797  0.170861
                                -0.168189  0.126265 -0.065275 -0.804272  0.749569  0.774359 -1.291573  1.735083 -0.824012  0.154203
                                -0.053831  0.014064  0.000122 -0.000039  0.000177  0.000778  0.008630  0.012302  0.032436  0.016791
                                -0.022540 -0.008424  0.009039  0.003484 -0.002861 -0.001071

                                   1 4f2-    1 4f2-    1 4f2-    1 4f2-    1 4f2-    1 4f2-    1 4f2-    1 4f2-    1 4f2-    1 4f2-
                                   1 4f2-    1 4f2-    1 4f2-    1 4f2-    1 4f2-    1 6h4-    1 6h2-    1 6h4-    1 6h2-    1 6h4-
                                   1 6h2-

   1.8   2    -6.6822  -25.8284  0.000002 -0.000010  0.000034  0.000648  0.053025  0.050570  0.274745  0.358819  0.387470  0.132599
                                 0.001843  0.003068 -0.002677  0.001358 -0.000445 -0.006680  0.000883 -0.005205  0.001497  0.001455
                                -0.000241

   2.8   0    -2.5922  -14.0042  0.000007 -0.000052  0.000264 -0.001823 -0.022117 -0.059310 -0.143588 -0.249788 -0.048541  0.643717
                                 0.441629 -0.024543  0.030790 -0.016248  0.005355  0.002398 -0.000216 -0.009828  0.001546  0.003255
                                 0.001504

   3.8   0    -1.4188   -8.1416 -0.000000  0.000002 -0.000017  0.000435  0.017554  0.025402  0.086487  0.135271 -0.007895 -0.575820
                                 0.280794  1.018126 -0.315258  0.153301 -0.047486 -0.000637  0.000122  0.005672 -0.001855  0.007398
                                -0.000567

 HOMO      2.5    -2.794675 =     -76.0470eV
 LUMO      4.2    -6.534573 =    -177.8148eV
 LUMO-HOMO        -3.739898 =    -101.7678eV

 No convergence



 **********************************************************************************************************************************
 DATASETS  * FILE   NREC   LENGTH (MB)   RECORD NAMES
              1      19       21.31       500      610      700      900      950      970     1000      129      960     1100
                                          VAR    BASINP    GEOM    SYMINP    ZMAT    AOBASIS   BASIS     P2S    ABASIS      S
                                         1400     1410     1420     1200     1210     1080     1600     1650     1700
                                           T        V       ECP      H0       H01     AOSYM     SMH    MOLCAS    OPER

              2       5        6.25       200      700     1000      520     4202
                                        OPTIONS   GEOM     BASIS   MCVARS     RHF

 PROGRAMS   *        TOTAL       RHF       INT
 CPU TIMES  *       168.42     10.00    158.01
 REAL TIME  *       176.91 SEC
 DISK USED  *         8.12 GB
 SF USED    *         0.12 MB
 GA USED    *         0.00 MB       (max)       0.00 MB       (current)
 **********************************************************************************************************************************
   -->
   <time start="06:23:39" end="06:26:35" cpu="168.42" system="8.06" real="176.91"/>
   <storage units="megabyte" memory="8001.84" sf="0.12" df="352.05" eaf="7770.84" ga="0.0"/>
  </jobstep><!--
  --><jobstep command="POP" commandset="POP">
   <!--


 PROGRAM * POP (Mulliken population analysis)


 Density matrix read from record         4202.2  Type=RHF/CHARGE (state 1.2)

 Population analysis by basis function type

 Unique atom        s        p        d        f        g    Total    Charge
   1  LU      1.99927  0.46992  0.00072 14.52892  0.00000 17.00000  + 8.00000


 **********************************************************************************************************************************
 DATASETS  * FILE   NREC   LENGTH (MB)   RECORD NAMES
              1      19       21.31       500      610      700      900      950      970     1000      129      960     1100
                                          VAR    BASINP    GEOM    SYMINP    ZMAT    AOBASIS   BASIS     P2S    ABASIS      S
                                         1400     1410     1420     1200     1210     1080     1600     1650     1700
                                           T        V       ECP      H0       H01     AOSYM     SMH    MOLCAS    OPER

              2       5        6.25       200      700     1000      520     4202
                                        OPTIONS   GEOM     BASIS   MCVARS     RHF

 PROGRAMS   *        TOTAL       POP       RHF       INT
 CPU TIMES  *       168.43      0.01     10.00    158.01
 REAL TIME  *       176.92 SEC
 DISK USED  *         8.12 GB
 SF USED    *         0.12 MB
 GA USED    *         0.00 MB       (max)       0.00 MB       (current)
 **********************************************************************************************************************************
   -->
   <time start="06:26:35" end="06:26:35" cpu="0.01" system="0.0" real="0.01"/>
   <storage units="megabyte" memory="8001.84" sf="0.12" df="352.05" eaf="7770.84" ga="0.0"/>
  </jobstep><!--
  --><jobstep command="MULTI" commandset="MULTI">
   <!--


 PROGRAM * MULTI (Direct Multiconfiguration SCF)       Authors: P.J. Knowles, H.-J. Werner (1984)     S.T. Elbert (1988)


 Number of closed-shell orbitals:   8 (   1   2   2   0   2   0   0   1 )
 Number of active  orbitals:        3 (   0   1   1   0   1   0   0   0 )
 Number of external orbitals:     431 ( 102  67  67  36  67  36  36  20 )

 State symmetry 1

 Number of electrons:     1    Spin symmetry=Doublet   Space symmetry=2
 Number of states:        1
 Number of CSFs:          1   (1 determinants, 3 intermediate states)

 State symmetry 2

 Number of electrons:     1    Spin symmetry=Doublet   Space symmetry=3
 Number of states:        1
 Number of CSFs:          1   (1 determinants, 3 intermediate states)

 State symmetry 3

 Number of electrons:     1    Spin symmetry=Doublet   Space symmetry=5
 Number of states:        1
 Number of CSFs:          1   (1 determinants, 3 intermediate states)

 Molecular orbitals read from record     4202.2  Type=RHF/CANONICAL (state 1.2)
 *** IN SYMMETRY 1 ORBITAL  1 SYMMETRY CONTAMINATION OF 0.262D-01 HAS BEEN REMOVED

 EXTRA SYMMETRY OF MOS IN SYMMETRY 1:   1 3 2 1 2 3 1 4 5 6   3 2 1 6 4 5 3 2 1 6   4 5 1 2 1 2 3 6 4 5   1 3 2 1 3 1 1 3 2 1
                                        1 6 5 4 1 2 3 1 6 5   4 2 3 1 2 3 6 5 4 1   2 3 1 2 3 1 2 3 1 2   3 1 1 2 3 1 2 3 1 1
                                        2 3 1 2 3 1 1 2 3 1   1 2 3 1 1 1 1 1 1 1   1 3 2
 *** IN SYMMETRY 2 ORBITAL  1 SYMMETRY CONTAMINATION OF 0.541D+00 HAS BEEN REMOVED
 *** IN SYMMETRY 2 ORBITAL  2 SYMMETRY CONTAMINATION OF 0.531D+00 HAS BEEN REMOVED
 *** IN SYMMETRY 2 ORBITAL  3 SYMMETRY CONTAMINATION OF 0.353D+00 HAS BEEN REMOVED
 EXTRA SYMMETRY OF MOS IN SYMMETRY 2:   3 2 1 1 1 1 1 2 3 1   2 3 1 2 3 1 2 3 1 1   3 2 1 5 4 6 1 5 6 4   3 2 1 1 3 2 5 6 4 1
                                        3 2 1 1 3 2 1 3 2 1   1 3 2 1 3 2 1 1 3 2   1 1 1 1 1 1 1 1 3 2
 *** IN SYMMETRY 3 ORBITAL  1 SYMMETRY CONTAMINATION OF 0.522D+00 HAS BEEN REMOVED
 *** IN SYMMETRY 3 ORBITAL  2 SYMMETRY CONTAMINATION OF 0.642D+00 HAS BEEN REMOVED
 *** IN SYMMETRY 3 ORBITAL  3 SYMMETRY CONTAMINATION OF 0.392D-01 HAS BEEN REMOVED
 EXTRA SYMMETRY OF MOS IN SYMMETRY 3:   3 2 1 2 3 1 1 3 2 1   2 3 1 2 3 1 2 3 1 1   1 3 4 1 5 6 1 4 6 5   2 3 1 1 2 3 4 6 5 1
                                        2 3 1 1 2 3 1 2 3 1   1 2 3 1 2 3 1 1 2 3   1 1 1 1 1 1 1 1 1 2
 EXTRA SYMMETRY OF MOS IN SYMMETRY 4:   1 1 2 3 1 2 3 1 2 3   1 1 2 3 1 1 1 2 3 1   2 3 1 1 2 3 1 1 1 1   1 1 1 1 1 1
 *** IN SYMMETRY 5 ORBITAL  1 SYMMETRY CONTAMINATION OF 0.612D+00 HAS BEEN REMOVED
 *** IN SYMMETRY 5 ORBITAL  2 SYMMETRY CONTAMINATION OF 0.263D+00 HAS BEEN REMOVED
 *** IN SYMMETRY 5 ORBITAL  3 SYMMETRY CONTAMINATION OF 0.692D-01 HAS BEEN REMOVED
 EXTRA SYMMETRY OF MOS IN SYMMETRY 5:   3 2 1 2 1 3 1 2 3 1   2 3 1 2 3 1 2 3 1 3   1 2 4 1 5 6 1 4 5 6   2 3 1 1 2 3 4 5 6 1
                                        2 3 1 1 2 3 1 2 3 1   1 2 3 1 2 3 1 1 2 3   1 1 1 1 1 1 1 1 1 1
 EXTRA SYMMETRY OF MOS IN SYMMETRY 6:   1 1 2 3 1 3 2 1 3 2   1 1 3 2 1 1 1 3 2 1   3 2 1 1 3 2 1 1 1 1   1 1 1 1 1 1
 EXTRA SYMMETRY OF MOS IN SYMMETRY 7:   1 1 2 3 1 3 2 1 3 2   1 1 3 2 1 1 1 2 3 1   2 3 1 1 2 3 1 1 1 1   1 1 1 1 1 1
 *** IN SYMMETRY 8 ORBITAL  1 SYMMETRY CONTAMINATION OF 0.124D-01 HAS BEEN REMOVED
 EXTRA SYMMETRY OF MOS IN SYMMETRY 8:   1 1 1 1 1 1 1 3 2 3   2 1 1 3 2 1 1 1 1 1   1

 Wavefunction dump at record             5202.2

 Convergence thresholds  0.10E-01 (gradient)  0.10E-05 (energy)  0.10E-02 (step length)

 Weight factors for state symmetry  1:    0.33333
 Weight factors for state symmetry  2:    0.33333
 Weight factors for state symmetry  3:    0.33333

 Number of orbital rotations:      731   (     6 Core/Active    524 Core/Virtual   0 Active/Active    201 Active/Virtual)
 Total number of variables:        734


 ITER. MIC  NCI  NEG     ENERGY(VAR)     ENERGY(PROJ)   ENERGY CHANGE     GRAD(0)  GRAD(ORB)   GRAD(CI)     STEP       TIME

   1   58   12    5    -163.03401368    -179.91907868  -16.88506500    3.52067576 0.63968164 0.00000000  0.17D+01      0.98
   2   36   15    4    -174.73181854    -186.22373278  -11.49191424   *********** 2.32685210 0.00000000  0.12D+01      2.01
   3   49   15    0    -188.19937972    -190.56284836   -2.36346864    4.40753841 0.00034879 0.00000000  0.62D+00      2.94
   4   35   15    0    -190.75630725    -190.82906208   -0.07275483    0.71760418 0.00048884 0.00000000  0.12D+00      4.10
   5   35   15    0    -190.83054632    -190.83063200   -0.00008568    0.02692616 0.00000238 0.00000000  0.39D-02      5.05
   6   36   15    0    -190.83063207    -190.83063207   -0.00000000    0.00003710 0.00000001 0.00000000  0.48D-05      6.07

 ** WVFN ****  CONVERGENCE REACHED, FINAL GRADIENT:  0.64D-08



 Results for state 1.2
 =====================

 !MCSCF STATE 1.2 Energy             -190.830632071838
   --><property name="Energy" method="MCSCF" principal="true" stateSymmetry="2" stateNumber="1"
     value="-190.830632071838"/><!--
 Nuclear energy                         0.00000000
 Kinetic energy                       183.74929305
 One electron energy                 -307.45652227
 Two electron energy                  116.62589019
 Virial ratio                           2.03853805

 !MCSCF STATE 1.2 Dipole moment         0.00000000     0.00000000     0.00000000
 Dipole moment /Debye                   0.00000000     0.00000000     0.00000000
   --><property name="Dipole moment" method="MCSCF" principal="true" stateSymmetry="2"
     stateNumber="1" value="0.0 0.0 0.0"/><!--



 Results for state 1.3
 =====================

 !MCSCF STATE 1.3 Energy             -190.830632071838
   --><property name="Energy" method="MCSCF" principal="true" stateSymmetry="3" stateNumber="1"
     value="-190.830632071838"/><!--
 Nuclear energy                         0.00000000
 Kinetic energy                       183.74929305
 One electron energy                 -307.45652227
 Two electron energy                  116.62589019
 Virial ratio                           2.03853805

 !MCSCF STATE 1.3 Dipole moment         0.00000000     0.00000000     0.00000000
 Dipole moment /Debye                   0.00000000     0.00000000     0.00000000
   --><property name="Dipole moment" method="MCSCF" principal="true" stateSymmetry="3"
     stateNumber="1" value="0.0 0.0 0.0"/><!--



 Results for state 1.5
 =====================

 !MCSCF STATE 1.5 Energy             -190.830632071838
   --><property name="Energy" method="MCSCF" principal="true" stateSymmetry="5" stateNumber="1"
     value="-190.830632071838"/><!--
 Nuclear energy                         0.00000000
 Kinetic energy                       183.74929305
 One electron energy                 -307.45652227
 Two electron energy                  116.62589019
 Virial ratio                           2.03853805

 !MCSCF STATE 1.5 Dipole moment         0.00000000     0.00000000     0.00000000
 Dipole moment /Debye                   0.00000000     0.00000000     0.00000000
   --><property name="Dipole moment" method="MCSCF" principal="true" stateSymmetry="5"
     stateNumber="1" value="0.0 0.0 0.0"/><!--

 State-averaged charge density matrix saved on record  5202.2 (density set 1)


 NATURAL ORBITALS (state averaged)
 =================================

   Orb     Occ        Energy       Coefficients

                                   1 1s      1 1s      1 1s      1 1s      1 1s      1 1s      1 1s      1 1s      1 1s      1 1s
                                   1 1s      1 1s      1 1s      1 1s      1 1s      1 1s      1 1s      1 1s      1 1s      1 1s
                                   1 1s      1 1s      1 1s      1 1s      1 1s      1 1s      1 1s      1 1s      1 1s      1 1s
                                   1 1s      1 1s      1 1s      1 1s      1 1s      1 1s      1 1s      1 1s      1 3d0     1 3d2+
                                   1 3d0     1 3d2+    1 3d0     1 3d2+    1 3d0     1 3d2+    1 3d0     1 3d2+    1 3d0     1 3d2+
                                   1 3d0     1 3d2+    1 3d0     1 3d2+    1 3d0     1 3d2+    1 3d0     1 3d2+    1 3d0     1 3d2+
                                   1 3d0     1 3d2+    1 3d0     1 3d2+    1 3d0     1 3d2+    1 3d0     1 3d2+    1 3d0     1 3d2+
                                   1 3d0     1 3d2+    1 3d0     1 3d2+    1 3d0     1 3d2+    1 3d0     1 3d2+    1 3d0     1 3d2+
                                   1 3d0     1 3d2+    1 5g0     1 5g4+    1 5g2+    1 5g0     1 5g4+    1 5g2+    1 5g0     1 5g4+
                                   1 5g2+    1 5g0     1 5g4+    1 5g2+    1 5g0     1 5g4+    1 5g2+    1 5g0     1 5g4+    1 5g2+
                                   1 5g0     1 5g4+    1 5g2+

   1.1  2.00000    -6.251676     0.000000 -0.000000  0.000000 -0.000000  0.000000 -0.000000  0.000000 -0.000001  0.000003 -0.000007
                                 0.000018 -0.000047  0.000133 -0.000437  0.002462  0.008089 -0.005832  0.008902 -0.017498 -0.007637
                                 0.048850 -0.267925  0.332241 -0.199533  0.549473 -1.179711  0.087311  1.221373  0.168020  0.035842
                                -0.047006  0.070277 -0.105148  0.078188 -0.030470  0.011640 -0.002980  0.000528  0.000000  0.000000
                                 0.000000  0.000000  0.000000  0.000000  0.000000  0.000000  0.000000  0.000000  0.000000  0.000000
                                 0.000000  0.000000  0.000000  0.000000  0.000000  0.000000  0.000000  0.000000  0.000000  0.000000
                                 0.000000  0.000000  0.000000  0.000000  0.000000  0.000000  0.000000  0.000000  0.000000  0.000000
                                 0.000000  0.000000  0.000000  0.000000  0.000000  0.000000  0.000000  0.000000  0.000000  0.000000
                                 0.000000  0.000000  0.000000  0.000000  0.000000  0.000000  0.000000  0.000000  0.000000  0.000000
                                 0.000000  0.000000  0.000000  0.000000  0.000000  0.000000  0.000000  0.000000  0.000000  0.000000
                                 0.000000  0.000000  0.000000

                                   1 2px     1 2px     1 2px     1 2px     1 2px     1 2px     1 2px     1 2px     1 2px     1 2px
                                   1 2px     1 2px     1 2px     1 2px     1 2px     1 2px     1 2px     1 2px     1 2px     1 2px
                                   1 2px     1 2px     1 2px     1 2px     1 2px     1 2px     1 2px     1 2px     1 2px     1 2px
                                   1 2px     1 4f1+    1 4f3+    1 4f1+    1 4f3+    1 4f1+    1 4f3+    1 4f1+    1 4f3+    1 4f1+
                                   1 4f3+    1 4f1+    1 4f3+    1 4f1+    1 4f3+    1 4f1+    1 4f3+    1 4f1+    1 4f3+    1 4f1+
                                   1 4f3+    1 4f1+    1 4f3+    1 4f1+    1 4f3+    1 4f1+    1 4f3+    1 4f1+    1 4f3+    1 4f1+
                                   1 4f3+    1 6h1+    1 6h3+    1 6h5+    1 6h1+    1 6h3+    1 6h5+    1 6h1+    1 6h3+    1 6h5+


   1.2  2.00000    -4.027594     0.000000  0.000000  0.000000  0.000000  0.000000  0.000000  0.000000  0.000000  0.000000  0.000000
                                 0.000000  0.000000  0.000000  0.000000  0.000000  0.000000  0.000000  0.000000  0.000000  0.000000
                                 0.000000  0.000000  0.000000  0.000000  0.000000  0.000000  0.000000  0.000000  0.000000  0.000000
                                 0.000000 -0.000006  0.000000  0.000041  0.000000 -0.000185  0.000000  0.000240  0.000000 -0.048488
                                 0.000000 -0.026900  0.000000 -0.233034  0.000000 -0.280191  0.000000 -0.401984  0.000000 -0.286696
                                 0.000000 -0.036504  0.000000  0.002602  0.000000 -0.001629  0.000000  0.000672  0.000000 -0.000200
                                 0.000000  0.000000  0.000000  0.000000  0.000000  0.000000  0.000000  0.000000  0.000000  0.000000

   2.2  2.00000    -4.027594     0.000000  0.000000  0.000000  0.000000  0.000000  0.000000  0.000000  0.000000  0.000000  0.000000
                                 0.000000  0.000000  0.000000  0.000000  0.000000  0.000000  0.000000  0.000000  0.000000  0.000000
                                 0.000000  0.000000  0.000000  0.000000  0.000000  0.000000  0.000000  0.000000  0.000000  0.000000
                                 0.000000  0.000000 -0.000006  0.000000  0.000041  0.000000 -0.000185  0.000000  0.000240  0.000000
                                -0.048488  0.000000 -0.026900  0.000000 -0.233034  0.000000 -0.280191  0.000000 -0.401984  0.000000
                                -0.286696  0.000000 -0.036504  0.000000  0.002602  0.000000 -0.001629  0.000000  0.000672  0.000000
                                -0.000200  0.000000  0.000000  0.000000  0.000000  0.000000  0.000000  0.000000  0.000000  0.000000

   3.2  0.33333    -4.785234     0.000000 -0.000000  0.000000 -0.000000  0.000000 -0.000000  0.000001 -0.000003  0.000010 -0.000031
                                 0.000091 -0.000254  0.000698 -0.002113  0.007790 -0.069108  0.179051 -0.353457  0.671764 -0.790582
                                 0.187383  0.833558  0.029506  0.215621 -0.199446 -0.012284  0.008899  0.197783 -0.004417  0.001871
                                -0.000410  0.000000  0.000000  0.000000  0.000000  0.000000  0.000000  0.000000  0.000000  0.000000
                                 0.000000  0.000000  0.000000  0.000000  0.000000  0.000000  0.000000  0.000000  0.000000  0.000000
                                 0.000000  0.000000  0.000000  0.000000  0.000000  0.000000  0.000000  0.000000  0.000000  0.000000
                                 0.000000  0.000000  0.000000  0.000000  0.000000  0.000000  0.000000  0.000000  0.000000  0.000000

                                   1 2py     1 2py     1 2py     1 2py     1 2py     1 2py     1 2py     1 2py     1 2py     1 2py
                                   1 2py     1 2py     1 2py     1 2py     1 2py     1 2py     1 2py     1 2py     1 2py     1 2py
                                   1 2py     1 2py     1 2py     1 2py     1 2py     1 2py     1 2py     1 2py     1 2py     1 2py
                                   1 2py     1 4f1-    1 4f3-    1 4f1-    1 4f3-    1 4f1-    1 4f3-    1 4f1-    1 4f3-    1 4f1-
                                   1 4f3-    1 4f1-    1 4f3-    1 4f1-    1 4f3-    1 4f1-    1 4f3-    1 4f1-    1 4f3-    1 4f1-
                                   1 4f3-    1 4f1-    1 4f3-    1 4f1-    1 4f3-    1 4f1-    1 4f3-    1 4f1-    1 4f3-    1 4f1-
                                   1 4f3-    1 6h1-    1 6h3-    1 6h5-    1 6h1-    1 6h3-    1 6h5-    1 6h1-    1 6h3-    1 6h5-


   1.3  2.00000    -4.027594     0.000000  0.000000  0.000000  0.000000  0.000000  0.000000  0.000000  0.000000  0.000000  0.000000
                                 0.000000  0.000000  0.000000  0.000000  0.000000  0.000000  0.000000  0.000000  0.000000  0.000000
                                 0.000000  0.000000  0.000000  0.000000  0.000000  0.000000  0.000000  0.000000  0.000000  0.000000
                                 0.000000  0.000000 -0.000006  0.000000  0.000041  0.000000 -0.000185  0.000000  0.000240  0.000000
                                -0.048488  0.000000 -0.026900  0.000000 -0.233034  0.000000 -0.280191  0.000000 -0.401984  0.000000
                                -0.286696  0.000000 -0.036504  0.000000  0.002602  0.000000 -0.001629  0.000000  0.000672  0.000000
                                -0.000200  0.000000  0.000000  0.000000  0.000000  0.000000  0.000000  0.000000  0.000000  0.000000

   2.3  2.00000    -4.027594     0.000000  0.000000  0.000000  0.000000  0.000000  0.000000  0.000000  0.000000  0.000000  0.000000
                                 0.000000  0.000000  0.000000  0.000000  0.000000  0.000000  0.000000  0.000000  0.000000  0.000000
                                 0.000000  0.000000  0.000000  0.000000  0.000000  0.000000  0.000000  0.000000  0.000000  0.000000
                                 0.000000  0.000006  0.000000 -0.000041  0.000000  0.000185  0.000000 -0.000240  0.000000  0.048488
                                 0.000000  0.026900  0.000000  0.233034  0.000000  0.280191  0.000000  0.401984  0.000000  0.286696
                                 0.000000  0.036504  0.000000 -0.002602  0.000000  0.001629  0.000000 -0.000672  0.000000  0.000200
                                 0.000000  0.000000  0.000000  0.000000  0.000000  0.000000  0.000000  0.000000  0.000000  0.000000

   3.3  0.33333    -4.785234     0.000000 -0.000000  0.000000 -0.000000  0.000000 -0.000000  0.000001 -0.000003  0.000010 -0.000031
                                 0.000091 -0.000254  0.000698 -0.002113  0.007790 -0.069108  0.179051 -0.353457  0.671764 -0.790582
                                 0.187383  0.833558  0.029506  0.215621 -0.199446 -0.012284  0.008899  0.197783 -0.004417  0.001871
                                -0.000410  0.000000  0.000000  0.000000  0.000000  0.000000  0.000000  0.000000  0.000000  0.000000
                                 0.000000  0.000000  0.000000  0.000000  0.000000  0.000000  0.000000  0.000000  0.000000  0.000000
                                 0.000000  0.000000  0.000000  0.000000  0.000000  0.000000  0.000000  0.000000  0.000000  0.000000
                                 0.000000  0.000000  0.000000  0.000000  0.000000  0.000000  0.000000  0.000000  0.000000  0.000000

                                   1 2pz     1 2pz     1 2pz     1 2pz     1 2pz     1 2pz     1 2pz     1 2pz     1 2pz     1 2pz
                                   1 2pz     1 2pz     1 2pz     1 2pz     1 2pz     1 2pz     1 2pz     1 2pz     1 2pz     1 2pz
                                   1 2pz     1 2pz     1 2pz     1 2pz     1 2pz     1 2pz     1 2pz     1 2pz     1 2pz     1 2pz
                                   1 2pz     1 4f0     1 4f2+    1 4f0     1 4f2+    1 4f0     1 4f2+    1 4f0     1 4f2+    1 4f0
                                   1 4f2+    1 4f0     1 4f2+    1 4f0     1 4f2+    1 4f0     1 4f2+    1 4f0     1 4f2+    1 4f0
                                   1 4f2+    1 4f0     1 4f2+    1 4f0     1 4f2+    1 4f0     1 4f2+    1 4f0     1 4f2+    1 4f0
                                   1 4f2+    1 6h2+    1 6h4+    1 6h0     1 6h2+    1 6h4+    1 6h0     1 6h2+    1 6h4+    1 6h0


   1.5  2.00000    -4.027594     0.000000  0.000000  0.000000  0.000000  0.000000  0.000000  0.000000  0.000000  0.000000  0.000000
                                 0.000000  0.000000  0.000000  0.000000  0.000000  0.000000  0.000000  0.000000  0.000000  0.000000
                                 0.000000  0.000000  0.000000  0.000000  0.000000  0.000000  0.000000  0.000000  0.000000  0.000000
                                 0.000000 -0.000006  0.000000  0.000041  0.000000 -0.000185  0.000000  0.000240  0.000000 -0.048488
                                 0.000000 -0.026900  0.000000 -0.233034  0.000000 -0.280191  0.000000 -0.401984  0.000000 -0.286696
                                 0.000000 -0.036504  0.000000  0.002602  0.000000 -0.001629  0.000000  0.000672  0.000000 -0.000200
                                 0.000000  0.000000  0.000000  0.000000  0.000000  0.000000  0.000000  0.000000  0.000000  0.000000

   2.5  2.00000    -4.027594     0.000000  0.000000  0.000000  0.000000  0.000000  0.000000  0.000000  0.000000  0.000000  0.000000
                                 0.000000  0.000000  0.000000  0.000000  0.000000  0.000000  0.000000  0.000000  0.000000  0.000000
                                 0.000000  0.000000  0.000000  0.000000  0.000000  0.000000  0.000000  0.000000  0.000000  0.000000
                                 0.000000  0.000000  0.000006  0.000000 -0.000041  0.000000  0.000185  0.000000 -0.000240  0.000000
                                 0.048488  0.000000  0.026900  0.000000  0.233034  0.000000  0.280191  0.000000  0.401984  0.000000
                                 0.286696  0.000000  0.036504  0.000000 -0.002602  0.000000  0.001629  0.000000 -0.000672  0.000000
                                 0.000200  0.000000  0.000000  0.000000  0.000000  0.000000  0.000000  0.000000  0.000000  0.000000

   3.5  0.33333    -4.785234     0.000000 -0.000000  0.000000 -0.000000  0.000000 -0.000000  0.000001 -0.000003  0.000010 -0.000031
                                 0.000091 -0.000254  0.000698 -0.002113  0.007790 -0.069108  0.179051 -0.353457  0.671764 -0.790582
                                 0.187383  0.833558  0.029506  0.215621 -0.199446 -0.012284  0.008899  0.197783 -0.004417  0.001871
                                -0.000410  0.000000  0.000000 -0.000000  0.000000  0.000000  0.000000 -0.000000  0.000000  0.000000
                                 0.000000  0.000000  0.000000  0.000000  0.000000  0.000000  0.000000  0.000000  0.000000  0.000000
                                 0.000000  0.000000  0.000000 -0.000000  0.000000  0.000000  0.000000 -0.000000  0.000000  0.000000
                                 0.000000  0.000000  0.000000  0.000000  0.000000  0.000000  0.000000  0.000000  0.000000  0.000000

                                   1 4f2-    1 4f2-    1 4f2-    1 4f2-    1 4f2-    1 4f2-    1 4f2-    1 4f2-    1 4f2-    1 4f2-
                                   1 4f2-    1 4f2-    1 4f2-    1 4f2-    1 4f2-    1 6h4-    1 6h2-    1 6h4-    1 6h2-    1 6h4-
                                   1 6h2-

   1.8  2.00000    -4.027594     0.000006 -0.000041  0.000185 -0.000240  0.048488  0.026900  0.233034  0.280191  0.401984  0.286696
                                 0.036504 -0.002602  0.001629 -0.000672  0.000200  0.000000  0.000000  0.000000  0.000000  0.000000
                                 0.000000

 Total charge:   8.000000000000


 EXTRA SYMMETRY OF MOS IN SYMMETRY 1:   1 3 2 1 2 3 1 4 5 6   2 3 1 5 4 6 3 2 1 4   5 6 3 2 1 3 2 1 3 2   1 4 5 6 1 3 2 1 3 2
                                        1 4 5 6 1 3 2 1 4 5   6 3 2 1 2 3 6 4 5 1   3 2 1 2 3 1 3 2 1 3   2 1 1 3 2 1 3 2 1 1
                                        3 2 1 3 2 1 1 3 2 1   1 3 2 1 1 1 1 1 1 1   1 1 1
 EXTRA SYMMETRY OF MOS IN SYMMETRY 2:   2 3 1 1 3 2 1 3 2 1   2 3 1 2 3 1 2 3 1 1   1 4 6 5 2 3 1 4 5 6   2 3 1 1 3 2 5 4 6 1
                                        3 2 1 1 3 2 1 3 2 1   1 2 3 1 2 3 1 1 2 3   1 1 1 1 1 1 1 1 1 1
 EXTRA SYMMETRY OF MOS IN SYMMETRY 3:   3 2 1 1 2 3 1 2 3 1   2 3 1 2 3 1 2 3 1 1   1 4 6 5 2 3 1 4 6 5   2 3 1 1 2 3 4 5 6 1
                                        3 2 1 1 3 2 1 3 2 1   1 3 2 1 2 3 1 1 3 2   1 1 1 1 1 1 1 1 1 1
 EXTRA SYMMETRY OF MOS IN SYMMETRY 4:   1 1 3 2 1 3 2 1 3 2   1 1 1 3 2 1 1 3 2 1   3 2 1 1 2 3 1 1 1 1   1 1 1 1 1 1
 EXTRA SYMMETRY OF MOS IN SYMMETRY 5:   2 3 1 1 3 2 1 3 2 1   3 2 1 2 3 1 3 2 1 1   1 6 5 4 3 2 1 5 6 4   3 2 1 1 2 3 6 4 5 1
                                        2 3 1 1 2 3 1 2 3 1   1 3 2 1 3 2 1 1 3 2   1 1 1 1 1 1 1 1 1 1
 EXTRA SYMMETRY OF MOS IN SYMMETRY 6:   1 1 3 2 1 3 2 1 3 2   1 1 1 2 3 1 1 3 2 1   2 3 1 1 2 3 1 1 1 1   1 1 1 1 1 1
 EXTRA SYMMETRY OF MOS IN SYMMETRY 7:   1 1 2 3 1 3 2 1 2 3   1 1 1 2 3 1 1 2 3 1   3 2 1 1 2 3 1 1 1 1   1 1 1 1 1 1
 EXTRA SYMMETRY OF MOS IN SYMMETRY 8:   1 1 1 1 1 1 2 3 1 3   2 1 1 3 2 1 1 1 1 1   1

 Natural orbital dump (state averaged) at molpro section  5202.2    (Orbital set 2)


 CI vector for state symmetry 1
 ==============================

 a 0 0           1.0000000

 TOTAL ENERGIES                      -190.83063207

 CI vector for state symmetry 2
 ==============================

 0 a 0           1.0000000

 TOTAL ENERGIES                      -190.83063207

 CI vector for state symmetry 3
 ==============================

 0 0 a           1.0000000

 TOTAL ENERGIES                      -190.83063207



 **********************************************************************************************************************************
 DATASETS  * FILE   NREC   LENGTH (MB)   RECORD NAMES
              1      20       41.81       500      610      700      900      950      970     1000      129      960     1100
                                          VAR    BASINP    GEOM    SYMINP    ZMAT    AOBASIS   BASIS     P2S    ABASIS      S
                                         1400     1410     1420     1200     1210     1080     1600     1650     1700     1380
                                           T        V       ECP      H0       H01     AOSYM     SMH    MOLCAS    OPER     JKOP

              2       6        9.83       200      700     1000      520     4202     5202
                                        OPTIONS   GEOM     BASIS   MCVARS     RHF     MCSCF

 PROGRAMS   *        TOTAL     MULTI       POP       RHF       INT
 CPU TIMES  *       175.46      7.03      0.01     10.00    158.01
 REAL TIME  *       184.47 SEC
 DISK USED  *         8.12 GB
 SF USED    *        76.43 MB
 GA USED    *         0.00 MB       (max)       0.00 MB       (current)
 **********************************************************************************************************************************
   -->
   <time start="06:26:35" end="06:26:42" cpu="7.03" system="0.5" real="7.55"/>
   <storage units="megabyte" memory="8001.84" sf="76.43" df="352.05" eaf="7770.84" ga="0.0"/>
  </jobstep><!--
  --><jobstep command="RHF-SCF" commandset="SCFPRO">
   <!--


 PROGRAM * RHF-SCF (OPEN SHELL)       Authors: W. Meyer, H.-J. Werner


 NUMBER OF ELECTRONS:       9+    8-    SPACE SYMMETRY=2    SPIN SYMMETRY: Doublet
 CONVERGENCE THRESHOLDS:    1.00E-05 (Density)    1.00E-07 (Energy)
 MAX. NUMBER OF ITERATIONS:        0
 INTERPOLATION TYPE:            DIIS
 INTERPOLATION STEPS:              2 (START)      1 (STEP)
 LEVEL SHIFTS:                 -0.60 (CLOSED) -0.30 (OPEN)

 Number of closed-shell orbitals:    8 (   1   2   2   0   2   0   0   1 )
 Number of open-shell orbitals:      1 (   0   1   0   0   0   0   0   0 )


 Molecular orbitals read from record     5202.2  Type=MCSCF/NATURAL (state averaged)

 Molecular orbital dump at record        2132.2

 ITERATION    DDIFF          GRAD             ENERGY        2-EL.EN.            DIPOLE MOMENTS         DIIS   ORB.
    1      0.000D+00      0.000D+00      -190.83063207    233.251780    0.00000    0.00000    0.00000    0    start

 Final alpha occupancy:   1   3   2   0   2   0   0   1
 Final beta  occupancy:   1   2   2   0   2   0   0   1

 !RHF STATE 1.2 Energy               -190.830632071838
   --><property name="Energy" method="RHF" principal="true" stateSymmetry="2" stateNumber="1"
     value="-190.830632071838"/><!--
 Nuclear energy                         0.00000000
 One-electron energy                 -307.45652227
 Two-electron energy                  116.62589019
 Virial quotient                       -1.03853805
 !RHF STATE 1.2 Dipole moment           0.00000000     0.00000000     0.00000000
 Dipole moment /Debye                   0.00000000     0.00000000     0.00000000
   --><property name="Dipole moment" method="RHF" principal="true" stateSymmetry="2"
     stateNumber="1" value="0.0 0.0 0.0"/><!--

 Orbital energies:

         1.1          2.1          3.1
     -6.251676    -3.262505    -3.262505

         1.2          2.2          3.2          4.2          5.2
     -4.027594    -4.027594    -4.785234    -2.231423    -1.774034

         1.3          2.3          3.3          4.3
     -4.027594    -4.027594    -4.785234    -2.231423

         1.4          2.4
     -3.262505    -1.740835

         1.5          2.5          3.5          4.5
     -4.027594    -4.027594    -4.785234    -2.231423

         1.6          2.6
     -3.262505    -1.740835

         1.7          2.7
     -3.262505    -1.740835

         1.8          2.8          3.8
     -4.027594    -1.774034    -1.155945

 HOMO      2.3    -4.027594 =    -109.5964eV
 LUMO      3.3    -4.785234 =    -130.2128eV
 LUMO-HOMO        -0.757640 =     -20.6164eV


 **********************************************************************************************************************************
 DATASETS  * FILE   NREC   LENGTH (MB)   RECORD NAMES
              1      20       41.81       500      610      700      900      950      970     1000      129      960     1100
                                          VAR    BASINP    GEOM    SYMINP    ZMAT    AOBASIS   BASIS     P2S    ABASIS      S
                                         1400     1410     1420     1200     1210     1080     1600     1650     1700     1380
                                           T        V       ECP      H0       H01     AOSYM     SMH    MOLCAS    OPER     JKOP

              2       7       13.66       200      700     1000      520     4202     5202     2132
                                        OPTIONS   GEOM     BASIS   MCVARS     RHF     MCSCF     RHF

 PROGRAMS   *        TOTAL       RHF     MULTI       POP       RHF       INT
 CPU TIMES  *       175.66      0.18      7.03      0.01     10.00    158.01
 REAL TIME  *       184.69 SEC
 DISK USED  *         8.12 GB
 SF USED    *        76.43 MB
 GA USED    *         0.00 MB       (max)       0.00 MB       (current)
 **********************************************************************************************************************************
   -->
   <time start="06:26:42" end="06:26:43" cpu="0.2" system="0.02" real="0.22"/>
   <storage units="megabyte" memory="8001.84" sf="76.43" df="352.05" eaf="7770.84" ga="0.0"/>
  </jobstep><!--
 SETTING SCF(15)        =      -190.83063207  AU
 SETTING _CC_NORM_MAX   =         2.00000000
  --><jobstep command="RCCSD(T)" commandset="CCSD">
   <!--


 PROGRAM * CCSD (Restricted open-shell coupled cluster)     Authors: C. Hampel, H.-J. Werner, 1991, M. Deegan, P.J. Knowles, 1992


 Convergence thresholds:  THRVAR = 1.00D-08  THRDEN = 1.00D-06

 CCSD(T)     terms to be evaluated (factor= 1.000)


 Number of closed-shell orbitals:   8 (   1   2   2   0   2   0   0   1 )
 Number of active  orbitals:        1 (   0   1   0   0   0   0   0   0 )
 Number of external orbitals:     433 ( 102  67  68  36  68  36  36  20 )

 Memory could be reduced to 170.29 Mwords without degradation in triples

 Number of N-1 electron functions:              17
 Number of N-2 electron functions:             136
 Number of singly external CSFs:              1128
 Number of doubly external CSFs:           2462472
 Total number of CSFs:                     2463600

 Molecular orbitals read from record     2132.2  Type=RHF/CANONICAL (state 1.2)

 Integral transformation finished. Total CPU:   4.47 sec, npass=  1  Memory used:  30.50 MW

 Starting RMP2 calculation

 Wavefunction is spin-projected

 ITER.      SQ.NORM     CORR.ENERGY   TOTAL ENERGY   ENERGY CHANGE        DEN1      VAR(S)    VAR(P)  DIIS     TIME
   1      9.24750473    -2.17139089  -193.00202296    -2.17139089     1.07059069  0.11D+02  0.11D+00  0  0     5.20
   2    264.70215831    -1.10080019  -191.93143226     1.07059069    32.89522453  0.36D+03  0.11D+00  0  0     5.39

 UNREASONABLE NORM:264.702158 CALCULATION WILL BE STOPPED

 The threshold can be changed using option CC_NORM_MAX (see manual). The current value is CC_NORM_MAX=2.00

 Norm of t1 vector:     16.20821846      S-energy:     0.91333163      T1 diagnostic:  2.77963222
 Norm of t2 vector:      0.99790413      P-energy:    -2.01413182
                                         Alpha-Beta:  -1.36911341
                                         Alpha-Alpha: -0.33587647
                                         Beta-Beta:   -0.30914193

 Singles amplitudes (print threshold =  0.500E-01):

         I         SYM. A    A   T(IA) [Alpha-Alpha]

         5         3         1     -0.55909046
         6         3         1     -0.40793908
         7         5         1      0.67621993
         8         5         1      0.65540457

         I         SYM. A    A   T(IA) [Beta-Beta]

         2         2         1     11.81572290
         3         2         1    -10.95608424
         5         3         1     -0.59877878
         6         3         1     -0.47372986
         7         5         1      0.76266399
         8         5         1      0.72303254

 Spin contamination <S**2-Sz**2-Sz>     0.00000000


 RESULTS
 =======

  Reference energy                   -190.830632071838
   --><property name="energy" method="Reference" stateSymmetry="1" stateNumber="1"
     value="-190.830632071838"/><!--
  RCCSD singles energy                  0.913331626375
   --><property name="energy" method="RCCSD singles" stateSymmetry="1" stateNumber="1"
     value="0.91333162637481"/><!--
  RCCSD pair energy                    -2.014131817372
   --><property name="energy" method="RCCSD pair" stateSymmetry="1" stateNumber="1"
     value="-2.01413181737201"/><!--
  RCCSD correlation energy             -1.100800190997
   --><property name="energy" method="RCCSD correlation" stateSymmetry="1" stateNumber="1"
     value="-1.1008001909972"/><!--

 !RHF-RCCSD energy                   -191.931432262836
   --><property name="energy" method="RHF-RCCSD" principal="true" stateSymmetry="1"
     stateNumber="1" value="-191.931432262836"/><!--

 Program statistics:

 Available memory in ccsd:               999999162
 Min. memory needed in ccsd:               7041070
 Max. memory used in ccsd:                10017550
 Max. memory used in cckext:                     0 ( 0 integral passes)
 Max. memory used in cckint:              30499174 ( 1 integral passes)


 ? Error
 ? No convergence. This error exit can be avoided using the NOCHECK option
 ? The problem occurs in ccsd
   --><error type="Error" location="ccsd"
     message="No convergence. This error exit can be avoided using the NOCHECK option"/><!--
  --></jobstep><!--
  -->
  <input>
  <!--
 --></job><!--
--></molpro>
