<?xml version="1.0"?>
<molpro xmlns="http://www.molpro.net/schema/molpro-output"
  xmlns:xsd="http://www.w3.org/1999/XMLSchema"
  xmlns:cml="http://www.xml-cml.org/schema"
  xmlns:stm="http://www.xml-cml.org/schema"
  xmlns:xhtml="http://www.w3.org/1999/xhtml">
 <!--

 Nodes     nprocs
 nid01692    11
 Number of processes for MPI-2 version of Molpro:   nprocs(total)=   12   nprocs(compute)=   11   nprocs(helper)=    1

 Using customized tuning parameters: mindgm=7; mindgv=16; mindgc=1; mindgr=1; noblas=0; minvec=7
 default implementation of scratch files=sf

 --><job>
  <!--

 Variables initialized (889), CPU time= 0.01 sec
 Commands  initialized (702), CPU time= 0.01 sec, 572 directives.
 Default parameters read. Elapsed time= 0.11 sec

 Checking input...
 Passed
1


                                         ***  PROGRAM SYSTEM MOLPRO  ***
                                       Copyright, TTI GmbH Stuttgart, 2015
                                    Version 2015.1 linked Dec 29 2018 15:55:43


 **********************************************************************************************************************************
 LABEL *   Calculation for GdH3 atom, singlet and triplet
  64 bit mpp version                                                                     DATE: 27-Dec-22          TIME: 18:26:03
 **********************************************************************************************************************************

 SHA1:             19cd028119e0e09f93f0674bd8af7968d9b3eff6
 **********************************************************************************************************************************
  -->
  <!--

 THRESHOLDS:

 ZERO    =  1.00D-12  ONEINT  =  1.00D-12  TWOINT  =  1.00D-15  PREFAC  =  1.00D-14  LOCALI  =  1.00D-09  EORDER  =  1.00D-04
 ENERGY  =  0.00D+00  ETEST   =  0.00D+00  EDENS   =  0.00D+00  THRDEDEF=  1.00D-06  GRADIENT=  1.00D-02  STEP    =  1.00D-03
 ORBITAL =  1.00D-05  CIVEC   =  1.00D-05  COEFF   =  1.00D-04  PRINTCI =  5.00D-02  PUNCHCI =  9.90D+01  OPTGRAD =  3.00D-04
 OPTENERG=  1.00D-06  OPTSTEP =  3.00D-04  THRGRAD =  1.00D-10  COMPRESS=  1.00D-11  VARMIN  =  1.00D-07  VARMAX  =  1.00D-03
 THRDOUB =  0.00D+00  THRDIV  =  1.00D-05  THRRED  =  1.00D-07  THRPSP  =  1.00D+00  THRDC   =  1.00D-10  THRCS   =  1.00D-10
 THRNRM  =  1.00D-08  THREQ   =  0.00D+00  THRDE   =  1.00D+00  THRREF  =  1.00D-05  SPARFAC =  1.00D+00  THRDLP  =  1.00D-07
 THRDIA  =  1.00D-10  THRDLS  =  1.00D-07  THRGPS  =  0.00D+00  THRKEX  =  0.00D+00  THRDIS  =  2.00D-01  THRVAR  =  1.00D-10
 THRLOC  =  1.00D-06  THRGAP  =  1.00D-06  THRLOCT = -1.00D+00  THRGAPT = -1.00D+00  THRORB  =  1.00D-06  THRMLTP =  0.00D+00
 THRCPQCI=  1.00D-10  KEXTA   =  0.00D+00  THRCOARS=  0.00D+00  SYMTOL  =  1.00D-06  GRADTOL =  1.00D-06  THROVL  =  1.00D-08
 THRORTH =  1.00D-08  GRID    =  1.00D-06  GRIDMAX =  1.00D-03  DTMAX   =  0.00D+00  THROCCDE=  1.00D-01  THROCCDE=  1.00D-01



 THRESHOLDS:

 ZERO    =  1.00D-12  ONEINT  =  1.00D-12  TWOINT  =  1.00D-15  PREFAC  =  1.00D-14  LOCALI  =  1.00D-09  EORDER  =  1.00D-04
 ENERGY  =  0.00D+00  ETEST   =  0.00D+00  EDENS   =  0.00D+00  THRDEDEF=  1.00D-06  GRADIENT=  1.00D-02  STEP    =  1.00D-03
 ORBITAL =  1.00D-05  CIVEC   =  1.00D-05  COEFF   =  1.00D-04  PRINTCI =  5.00D-02  PUNCHCI =  9.90D+01  OPTGRAD =  3.00D-04
 OPTENERG=  1.00D-06  OPTSTEP =  3.00D-04  THRGRAD =  1.00D-10  COMPRESS=  1.00D-11  VARMIN  =  1.00D-07  VARMAX  =  1.00D-03
 THRDOUB =  0.00D+00  THRDIV  =  1.00D-05  THRRED  =  1.00D-07  THRPSP  =  1.00D+00  THRDC   =  1.00D-10  THRCS   =  1.00D-10
 THRNRM  =  1.00D-08  THREQ   =  0.00D+00  THRDE   =  1.00D+00  THRREF  =  1.00D-05  SPARFAC =  1.00D+00  THRDLP  =  1.00D-07
 THRDIA  =  1.00D-10  THRDLS  =  1.00D-07  THRGPS  =  0.00D+00  THRKEX  =  0.00D+00  THRDIS  =  2.00D-01  THRVAR  =  1.00D-10
 THRLOC  =  1.00D-06  THRGAP  =  1.00D-06  THRLOCT = -1.00D+00  THRGAPT = -1.00D+00  THRORB  =  1.00D-06  THRMLTP =  0.00D+00
 THRCPQCI=  1.00D-10  KEXTA   =  0.00D+00  THRCOARS=  0.00D+00  SYMTOL  =  1.00D-06  GRADTOL =  1.00D-06  THROVL  =  1.00D-15
 THRORTH =  1.00D-08  GRID    =  1.00D-06  GRIDMAX =  1.00D-03  DTMAX   =  0.00D+00  THROCCDE=  1.00D-01  THROCCDE=  1.00D-01



 Variable memory set to 1000000000 words,  buffer space   230000 words

 SETTING BASIS          =    USERDEF
 SETTING GD_CCSD        =      -108.94859710
 SETTING H_CCSD         =        -0.49982987
 SETTING NE             =        20.00000000
 SETTING SYMM           =         4.00000000
 SETTING SS             =         8.00000000
 SETTING A1             =         7.00000000
 SETTING B1             =         3.00000000
 SETTING B2             =         3.00000000
 SETTING A2             =         1.00000000
 ZUNIT=ANG

  --><jobstep command="RHF-SCF" commandset="SCFPRO">
   <!--


 Recomputing integrals since basis changed


 Using spherical harmonics



 PROGRAM * SEWARD (Integral evaluation for generally contracted gaussian basis sets)     Author: Roland Lindh, 1990

 Geometry written to block  1 of record 700

 Orientation using atomic masses
 Molecule type: Asymmetric top,     Order of principal axis = 2
 Symmetry elements: X,Y
 Rotational constants:      62.8736904    253.9128058     83.5663163 GHz  (calculated with average atomic masses)

 Point group  C2v


   --><cml:molecule>
    <cml:symmetry pointGroup="C2v"/>
    <cml:atomArray>
     <cml:atom id="a1" elementType="Gd" x3="0.0" y3="0.0" z3="-0.126573249712996E-01"/>
     <cml:atom id="a2" elementType="H" x3="0.0" y3="1.73205080756888" z3="0.987342675028701"/>
     <cml:atom id="a3" elementType="H" x3="0.0" y3="-1.73205080756888" z3="0.987342675028701"/>
    </cml:atomArray>
    <cml:bondArray>
     <cml:bond atomRefs2="a1 a2"/>
     <cml:bond atomRefs2="a1 a3"/>
    </cml:bondArray>
   </cml:molecule><!--

 ATOMIC COORDINATES

 NR  ATOM    CHARGE       X              Y              Z

   1  GD     18.00    0.000000000    0.000000000   -0.023918878
   2  H1      1.00    0.000000000    3.273101660    1.865807247
   3  H2      1.00    0.000000000   -3.273101660    1.865807247

 Bond lengths in Bohr (Angstrom)

 1-2  3.779452249  1-3  3.779452249
     ( 2.000000000)     ( 2.000000000)

 Bond angles

  2-1-3  120.00000000

 NUCLEAR CHARGE:                   20
 NUMBER OF PRIMITIVE AOS:         646
 NUMBER OF SYMMETRY AOS:          494
 NUMBER OF CONTRACTIONS:          494   ( 188A1  + 114B1  + 125B2  +  67A2  )
 NUMBER OF CORE ORBITALS:           0   (   0A1  +   0B1  +   0B2  +   0A2  )
 NUMBER OF VALENCE ORBITALS:       19   (   8A1  +   4B1  +   5B2  +   2A2  )


 NUCLEAR REPULSION ENERGY    9.67795010


 Eigenvalues of metric

         1 0.113E-06 0.293E-06 0.614E-06 0.722E-06 0.727E-06 0.738E-06 0.131E-05 0.365E-05
         2 0.616E-06 0.727E-06 0.439E-05 0.139E-04 0.238E-04 0.447E-04 0.882E-04 0.148E-03
         3 0.607E-06 0.721E-06 0.426E-05 0.125E-04 0.232E-04 0.245E-04 0.406E-04 0.448E-04
         4 0.726E-06 0.238E-04 0.148E-03 0.536E-03 0.823E-03 0.908E-03 0.386E-02 0.674E-02


 Contracted 2-electron integrals neglected if value below      1.0D-15
 AO integral compression algorithm  1   Integral accuracy      1.0D-15

     8146.649 MB (compressed) written to integral file ( 53.7%)

     Node minimum: 360.972 MB, node maximum: 1006.371 MB


 NUMBER OF SORTED TWO-ELECTRON INTEGRALS:  172337618.     BUFFER LENGTH:  32768
 NUMBER OF SEGMENTS:   6  SEGMENT LENGTH:   31978800      RECORD LENGTH: 524288

 Memory used in sort:      32.54 MW

 SORT1 READ  1896767167. AND WROTE    88726599. INTEGRALS IN    257 RECORDS. CPU TIME:    35.54 SEC, REAL TIME:    49.74 SEC
 SORT2 READ   983126208. AND WROTE  1895377561. INTEGRALS IN  18986 RECORDS. CPU TIME:     2.66 SEC, REAL TIME:     4.24 SEC

 Node minimum:   172225131.  Node maximum:   172451116. integrals

 OPERATOR DM      FOR CENTER  0  COORDINATES:    0.000000    0.000000    0.000000


 **********************************************************************************************************************************
 DATASETS  * FILE   NREC   LENGTH (MB)   RECORD NAMES
              1      19       22.81       500      610      700      900      950      970     1000      129      960     1100
                                          VAR    BASINP    GEOM    SYMINP    ZMAT    AOBASIS   BASIS     P2S    ABASIS      S
                                         1400     1410     1420     1200     1210     1080     1600     1650     1700
                                           T        V       ECP      H0       H01     AOSYM     SMH    MOLCAS    OPER

 PROGRAMS   *        TOTAL       INT
 CPU TIMES  *       123.03    122.83
 REAL TIME  *       141.57 SEC
 DISK USED  *        20.19 GB
 GA USED    *         0.00 MB       (max)       0.00 MB       (current)
 **********************************************************************************************************************************


 PROGRAM * RHF-SCF (OPEN SHELL)       Authors: W. Meyer, H.-J. Werner


 NUMBER OF ELECTRONS:      14+    6-    SPACE SYMMETRY=4    SPIN SYMMETRY: Nonet
 CONVERGENCE THRESHOLDS:    1.00E-05 (Density)    1.00E-07 (Energy)
 MAX. NUMBER OF ITERATIONS:      200
 INTERPOLATION TYPE:            DIIS
 INTERPOLATION STEPS:              2 (START)      1 (STEP)
 LEVEL SHIFTS:                 -0.60 (CLOSED) -0.30 (OPEN)

 Number of closed-shell orbitals:    6 (   4   1   1   0 )
 Number of open-shell orbitals:      8 (   3   2   2   1 )


 Guess basis ATOMIC-GUESS,GD=ECP46_GUESS not found. No density guess!


 Molecular orbital dump at record        2100.2

 ITERATION    DDIFF          GRAD             ENERGY        2-EL.EN.            DIPOLE MOMENTS         DIIS   ORB.
    1      0.000D+00      0.000D+00       -72.10472340    368.548673    0.00000    0.00000    3.43210    0    start
    2      0.000D+00      0.178D+00       -25.10479928     20.743401    0.00000    0.00000  -52.42914    0    diag,B
    3      0.157D+02      0.515D-01       -73.21358931    366.170377    0.00000    0.00000    3.97713    1    diag,B
    4      0.157D+02      0.176D+00       -78.19131288    355.500010    0.00000    0.00000    3.92311    2    diag,B
    5      0.644D-01      0.157D+00       -84.03205479    341.363658    0.00000    0.00000    3.82535    3    diag,B
    6      0.961D-01      0.136D+00       -84.67950792    339.697809    0.00000    0.00000    3.78539    4    diag,B
    7      0.317D-01      0.134D+00       -84.98962223    338.836323    0.00000    0.00000    3.76048    5    diag,B
    8      0.196D-01      0.133D+00       -85.03002024    338.734740    0.00000    0.00000    3.76111    6    diag,B
    9      0.113D-02      0.133D+00       -85.02845041    338.738010    0.00000    0.00000    3.76156    7    diag,B
   10      0.948D-03      0.133D+00       -85.15790855    338.383955    0.00000    0.00000    3.83393    8    orth
   11      0.517D-02      0.132D+00       -85.26831079    338.077698    0.00000    0.00000    3.86386    9    diag,B
   12      0.959D-02      0.132D+00       -85.44493752    337.616309    0.00000    0.00000    3.83775    9    diag,B
   13      0.362D-02      0.131D+00       -86.13652377    335.689728    0.00000    0.00000    3.88345    9    diag,B
   14      0.401D-01      0.129D+00       -85.91331520    336.301967    0.00000    0.00000    3.91691    9    diag,B
   15      0.113D-01      0.130D+00       -85.00748532    338.800156    0.00000    0.00000    3.94620    9    diag,B
   16      0.463D-01      0.133D+00       -85.81784365    336.581155    0.00000    0.00000    3.85660    9    diag,B
   17      0.514D-01      0.130D+00       -86.19601244    335.490599    0.00000    0.00000    3.89346    9    diag,B
   18      0.153D-01      0.129D+00       -86.44277965    334.796836    0.00000    0.00000    3.91896    9    diag,B
   19      0.865D-02      0.128D+00       -86.28410421    335.231670    0.00000    0.00000    3.91173    9    diag,B
   20      0.241D-02      0.129D+00       -87.13328065    332.829020    0.00000    0.00000    3.97937    9    orth
   21      0.146D-01      0.125D+00       -88.21878135    329.771546    0.00000    0.00000    3.89481    9    diag,B
   22      0.183D-01      0.121D+00       -87.81079443    330.893756    0.00000    0.00000    3.90262    9    diag,B
   23      0.197D-01      0.122D+00       -86.85331726    333.676853    0.00000    0.00000    4.02430    9    diag,B
   24      0.289D-01      0.126D+00       -86.88499041    333.642689    0.00000    0.00000    3.99362    9    diag,B
   25      0.135D-01      0.125D+00       -88.02800906    330.322440    0.00000    0.00000    3.81257    9    diag,B
   26      0.528D-01      0.122D+00       -85.23439254    338.177770    0.00000    0.00000    4.01632    9    diag,B
   27      0.861D-01      0.132D+00       -87.49692233    331.890530    0.00000    0.00000    3.79707    9    diag,B
   28      0.791D-01      0.124D+00       -88.35131792    329.349317    0.00000    0.00000    3.92905    9    diag,B
   29      0.166D-01      0.120D+00       -86.02608121    336.046537    0.00000    0.00000    3.88701    9    diag,B
   30      0.790D-01      0.129D+00       -87.36340987    332.277570    0.00000    0.00000    3.85547    9    orth
   31      0.512D-01      0.124D+00       -88.10153928    330.108726    0.00000    0.00000    3.83165    9    diag,B
   32      0.190D-01      0.121D+00       -88.03642460    330.296668    0.00000    0.00000    3.85658    9    diag,B
   33      0.145D-02      0.122D+00       -87.94726775    330.524839    0.00000    0.00000    3.93826    9    diag,B
   34      0.459D-02      0.122D+00       -84.27372453    340.710481    0.00000    0.00000    4.06705    9    diag,B
   35      0.114D+00      0.135D+00       -86.08520456    335.888493    0.00000    0.00000    3.84796    9    diag,B
   36      0.606D-01      0.129D+00       -87.60567099    331.547597    0.00000    0.00000    3.85249    9    diag,B
   37      0.513D-01      0.124D+00       -88.96942285    327.534361    0.00000    0.00000    3.81250    9    diag,B
   38      0.206D-01      0.118D+00       -87.43047842    332.053100    0.00000    0.00000    3.80339    9    diag,B
   39      0.370D-01      0.124D+00       -88.99663591    327.421574    0.00000    0.00000    3.76888    9    diag,B
   40      0.430D-01      0.118D+00       -89.43002772    326.130039    0.00000    0.00000    3.76468    9    orth
   41      0.340D-02      0.116D+00       -89.34086473    326.431257    0.00000    0.00000    3.74255    9    diag,B
   42      0.119D-01      0.116D+00       -89.14373662    327.008932    0.00000    0.00000    3.56030    9    diag,B
   43      0.489D-02      0.117D+00       -90.14005253    323.922032    0.00000    0.00000    3.72277    9    diag,B
   44      0.241D-01      0.113D+00       -90.19666364    323.683080    0.00000    0.00000    3.68629    9    diag,B
   45      0.716D-02      0.113D+00       -90.83501040    321.655066    0.00000    0.00000    3.69824    9    diag,B
   46      0.806D-02      0.110D+00       -90.88461053    321.508626    0.00000    0.00000    3.67143    9    diag,B
   47      0.102D-02      0.110D+00       -90.85517265    321.597671    0.00000    0.00000    3.67207    9    diag,B
   48      0.611D-03      0.110D+00       -90.71463750    322.052617    0.00000    0.00000    3.73761    9    diag,B
   49      0.423D-02      0.111D+00       -90.60259627    322.421266    0.00000    0.00000    3.55467    9    diag,B
   50      0.327D-02      0.111D+00       -87.24766645    332.594715    0.00000    0.00000    3.66467    9    orth
   51      0.678D-01      0.125D+00       -90.56005796    322.586095    0.00000    0.00000    3.51784    9    diag,B
   52      0.666D-01      0.111D+00       -90.80676551    321.784253    0.00000    0.00000    3.57967    9    diag,B
   53      0.644D-02      0.110D+00       -86.30900918    335.248343    0.00000    0.00000    3.70556    9    diag,B
   54      0.105D+00      0.128D+00       -90.60640568    322.417282    0.00000    0.00000    3.59439    9    diag,B
   55      0.105D+00      0.111D+00       -90.06710715    324.138648    0.00000    0.00000    3.44375    9    diag,B
   56      0.120D-01      0.114D+00       -87.82538209    330.937700    0.00000    0.00000    3.75085    9    diag,B
   57      0.711D-01      0.122D+00       -90.72021602    322.051645    0.00000    0.00000    3.55040    9    diag,B
   58      0.807D-01      0.111D+00       -89.72159682    325.209654    0.00000    0.00000    3.39424    9    diag,B
   59      0.175D-01      0.115D+00       -87.72016878    331.246396    0.00000    0.00000    3.77343    9    fixocc
   60      0.686D-01      0.122D+00       -89.67699756    325.302770    0.00000    0.00000    3.70083    9    orth
   61      0.759D-01      0.116D+00       -89.12472201    327.028696    0.00000    0.00000    3.43520    9    diag,B
   62      0.181D-01      0.118D+00       -88.73432349    328.225167    0.00000    0.00000    3.80552    9    diag,B
   63      0.283D-01      0.119D+00       -90.00760041    324.270519    0.00000    0.00000    3.73752    9    diag,B
   64      0.468D-01      0.114D+00       -87.92596625    330.605241    0.00000    0.00000    3.45213    9    diag,B
   65      0.466D-01      0.122D+00       -88.82504505    327.947244    0.00000    0.00000    3.82234    9    diag,B
   66      0.122D-01      0.118D+00       -90.47612880    322.800673    0.00000    0.00000    3.66254    9    diag,B
   67      0.457D-01      0.112D+00       -88.06742894    330.200309    0.00000    0.00000    3.45379    9    diag,B
     Orbital  1.2 strongly deviates from fixed occupation: 1.89693  (now: 2.00)
     Note:  Use {hf,nitord=N} to fix occupations at iteration N
            Use {gthresh,occdev=1.0} to suppress deviation warnings
   68      0.530D-01      0.122D+00       -88.28821198    329.544123    0.00000    0.00000    3.88494    9    diag,B
   69      0.129D-01      0.120D+00       -90.51661774    322.673064    0.00000    0.00000    3.62789    9    diag,B
   70      0.576D-01      0.112D+00       -88.28042060    329.585545    0.00000    0.00000    3.47272    9    orth
   71      0.528D-01      0.121D+00       -88.72260810    328.243242    0.00000    0.00000    3.89252    9    diag,B
   72      0.132D-01      0.119D+00       -90.22180099    323.597036    0.00000    0.00000    3.63644    9    diag,B
   73      0.453D-01      0.113D+00       -87.79538607    331.013095    0.00000    0.00000    3.48423    9    diag,B
   74      0.630D-01      0.122D+00       -89.37596614    326.257096    0.00000    0.00000    3.85345    9    diag,B
   75      0.370D-01      0.116D+00       -90.21112267    323.632700    0.00000    0.00000    3.63145    9    diag,B
   76      0.280D-01      0.113D+00       -87.33572887    332.348649    0.00000    0.00000    3.49763    9    diag,B
   77      0.762D-01      0.124D+00       -89.43069296    326.085650    0.00000    0.00000    3.84184    9    diag,B
   78      0.543D-01      0.116D+00       -90.38848309    323.076958    0.00000    0.00000    3.60391    9    diag,B
   79      0.261D-01      0.113D+00       -87.31064266    332.425924    0.00000    0.00000    3.50567    9    diag,B
   80      0.808D-01      0.124D+00       -89.27688248    326.552914    0.00000    0.00000    3.85298    9    orth
   81      0.559D-01      0.117D+00       -90.48694848    322.764457    0.00000    0.00000    3.58545    9    diag,B
   82      0.289D-01      0.112D+00       -87.30512597    332.446123    0.00000    0.00000    3.51607    9    diag,B
   83      0.834D-01      0.124D+00       -89.29877756    326.483826    0.00000    0.00000    3.85275    9    diag,B
   84      0.588D-01      0.117D+00       -90.50821904    322.695828    0.00000    0.00000    3.57547    9    diag,B
   85      0.279D-01      0.112D+00       -87.19423792    332.767434    0.00000    0.00000    3.52625    9    diag,B
   86      0.879D-01      0.125D+00       -89.40989306    326.142870    0.00000    0.00000    3.84334    9    diag,B
   87      0.656D-01      0.116D+00       -90.50416104    322.709017    0.00000    0.00000    3.56763    9    diag,B
   88      0.251D-01      0.112D+00       -87.11546469    332.995422    0.00000    0.00000    3.53466    9    diag,B
   89      0.912D-01      0.125D+00       -89.49627470    325.876687    0.00000    0.00000    3.83454    9    diag,B
   90      0.710D-01      0.116D+00       -90.48662770    322.765170    0.00000    0.00000    3.56120    9    orth
   91      0.228D-01      0.112D+00       -87.06868221    333.130914    0.00000    0.00000    3.54203    9    diag,B
   92      0.933D-01      0.125D+00       -89.56943713    325.650534    0.00000    0.00000    3.82710    9    diag,B
   93      0.749D-01      0.116D+00       -90.46316706    322.840084    0.00000    0.00000    3.55602    9    diag,B
   94      0.207D-01      0.112D+00       -87.02178468    333.265946    0.00000    0.00000    3.54884    9    diag,B
   95      0.950D-01      0.125D+00       -89.63663923    325.442488    0.00000    0.00000    3.81987    9    diag,B
   96      0.784D-01      0.115D+00       -90.44056502    322.912455    0.00000    0.00000    3.55164    9    diag,B
   97      0.189D-01      0.113D+00       -86.98163260    333.381247    0.00000    0.00000    3.55510    9    diag,B
   98      0.965D-01      0.125D+00       -89.69264426    325.268764    0.00000    0.00000    3.81340    9    diag,B
   99      0.814D-01      0.115D+00       -90.41808679    322.984458    0.00000    0.00000    3.54775    9    diag,B
  100      0.173D-01      0.113D+00       -86.95200941    333.466230    0.00000    0.00000    3.56093    9    orth
  101      0.976D-01      0.125D+00       -89.74095274    325.118631    0.00000    0.00000    3.80776    9    diag,B
  102      0.838D-01      0.115D+00       -90.39358595    323.062786    0.00000    0.00000    3.54426    9    diag,B
  103      0.158D-01      0.113D+00       -86.92837154    333.533956    0.00000    0.00000    3.56659    9    diag,B
  104      0.984D-01      0.125D+00       -89.78632101    324.977421    0.00000    0.00000    3.80253    9    diag,B
  105      0.859D-01      0.115D+00       -90.36638395    323.149597    0.00000    0.00000    3.54103    9    diag,B
  106      0.145D-01      0.113D+00       -86.90899837    333.589411    0.00000    0.00000    3.57223    9    diag,B
  107      0.991D-01      0.126D+00       -89.83008545    324.840991    0.00000    0.00000    3.79745    9    diag,B
  108      0.878D-01      0.115D+00       -90.33622324    323.245700    0.00000    0.00000    3.53796    9    diag,B
  109      0.131D-01      0.113D+00       -86.89419598    333.631784    0.00000    0.00000    3.57795    9    diag,B
  110      0.996D-01      0.126D+00       -89.87251133    324.708506    0.00000    0.00000    3.79245    9    orth
  111      0.895D-01      0.114D+00       -90.30295158    323.351547    0.00000    0.00000    3.53495    9    diag,B
  112      0.118D-01      0.113D+00       -86.88383945    333.661462    0.00000    0.00000    3.58382    9    diag,B
  113      0.999D-01      0.126D+00       -89.91388899    324.579069    0.00000    0.00000    3.78745    9    diag,B
  114      0.911D-01      0.114D+00       -90.26659389    323.467032    0.00000    0.00000    3.53196    9    diag,B
  115      0.105D-01      0.113D+00       -86.87776344    333.678935    0.00000    0.00000    3.58992    9    diag,B
  116      0.100D+00      0.126D+00       -89.95434396    324.452297    0.00000    0.00000    3.78239    9    diag,B
  117      0.925D-01      0.114D+00       -90.22716203    323.592089    0.00000    0.00000    3.52891    9    diag,B
  118      0.913D-02      0.113D+00       -86.87609475    333.683851    0.00000    0.00000    3.59633    9    diag,B
  119      0.100D+00      0.126D+00       -89.99390221    324.328120    0.00000    0.00000    3.77724    9    diag,B
  120      0.938D-01      0.114D+00       -90.18453706    323.727059    0.00000    0.00000    3.52576    9    orth
  121      0.782D-02      0.114D+00       -86.87907374    333.675524    0.00000    0.00000    3.60312    9    diag,B
  122      0.999D-01      0.126D+00       -90.03259642    324.206446    0.00000    0.00000    3.77198    9    diag,B
  123      0.949D-01      0.114D+00       -90.13849069    323.872626    0.00000    0.00000    3.52244    9    diag,B
  124      0.656D-02      0.114D+00       -86.88703700    333.652986    0.00000    0.00000    3.61038    9    diag,B
  125      0.995D-01      0.126D+00       -90.07041917    324.087312    0.00000    0.00000    3.76657    9    diag,B
  126      0.959D-01      0.114D+00       -90.08870571    324.029744    0.00000    0.00000    3.51890    9    diag,B
  127      0.541D-02      0.114D+00       -86.90051020    333.614719    0.00000    0.00000    3.61819    9    diag,B
  128      0.989D-01      0.126D+00       -90.10726698    323.971055    0.00000    0.00000    3.76101    9    diag,B
  129      0.967D-01      0.113D+00       -90.03477294    324.199650    0.00000    0.00000    3.51508    9    diag,B
  130      0.454D-02      0.114D+00       -86.92025033    333.558532    0.00000    0.00000    3.62669    9    orth
  131      0.981D-01      0.125D+00       -90.14292187    323.858372    0.00000    0.00000    3.75530    9    diag,B
  132      0.973D-01      0.113D+00       -89.97618798    324.383867    0.00000    0.00000    3.51088    9    diag,B
  133      0.418D-02      0.114D+00       -86.94726680    333.481496    0.00000    0.00000    3.63599    9    diag,B


 ?APPARENTLY NO CONVERGENCE, EXIT AFTER THREE FURTHER ITERATIONS


  134      0.970D-01      0.125D+00       -90.17703892    323.750367    0.00000    0.00000    3.74943    9    diag,B
  135      0.977D-01      0.113D+00       -89.81051296    324.915676    0.00000    0.00000    3.52482    9    orth
     Orbital  1.1 strongly deviates from fixed occupation: 1.49883  (now: 2.00)
     Orbital  2.1 strongly deviates from fixed occupation: 0.99564  (now: 2.00)
     Orbital  3.1 strongly deviates from fixed occupation: 0.80933  (now: 2.00)
     Orbital  4.1 strongly deviates from fixed occupation: 0.66704  (now: 2.00)
     Orbital  5.1 strongly deviates from fixed occupation: 0.39639  (now: 1.00)
     Orbital  6.1 strongly deviates from fixed occupation: 0.27933  (now: 1.00)
     Orbital  7.1 strongly deviates from fixed occupation: 0.23651  (now: 1.00)
     Orbital  1.2 strongly deviates from fixed occupation: 0.97015  (now: 2.00)
     Orbital  2.2 strongly deviates from fixed occupation: 0.48303  (now: 1.00)
     Orbital  3.2 strongly deviates from fixed occupation: 0.73441  (now: 1.00)
     Orbital  1.3 strongly deviates from fixed occupation: 0.64111  (now: 2.00)
     Orbital  2.3 strongly deviates from fixed occupation: 0.62851  (now: 1.00)
     Orbital  3.3 strongly deviates from fixed occupation: 0.46504  (now: 1.00)
     Orbital  1.4 strongly deviates from fixed occupation: 0.47143  (now: 1.00)
  136      0.658D-02      0.115D+00       -72.24018517    170.004904    0.00000    0.00000   -2.12094    0    orth

 Final alpha occupancy:   7   3   3   1
 Final beta  occupancy:   4   1   1   0

 !RHF STATE 1.4 Energy                -72.240185168222
   --><property name="Energy" method="RHF" principal="true" stateSymmetry="4" stateNumber="1"
     value="-72.2401851682223"/><!--
 Nuclear energy                         9.67795010
 One-electron energy                 -166.92058722
 Two-electron energy                   85.00245195
 Virial quotient                       -0.54776498
 !RHF STATE 1.4 Dipole moment           0.00000000     0.00000000    -2.12093709
 Dipole moment /Debye                   0.00000000     0.00000000    -5.39053129
   --><property name="Dipole moment" method="RHF" principal="true" stateSymmetry="4"
     stateNumber="1" value="0.0 0.0 -2.1209370914883"/><!--

 ELECTRON ORBITALS
 =================


   Orb  Occ    Energy  Couls-En    Coefficients

                                   1 1s      1 1s      1 1s      1 1s      1 1s      1 1s      1 1s      1 1s      1 1s      1 1s
                                   1 1s      1 1s      1 1s      1 1s      1 1s      1 1s      1 1s      1 1s      1 1s      1 1s
                                   1 1s      1 1s      1 1s      1 1s      1 1s      1 1s      1 1s      1 1s      1 1s      1 1s
                                   1 1s      1 1s      1 2pz     1 2pz     1 2pz     1 2pz     1 2pz     1 2pz     1 2pz     1 2pz
                                   1 2pz     1 2pz     1 2pz     1 2pz     1 2pz     1 2pz     1 2pz     1 2pz     1 2pz     1 2pz
                                   1 2pz     1 2pz     1 2pz     1 2pz     1 2pz     1 2pz     1 2pz     1 2pz     1 2pz     1 2pz
                                   1 2pz     1 2pz     1 3d0     1 3d2+    1 3d0     1 3d2+    1 3d0     1 3d2+    1 3d0     1 3d2+
                                   1 3d0     1 3d2+    1 3d0     1 3d2+    1 3d0     1 3d2+    1 3d0     1 3d2+    1 3d0     1 3d2+
                                   1 3d0     1 3d2+    1 3d0     1 3d2+    1 3d0     1 3d2+    1 3d0     1 3d2+    1 3d0     1 3d2+
                                   1 3d0     1 3d2+    1 3d0     1 3d2+    1 3d0     1 3d2+    1 3d0     1 3d2+    1 3d0     1 3d2+
                                   1 3d0     1 3d2+    1 3d0     1 3d2+    1 3d0     1 3d2+    1 4f0     1 4f2+    1 4f0     1 4f2+
                                   1 4f0     1 4f2+    1 4f0     1 4f2+    1 4f0     1 4f2+    1 4f0     1 4f2+    1 4f0     1 4f2+
                                   1 4f0     1 4f2+    1 4f0     1 4f2+    1 4f0     1 4f2+    1 4f0     1 4f2+    1 4f0     1 4f2+
                                   1 4f0     1 4f2+    1 4f0     1 4f2+    1 5g0     1 5g4+    1 5g2+    1 5g0     1 5g4+    1 5g2+
                                   1 5g0     1 5g4+    1 5g2+    1 5g0     1 5g4+    1 5g2+    1 5g0     1 5g4+    1 5g2+    1 5g0
                                   1 5g4+    1 5g2+    1 5g0     1 5g4+    1 5g2+    1 5g0     1 5g4+    1 5g2+    1 5g0     1 5g4+
                                   1 5g2+    1 6h2+    1 6h4+    1 6h0     1 6h2+    1 6h4+    1 6h0     1 6h2+    1 6h4+    1 6h0
                                   2 1s      2 1s      2 1s      2 1s      2 1s      2 1s      2 2pz     2 2py     2 2pz     2 2py
                                   2 2pz     2 2py     2 3d0     2 3d2+    2 3d1-    2 3d0     2 3d2+    2 3d1-

   1.1   2    -0.0910   -9.8805 -0.000000  0.000000 -0.000002  0.000033  0.000145  0.000450  0.000954  0.002126 -0.000831  0.000780
                                 0.025650  0.384255 -0.057098 -0.156502 -0.065554  0.500389 -0.014100 -0.021348 -0.074352 -0.000058
                                -0.000261 -0.000771 -0.002195 -0.056309 -0.488430  0.247102  0.377336  0.050126  0.054333  0.001217
                                -0.001020  0.000224  0.000000 -0.000000  0.000000 -0.000000  0.000000 -0.000000  0.000000 -0.000001
                                 0.000004 -0.000035 -0.000347 -0.000120  0.013017 -0.016971  0.014948  0.070444  0.044937  0.005421
                                -0.001666  0.000138  0.000423 -0.007601 -0.004610  0.003314  0.004925  0.003079  0.002261 -0.011087
                                -0.001219  0.000310  0.000000  0.000000 -0.000000 -0.000001  0.000000  0.000002 -0.000001 -0.000012
                                 0.000017  0.000217  0.000212  0.002015  0.000320 -0.005000 -0.003209  0.002529  0.002001  0.000575
                                 0.011991 -0.020037 -0.000044 -0.000519 -0.000466 -0.003909  0.000379  0.006360  0.003011 -0.001400
                                 0.013511 -0.003475  0.003039 -0.003825  0.001776 -0.000315 -0.000641 -0.000452  0.000385  0.000765
                                 0.000538  0.003173 -0.000235 -0.000817  0.000081  0.000261 -0.000000 -0.000000  0.000001  0.000001
                                -0.000002 -0.000011  0.000191  0.000068  0.000687  0.000547  0.000232 -0.000409 -0.003754 -0.006569
                                -0.000224 -0.000373 -0.000519 -0.000682 -0.005262 -0.009182  0.001343  0.001462 -0.001998 -0.003219
                                 0.000906  0.001469  0.000114  0.000254 -0.000004 -0.000015 -0.000011  0.000179 -0.000049  0.000022
                                -0.000215 -0.000101 -0.000100  0.000542  0.000202  0.000328  0.001439  0.002494 -0.000230 -0.000841
                                 0.001349 -0.001426  0.001243 -0.001192  0.001279 -0.000860  0.000891 -0.001003  0.000095  0.000086
                                 0.000141  0.000004  0.000037  0.000020 -0.000020  0.000028  0.000045  0.000126  0.000246 -0.000033
                                 0.001470  0.015885  0.063649  0.146221  0.066255  0.026092 -0.001896 -0.003814 -0.009173 -0.020841
                                -0.006139 -0.014053 -0.000455 -0.001555  0.001521 -0.001019 -0.002805  0.002484

   2.1   2     3.5150   -6.0583  0.000000 -0.000000  0.000000 -0.000006 -0.000026 -0.000081 -0.000171 -0.000381  0.000153 -0.000554
                                 0.006011  0.029527  0.051855 -0.087980 -0.046011 -0.196122 -1.446802 -0.306710 -1.530841  0.000010
                                 0.000047  0.000138  0.000393 -0.009474 -0.050183  0.138689  0.829764  0.843382  0.764681  0.003633
                                -0.001170  0.000245 -0.000000  0.000000 -0.000001  0.000004 -0.000006  0.000008 -0.000016  0.000047
                                -0.000192  0.001763  0.019285  0.026667  0.178640  0.222509  0.775955  0.538075 -0.381963 -0.033559
                                -0.105252 -0.007121 -0.027714 -0.140578 -0.216613 -0.294449 -0.837432  0.060606  0.010807 -0.257457
                                -0.014003  0.002337 -0.000017  0.000004  0.000087 -0.000020 -0.000366  0.000085  0.001954 -0.000452
                                -0.036257  0.008386 -0.332592  0.076880  0.701159 -0.161789 -0.284654  0.065683 -0.939988  0.221639
                                -0.628241  0.202642  0.086725 -0.020055  0.637452 -0.147285 -0.968217  0.223521  0.662051 -0.154461
                                 0.797589 -0.195187  0.648821 -0.386192 -0.692942  0.426960  0.410506 -0.307300 -0.242296  0.209585
                                 0.105209  0.024385 -0.041420  0.002198  0.011557 -0.001192  0.000113 -0.000065 -0.000871  0.000498
                                 0.008609 -0.004972  0.044611 -0.028280 -0.191480  0.100856 -0.048491  0.018464  1.355137 -0.765844
                                 0.186211 -0.105356  0.427342 -0.239226 -1.605268  0.890843  1.099155 -0.512117 -0.726477  0.362914
                                 0.368261 -0.163500 -0.104822  0.072890  0.000277 -0.000075 -0.000040 -0.000389  0.000317 -0.000196
                                 0.002532 -0.000918 -0.000176 -0.003218  0.002783 -0.001151  0.022547 -0.008486 -0.005886  0.011776
                                 0.039296 -0.020351  0.042398 -0.013373  0.093662 -0.017177  0.003949 -0.036424  0.011220  0.001070
                                 0.019350 -0.000021 -0.000198  0.000094  0.000233 -0.000319 -0.000095  0.001111  0.000500 -0.005336
                                -0.000184  0.000267 -0.023569  0.088897  0.135986  0.700278 -0.005470 -0.000184  0.069475 -0.023379
                                 0.076340 -0.138345 -0.006789  0.031540  0.015207 -0.081733 -0.045601 -0.070774

   3.1   2     3.6983   -4.3500 -0.000000  0.000002 -0.000009  0.000158  0.000694  0.002156  0.004559  0.010150 -0.004075  0.014440
                                -0.152067 -0.711924 -1.559741  4.228234 21.980499-18.028689-41.316474 -9.790012 -1.401527 -0.000277
                                -0.001249 -0.003687 -0.010475  0.237951  1.252505-20.390713 41.688747  7.210495  5.082781  0.165464
                                -0.055650  0.011709  0.000000 -0.000000  0.000001 -0.000004  0.000006 -0.000008  0.000017 -0.000048
                                 0.000197 -0.001802 -0.019517 -0.026554 -0.167436 -0.178656 -0.579710 -3.709114  9.551325-12.819561
                                 0.270878  0.007249  0.027880  0.133787  0.185057  0.154509  1.261974 -0.266584 -0.398954  0.837735
                                 0.068937 -0.012081  0.000000  0.000007 -0.000002 -0.000035  0.000008  0.000148 -0.000043 -0.000786
                                 0.000775  0.014474  0.006663  0.130641 -0.012568 -0.267084  0.003204  0.099865 -0.014010  0.254063
                                 0.081495  1.101806 -0.001825 -0.034485 -0.012363 -0.248233  0.017837  0.371720  0.005417 -0.188169
                                 0.004351 -0.300820 -0.975251 -6.817156  1.796563 10.059657 -0.037327 -0.243291  0.049112  0.220144
                                -0.058388 -0.283158  0.020454  0.096930 -0.005607 -0.026398  0.000073  0.000123 -0.000563 -0.000949
                                 0.005345  0.009102  0.016774  0.033162 -0.166901 -0.266331 -0.089189 -0.134299  1.062870  1.786188
                                 0.126820  0.211872  0.309979  0.513804 -2.276893 -3.845165  1.748126  2.854750  0.602454  1.054076
                                -0.137589 -0.253166  0.007820  0.020366  0.001096 -0.002168  0.001121 -0.004120  0.008887 -0.004030
                                 0.013188 -0.026123  0.013380 -0.039313  0.078499 -0.039057  0.148164 -0.248602  0.157554 -0.491555
                                 0.858794 -0.520313  0.042542 -0.330777 -0.006809  0.365497 -0.352800  0.436329 -0.053725  0.033549
                                -0.067824 -0.000133 -0.000282  0.000011  0.000242  0.000608  0.000118 -0.006348 -0.005668 -0.004217
                                 0.003733 -0.029168  0.683109 -3.276559 16.795958 -1.306882 -0.029307 -0.059925  1.199158  2.344088
                                -1.797739 -3.038510 -0.073110  0.025648 -0.052578  0.292225  0.768663 -0.695771

   4.1   2     5.3341   -3.1108 -0.000000  0.000000 -0.000002  0.000034  0.000150  0.000466  0.000985  0.002193 -0.000879  0.003149
                                -0.033735 -0.162009 -0.289576  0.560619  1.265618 -0.073200 -1.902071 -1.615337 -1.977076 -0.000060
                                -0.000270 -0.000797 -0.002263  0.052946  0.275313 -1.580163  0.254046  3.353969  1.404500  0.020867
                                -0.007082  0.001502 -0.000000  0.000002 -0.000007  0.000020 -0.000027  0.000035 -0.000076  0.000217
                                -0.000889  0.008179  0.089742  0.125603  0.877680  1.081339  3.409171  1.411936 -1.038902  0.758000
                                -0.390646 -0.033074 -0.129357 -0.682596 -1.084469 -1.393004 -3.112153  0.147810  0.326419 -0.490426
                                -0.036942  0.006376 -0.000007  0.000005  0.000037 -0.000024 -0.000153  0.000102  0.000820 -0.000546
                                -0.015256  0.010159 -0.140415  0.093719  0.297024 -0.199261 -0.120009  0.081855 -0.401140  0.285493
                                -0.122459  0.087804  0.036531 -0.024339  0.269678 -0.180196 -0.410497  0.274892  0.287090 -0.200374
                                 0.264918 -0.197083  0.082859  0.005433 -0.153919 -0.114682  0.042069 -0.162778 -0.024166  0.153383
                                 0.028757  0.044830 -0.009603 -0.005713  0.002609  0.000991  0.000096 -0.000066 -0.000693  0.000474
                                 0.001994 -0.001416 -0.227722  0.153352 -1.010287  0.684093 -1.020611  0.692040  1.484698 -1.048949
                                 0.277313 -0.188659  0.917022 -0.623488 -1.244963  0.941766  0.777986 -0.529913 -0.550419  0.276494
                                 0.286888 -0.119498 -0.079166  0.060615  0.008767  0.001788 -0.004329 -0.033887 -0.006707  0.016807
                                 0.101929  0.020595 -0.050511 -0.277090 -0.054577  0.138331  0.863021  0.177220 -0.433966 -0.754975
                                -0.166727  0.392210  0.493586  0.103114 -0.170192 -0.232243 -0.014803  0.077590  0.078837  0.004402
                                -0.018327 -0.000046  0.000324 -0.000241  0.000007 -0.000600  0.001206 -0.002024  0.003134  0.000219
                                -0.000066 -0.000383 -0.020996  0.149148 -0.510272  0.719300 -0.014494  0.018787  0.022776 -0.098271
                                 0.132366  0.076495  0.039845 -0.038475 -0.022089 -0.084932 -0.000298 -0.006787

   5.1   +     0.1398   -6.0966  0.000000 -0.000000  0.000002 -0.000030 -0.000131 -0.000408 -0.000865 -0.001939  0.000772 -0.001201
                                -0.011888 -0.271460  0.054493  0.072266 -0.321935 -0.256696 -0.443394 -0.709230 -0.863303  0.000052
                                 0.000236  0.000698  0.001998  0.030038  0.362724  0.038463  0.008030  0.515985  0.906253  0.033800
                                -0.023498  0.007474  0.000000 -0.000000  0.000000 -0.000000  0.000000 -0.000000  0.000001 -0.000002
                                 0.000008 -0.000073 -0.000753 -0.000598  0.014506 -0.023819  0.007320  0.055304  0.001400 -0.048021
                                -0.084076  0.000289  0.000995 -0.007756 -0.005023  0.009373  0.045397  0.045791  0.132969 -0.136967
                                -0.017850  0.004773  0.000000  0.000000 -0.000000 -0.000001  0.000001  0.000005 -0.000005 -0.000025
                                 0.000100  0.000466  0.000901  0.004359 -0.002573 -0.011247  0.002742  0.006762  0.001529  0.006872
                                -0.013746 -0.025040 -0.000237 -0.001118 -0.001716 -0.008487  0.002936  0.014033 -0.002754 -0.005958
                                -0.012110 -0.025925  0.000263  0.013718  0.005526  0.022513  0.009194  0.046315 -0.000362 -0.035137
                                 0.005204  0.025515 -0.002540 -0.007592  0.001157  0.002670 -0.000000 -0.000000  0.000001  0.000002
                                -0.000011 -0.000027 -0.000105 -0.000403  0.000016 -0.000486 -0.000051 -0.001058 -0.000999 -0.003326
                                -0.000181 -0.000341 -0.000304 -0.000418  0.003491  0.005948  0.009582  0.013878  0.010871  0.016400
                                -0.006552 -0.013344  0.002981  0.005375 -0.000011  0.000019 -0.000005 -0.000039 -0.000013  0.000044
                                -0.000011  0.000116 -0.000103  0.000004 -0.000293  0.000470 -0.001105 -0.000043  0.000130  0.000820
                                -0.001420  0.001631  0.000635 -0.001262  0.000471  0.003153 -0.002149  0.003165 -0.001142  0.001125
                                -0.001732  0.000002  0.000035  0.000029 -0.000014  0.000105  0.000052  0.000087  0.000062 -0.000027
                                 0.003530  0.039103  0.164144  0.403515  0.570741  0.232113  0.002917  0.004299  0.018012  0.022605
                                 0.034175  0.026017 -0.000020  0.000274 -0.000424 -0.000548 -0.002600  0.003225

   6.1   +     1.2194   -3.5568 -0.000000  0.000001 -0.000005  0.000084  0.000368  0.001143  0.002414  0.005362 -0.002141  0.007368
                                -0.074189 -0.311741 -0.621077  1.187607  3.073547 -0.431835-28.611033-25.288039 -3.104641 -0.000147
                                -0.000662 -0.001954 -0.005538  0.113953  0.536634 -3.579987  2.840930 53.989188 12.049147  0.448829
                                -0.153735  0.032484  0.000000 -0.000000  0.000000 -0.000001  0.000001 -0.000001  0.000003 -0.000008
                                 0.000031 -0.000283 -0.003007 -0.003623 -0.004403 -0.033966  0.086316  0.537833 -1.794134  4.201374
                                 3.327704  0.001131  0.004195  0.007446  0.010321 -0.000085 -0.127451 -0.723885 -2.388169  2.633163
                                 0.162930 -0.026074  0.000043 -0.000016 -0.000222  0.000084  0.000930 -0.000354 -0.004953  0.001884
                                 0.091574 -0.034837  0.834247 -0.317370 -1.741777  0.663788  0.693261 -0.265259  2.100216 -0.789371
                                 2.037485 -0.816907 -0.218642  0.083176 -1.593748  0.606335  2.409740 -0.917407 -1.515683  0.571133
                                -1.861711  0.715418 -6.702472  3.855457  9.574004 -7.119480 -8.650742  2.189705  5.154174 -2.105515
                                -1.922891  0.347686  0.775964 -0.210641 -0.214085  0.061949 -0.000001 -0.000001  0.000007  0.000007
                                -0.000072 -0.000032 -0.000714  0.001787  0.000334  0.008622 -0.000461  0.008705 -0.016673 -0.023490
                                -0.001257 -0.002558 -0.002626 -0.008258  0.080269  0.160054 -0.488356 -0.498659 -0.641976 -1.473473
                                 0.033625  0.224589 -0.059013 -0.147386 -0.000363  0.000476 -0.000431  0.001446 -0.001800  0.001642
                                -0.004059  0.005138 -0.004609  0.011192 -0.012075  0.011014 -0.025914  0.037422 -0.033712  0.083711
                                -0.105153  0.090102 -0.194336  0.183772 -0.201523 -0.075884  0.047109 -0.113708 -0.100941  0.110945
                                -0.113543 -0.000021 -0.000036  0.000008  0.000071  0.000288  0.000050 -0.000317 -0.000955 -0.000121
                                 0.000253  0.013997 -0.010143  0.431077 -9.807699 -3.413763  0.006767  0.005299 -0.006398  0.058538
                                 0.274105  1.438586 -0.002945  0.000541 -0.004574  0.052532 -0.226418  0.388681

   7.1   +     5.4604    0.6551 -0.000007  0.000046 -0.000241  0.004422  0.019398  0.060272  0.127451  0.283876 -0.114080  0.408632
                                -4.365144-20.792011-40.096173 83.908420217.083431-46.367666**********-81.956128-37.851301 -0.007738
                                -0.034894 -0.103056 -0.292940  6.851636 35.746756********** 73.586424142.677109 50.108166  1.383396
                                -0.479185  0.102498 -0.000002  0.000008 -0.000034  0.000103 -0.000138  0.000181 -0.000392  0.001121
                                -0.004597  0.042310  0.464329  0.650293  4.560916  5.548909 14.989953  3.632827 -1.353219 -3.204401
                                -2.307067 -0.171101 -0.669424 -3.545152 -5.603694 -6.708517-12.060808  0.813766  2.182217 -2.626219
                                -0.202790  0.034863  0.000014  0.000052 -0.000075 -0.000269  0.000314  0.001132 -0.001683 -0.006057
                                 0.031430  0.113038  0.291912  1.048641 -0.627814 -2.256182  0.261247  0.946846  0.925360  3.315336
                                 0.535598  2.201592 -0.075419 -0.271159 -0.562961 -2.021562  0.863105  3.099555 -0.642363 -2.301233
                                -0.718983 -2.721058 -0.530497 -2.105133  0.862217  4.407403 -0.096544 -0.353283  0.108790  0.541767
                                 0.039533  0.207611 -0.004950 -0.026026  0.000793  0.004166  0.000027  0.000044 -0.000194 -0.000314
                                 0.000156  0.000243 -0.085668 -0.139545 -0.357604 -0.581432 -0.379733 -0.616292  0.644019  1.064306
                                 0.089578  0.145422  0.312804  0.507240 -0.356755 -0.585988  0.882342  1.474485  0.173021  0.280009
                                 0.030827  0.058977  0.038910  0.062069  0.005386 -0.007345  0.005605 -0.020249  0.026999 -0.021201
                                 0.062629 -0.084592  0.065322 -0.168945  0.223315 -0.177610  0.587986 -0.793598  0.622181 -0.452215
                                 0.562777 -0.481770  0.393543 -0.407364  0.432343 -0.012079  0.015913 -0.014214  0.034068 -0.042403
                                 0.038350  0.000555  0.001452  0.000220 -0.002060 -0.005676 -0.000766  0.014908  0.033768  0.006924
                                -0.001704 -0.023262 -0.531979  1.348609  8.462952  3.112324  0.144398  0.428168 -0.444466 -1.062952
                                -1.053780 -1.978796 -0.035111 -0.415302  0.514720 -0.076264  0.031369 -0.032948

   8.1   0    -0.0032   -1.3624 -0.000000  0.000000 -0.000000  0.000005  0.000022  0.000067  0.000142  0.000316 -0.000126  0.000336
                                -0.001760  0.007943 -0.024478  0.036802  0.150218 -0.041770 -1.019382 -1.810737 -3.751157 -0.000009
                                -0.000039 -0.000115 -0.000326  0.001908 -0.006927 -0.140837  0.239481  2.164519  3.072924  0.484914
                                -0.320109  0.850915 -0.000000  0.000000 -0.000000  0.000000 -0.000000  0.000000 -0.000001  0.000003
                                -0.000012  0.000112  0.001213  0.001564  0.005931  0.016799  0.028587  0.008183 -0.036370  0.085345
                                -0.154712 -0.000452 -0.001719 -0.005558 -0.009905 -0.014930 -0.041405  0.623209  0.237880 -0.719611
                                -0.245734  0.608210 -0.000000 -0.000000  0.000000  0.000000 -0.000002 -0.000001  0.000009  0.000004
                                -0.000157 -0.000067 -0.001426 -0.000631  0.003031  0.001686 -0.001335 -0.001047 -0.003304 -0.000943
                                -0.001239  0.004564  0.000375  0.000161  0.002721  0.001233 -0.004140 -0.002072  0.002538  0.000797
                                 0.003905  0.004077  0.007478 -0.001535 -0.022293 -0.017649 -0.000798 -0.054394  0.006687  0.107221
                                 0.081833  0.036592  0.001310 -0.041629  0.158897 -0.041551 -0.000000  0.000000  0.000000 -0.000001
                                -0.000000  0.000006  0.000034  0.000047  0.000141 -0.000075  0.000100  0.000055 -0.000141  0.000838
                                -0.000037  0.000126 -0.000124  0.000252  0.000298 -0.001414 -0.006111 -0.002792 -0.004510 -0.018688
                                 0.011653  0.034225  0.021845 -0.035061  0.000000 -0.000003 -0.000005  0.000005  0.000007  0.000017
                                -0.000007 -0.000022 -0.000048  0.000022  0.000052  0.000081  0.000018 -0.000125 -0.000413  0.000129
                                 0.000373  0.000739 -0.000989 -0.000360 -0.002518  0.001477  0.003435  0.005471 -0.002158 -0.001737
                                -0.009727  0.000000 -0.000007 -0.000006  0.000001 -0.000021 -0.000011 -0.000011 -0.000012  0.000012
                                -0.000402 -0.004425 -0.019669 -0.050863 -0.170932  0.797760  0.000210 -0.000127  0.000832  0.000628
                                 0.038903  0.031781  0.000066  0.000019  0.000076  0.001207  0.000783 -0.000244

   9.1   0     0.0055   -0.9323  0.000000 -0.000000  0.000001 -0.000026 -0.000112 -0.000348 -0.000735 -0.001629  0.000650 -0.002351
                                 0.025551  0.123777  0.198406 -0.404001 -1.132876  0.509700  7.912641 13.712867 17.108842  0.000045
                                 0.000202  0.000595  0.001684 -0.040161 -0.203491  1.274060 -1.990122-15.079419-21.240022 -4.408404
                                 5.794811 -3.483594  0.000000 -0.000000  0.000000 -0.000000  0.000001 -0.000001  0.000002 -0.000005
                                 0.000020 -0.000181 -0.001975 -0.002770 -0.020756 -0.019418 -0.061334 -0.048269  0.058371 -0.095555
                                 0.333520  0.000730  0.002840  0.015878  0.023137  0.024287  0.054693 -1.074705 -1.062498  1.079842
                                 1.181672 -0.419926 -0.000000 -0.000000  0.000000  0.000000 -0.000001 -0.000000  0.000008  0.000002
                                -0.000142 -0.000041 -0.001298 -0.000391  0.002790  0.001114 -0.001236 -0.000746 -0.003009 -0.000671
                                -0.000963  0.003345  0.000340  0.000099  0.002482  0.000772 -0.003795 -0.001335  0.002283  0.000526
                                 0.003660  0.003158  0.007868 -0.000268 -0.020754 -0.010482  0.003376 -0.039630  0.001998  0.088227
                                 0.098305  0.105430 -0.008295 -0.103011  0.213966  0.081462 -0.000000  0.000000  0.000000 -0.000001
                                -0.000001  0.000005  0.000046  0.000027  0.000213 -0.000098  0.000175  0.000004 -0.000184  0.000700
                                -0.000065  0.000108 -0.000198  0.000229  0.000594 -0.001359 -0.005250 -0.000368 -0.000275 -0.014912
                                 0.006111  0.030881  0.044639 -0.011519  0.000001 -0.000004 -0.000004 -0.000001  0.000013  0.000014
                                 0.000008 -0.000038 -0.000039 -0.000019  0.000088  0.000066  0.000081 -0.000245 -0.000328 -0.000145
                                 0.000626  0.000516 -0.000279 -0.001119 -0.001884  0.000492  0.004507  0.004658 -0.000385 -0.003939
                                -0.008594 -0.000000 -0.000003 -0.000003  0.000001 -0.000011 -0.000005 -0.000009 -0.000004  0.000003
                                -0.000295 -0.003226 -0.014426 -0.037794 -0.110700  0.913443  0.000139 -0.000355  0.001477  0.000115
                                 0.028119  0.008990  0.000069  0.000028  0.000063  0.000994  0.000204  0.000107

                                   1 2px     1 2px     1 2px     1 2px     1 2px     1 2px     1 2px     1 2px     1 2px     1 2px
                                   1 2px     1 2px     1 2px     1 2px     1 2px     1 2px     1 2px     1 2px     1 2px     1 2px
                                   1 2px     1 2px     1 2px     1 2px     1 2px     1 2px     1 2px     1 2px     1 2px     1 2px
                                   1 3d1+    1 3d1+    1 3d1+    1 3d1+    1 3d1+    1 3d1+    1 3d1+    1 3d1+    1 3d1+    1 3d1+
                                   1 3d1+    1 3d1+    1 3d1+    1 3d1+    1 3d1+    1 3d1+    1 3d1+    1 3d1+    1 3d1+    1 3d1+
                                   1 3d1+    1 3d1+    1 4f1+    1 4f3+    1 4f1+    1 4f3+    1 4f1+    1 4f3+    1 4f1+    1 4f3+
                                   1 4f1+    1 4f3+    1 4f1+    1 4f3+    1 4f1+    1 4f3+    1 4f1+    1 4f3+    1 4f1+    1 4f3+
                                   1 4f1+    1 4f3+    1 4f1+    1 4f3+    1 4f1+    1 4f3+    1 4f1+    1 4f3+    1 4f1+    1 4f3+
                                   1 5g1+    1 5g3+    1 5g1+    1 5g3+    1 5g1+    1 5g3+    1 5g1+    1 5g3+    1 5g1+    1 5g3+
                                   1 5g1+    1 5g3+    1 5g1+    1 5g3+    1 5g1+    1 5g3+    1 5g1+    1 5g3+    1 6h1+    1 6h3+
                                   1 6h5+    1 6h1+    1 6h3+    1 6h5+    1 6h1+    1 6h3+    1 6h5+    2 2px     2 2px     2 2px
                                   2 3d1+    2 3d2-    2 3d1+    2 3d2-

   1.2   2     3.4946   -6.0108 -0.000000  0.000001 -0.000003  0.000008 -0.000010  0.000014 -0.000029  0.000084 -0.000345  0.003169
                                 0.034733  0.048405  0.330939  0.428768  1.460803  1.241784 -1.137459  0.328890 -0.576041 -0.012807
                                -0.050023 -0.258938 -0.415113 -0.544680 -1.657890  0.114592  0.508497 -0.327167 -0.028707  0.004914
                                 0.000003 -0.000015  0.000063 -0.000336  0.006248  0.057454 -0.121685  0.050303  0.181518  0.246566
                                -0.014954 -0.110243  0.167790 -0.122284 -0.172450 -0.534633  0.228788 -0.228237  0.076199 -0.020518
                                 0.007749 -0.002101 -0.000047 -0.000122  0.000365  0.000940 -0.003641 -0.009246 -0.020548 -0.045842
                                 0.074621  0.214144  0.015803  0.059264 -0.546584 -1.505622 -0.076917 -0.202220 -0.175650 -0.466808
                                 0.622701  1.860203 -0.441714 -0.917785  0.288850  0.736785 -0.148266 -0.323804  0.047332  0.102878
                                -0.000132 -0.000330  0.000215  0.000853 -0.001253 -0.003544  0.002050  0.008044 -0.012778 -0.036559
                                -0.000489  0.051786  0.047567  0.182117 -0.014797 -0.067420  0.009918  0.046447  0.000209 -0.000103
                                -0.000010  0.000378 -0.000139 -0.000614  0.001704  0.003130  0.002966 -0.016464  0.230813  0.425279
                                 0.050407  0.008961 -0.200364 -0.298979

   2.2   +     3.2697   -6.0802  0.000000 -0.000002  0.000008 -0.000024  0.000032 -0.000042  0.000091 -0.000260  0.001067 -0.009807
                                -0.107363 -0.149452 -1.018901 -1.278735 -3.906253 -1.827716  1.143823 -1.074380  0.925534  0.039617
                                 0.154537  0.797522  1.256410  1.590038  3.826791 -0.330711 -1.185474  0.868401  0.087117 -0.015314
                                -0.000017  0.000089 -0.000374  0.001998 -0.037093 -0.340382  0.718069 -0.291751 -0.964651 -0.621340
                                 0.088733  0.652508 -0.991402  0.678746  0.814217  0.646892 -0.719254  0.420000 -0.258863  0.092761
                                -0.038707  0.010913  0.000121 -0.000046 -0.000931  0.000354  0.009081 -0.003399  0.041287 -0.012846
                                -0.225379  0.094597 -0.070049  0.033364  1.485770 -0.610167  0.203726 -0.079207  0.472268 -0.185489
                                -1.714340  0.749704  1.130783 -0.346076 -0.755938  0.290545  0.375160 -0.121755 -0.119612  0.038524
                                 0.000312 -0.000012 -0.000508 -0.000147  0.002965 -0.000093 -0.004027 -0.000202  0.025816 -0.007114
                                 0.009590 -0.005916  0.012156  0.105583 -0.006259 -0.036734  0.005385  0.025206 -0.000097 -0.000083
                                -0.000043 -0.000525  0.000119 -0.000365 -0.005646  0.000526  0.000481 -0.009519  0.103864  0.215927
                                -0.010772  0.037162 -0.076544 -0.154933

   3.2   +     5.0238   -3.7788 -0.000002  0.000007 -0.000027  0.000080 -0.000108  0.000141 -0.000305  0.000874 -0.003584  0.032992
                                 0.362245  0.507895  3.568809  4.425531 13.091130  4.403731 -2.408840  1.714435 -1.551718 -0.133441
                                -0.522469 -2.772754 -4.426365 -5.565711-11.481765  0.519631  1.892219 -1.370422 -0.136832  0.024081
                                -0.000001  0.000006 -0.000024  0.000130 -0.002410 -0.022015  0.046048 -0.018975 -0.078269 -0.073145
                                 0.005762  0.042181 -0.063932  0.050357  0.056333  0.187209 -0.116106  0.116689 -0.049214  0.015196
                                -0.006045  0.001677  0.000070  0.000104 -0.000509 -0.000751  0.001538  0.002289 -0.163581 -0.239837
                                -0.730856 -1.074332 -0.738631 -1.089887  1.081803  1.635568  0.201953  0.297594  0.666831  0.982331
                                -0.916055 -1.461839  0.572629  0.822915 -0.366182 -0.564548  0.186202  0.266451 -0.060087 -0.085314
                                 0.004704  0.000918 -0.018372 -0.004177  0.055003  0.011710 -0.151326 -0.037709  0.470101  0.112833
                                -0.427134 -0.156862  0.241274  0.036558 -0.109309 -0.012385  0.032607 -0.007614  0.000090 -0.000182
                                -0.000404  0.000749  0.000233  0.001436  0.002065 -0.000618 -0.007800 -0.086192 -0.002080 -0.137297
                                 0.096665  0.048527  0.013584  0.091196

   4.2   0     0.0044   -0.9372  0.000000 -0.000000  0.000000 -0.000001  0.000001 -0.000002  0.000003 -0.000010  0.000040 -0.000369
                                -0.004014 -0.005583 -0.039704 -0.041536 -0.123069 -0.090511  0.116166 -0.217347  0.713679  0.001486
                                 0.005765  0.030760  0.045577  0.049872  0.116174 -2.499796 -1.902560  2.702659  2.098082 -1.809020
                                 0.000000 -0.000001  0.000006 -0.000030  0.000552  0.005004 -0.010287  0.003947  0.011754  0.010404
                                -0.001317 -0.009534  0.014319 -0.008685 -0.009412 -0.030059  0.059961 -0.100569  0.137854 -0.212782
                                 0.284360 -0.563576  0.000000 -0.000000 -0.000001  0.000000  0.000005 -0.000001  0.000012  0.000016
                                -0.000126  0.000102  0.000027  0.000005  0.001069 -0.000710  0.000112 -0.000052  0.000215 -0.000106
                                -0.001492  0.001098  0.005141 -0.003418 -0.012069  0.000778  0.021471 -0.003662 -0.048600  0.028082
                                -0.000001  0.000006  0.000005 -0.000023 -0.000012  0.000064  0.000030 -0.000159 -0.000066  0.000388
                                 0.000185 -0.000810 -0.000288  0.002061  0.000265 -0.006126 -0.001664  0.009109 -0.000000  0.000000
                                -0.000000  0.000000  0.000004 -0.000000 -0.000025  0.000014 -0.000033 -0.000301 -0.001715 -0.017776
                                 0.000007 -0.000026 -0.000581 -0.000028

   5.2   0     0.0126   -0.8652 -0.000000  0.000000 -0.000000  0.000001 -0.000002  0.000003 -0.000005  0.000016 -0.000064  0.000584
                                 0.006348  0.008699  0.056306  0.070535  0.186946  0.127105 -0.197906  0.352369 -1.092241 -0.002352
                                -0.009093 -0.044628 -0.068153 -0.079254 -0.192864  3.915308  2.974887 -4.252461 -3.266842  1.722928
                                 0.000001 -0.000003  0.000013 -0.000069  0.001269  0.011507 -0.023648  0.009066  0.027204  0.024758
                                -0.003027 -0.021925  0.032925 -0.020075 -0.021804 -0.070178  0.139215 -0.259001  0.354980 -0.510788
                                 0.814698 -1.281258  0.000000 -0.000000 -0.000001  0.000000  0.000008 -0.000000 -0.000041  0.000003
                                -0.000479  0.000014 -0.000255 -0.000053  0.001580 -0.000484  0.000255 -0.000013  0.000605 -0.000008
                                -0.003040  0.000600  0.009778 -0.001178 -0.024299  0.000983  0.046406  0.002827 -0.090785  0.013235
                                -0.000003  0.000004  0.000013 -0.000014 -0.000034  0.000038  0.000084 -0.000096 -0.000194  0.000239
                                 0.000471 -0.000490 -0.000888  0.001461  0.001816 -0.003787 -0.003616  0.009202 -0.000000 -0.000000
                                -0.000000  0.000000  0.000003 -0.000000 -0.000022  0.000011 -0.000030 -0.000113 -0.002230 -0.007762
                                -0.000020 -0.000087 -0.000951 -0.000264

                                   1 2py     1 2py     1 2py     1 2py     1 2py     1 2py     1 2py     1 2py     1 2py     1 2py
                                   1 2py     1 2py     1 2py     1 2py     1 2py     1 2py     1 2py     1 2py     1 2py     1 2py
                                   1 2py     1 2py     1 2py     1 2py     1 2py     1 2py     1 2py     1 2py     1 2py     1 2py
                                   1 3d1-    1 3d1-    1 3d1-    1 3d1-    1 3d1-    1 3d1-    1 3d1-    1 3d1-    1 3d1-    1 3d1-
                                   1 3d1-    1 3d1-    1 3d1-    1 3d1-    1 3d1-    1 3d1-    1 3d1-    1 3d1-    1 3d1-    1 3d1-
                                   1 3d1-    1 3d1-    1 4f1-    1 4f3-    1 4f1-    1 4f3-    1 4f1-    1 4f3-    1 4f1-    1 4f3-
                                   1 4f1-    1 4f3-    1 4f1-    1 4f3-    1 4f1-    1 4f3-    1 4f1-    1 4f3-    1 4f1-    1 4f3-
                                   1 4f1-    1 4f3-    1 4f1-    1 4f3-    1 4f1-    1 4f3-    1 4f1-    1 4f3-    1 4f1-    1 4f3-
                                   1 5g1-    1 5g3-    1 5g1-    1 5g3-    1 5g1-    1 5g3-    1 5g1-    1 5g3-    1 5g1-    1 5g3-
                                   1 5g1-    1 5g3-    1 5g1-    1 5g3-    1 5g1-    1 5g3-    1 5g1-    1 5g3-    1 6h1-    1 6h3-
                                   1 6h5-    1 6h1-    1 6h3-    1 6h5-    1 6h1-    1 6h3-    1 6h5-    2 1s      2 1s      2 1s
                                   2 1s      2 1s      2 1s      2 2py     2 2pz     2 2py     2 2pz     2 2py     2 2pz     2 3d1-
                                   2 3d0     2 3d2+    2 3d1-    2 3d0     2 3d2+

   1.3   2     3.6188   -4.5539  0.000000 -0.000001  0.000006 -0.000018  0.000024 -0.000031  0.000068 -0.000194  0.000795 -0.007304
                                -0.079788 -0.110481 -0.738565 -0.913069 -3.517178 -7.481576 16.209734-24.438024 -0.744339  0.029481
                                 0.114659  0.581040  0.896142  1.173718  4.834316 -0.068827  1.340257  0.589363  0.015649 -0.002842
                                -0.000001  0.000004 -0.000016  0.000085 -0.001519 -0.012560  0.021650 -0.004797  0.000202 -1.033311
                                 0.003545  0.022662 -0.031258 -0.009439  0.105943  6.810574-11.702785 -0.884333  0.550216  0.204658
                                -0.044144  0.010812  0.000002  0.000132 -0.000016 -0.001015  0.000193  0.009753  0.002987  0.036948
                                 0.003732 -0.275714  0.010662 -0.121096  0.042825  1.824404  0.003283  0.225457  0.003891  0.538825
                                 0.152828 -3.245924 -0.671551  2.465182 -0.311488  0.589763  0.057981 -0.169000 -0.000874 -0.011982
                                 0.001785  0.003141 -0.007293 -0.012299  0.021657  0.037249 -0.065573 -0.108456  0.213587  0.356353
                                -0.726164 -1.125757  0.041659  0.321339  0.517590  0.744864 -0.120321 -0.137176  0.000146  0.000167
                                -0.000269 -0.000181  0.000079  0.000147  0.000980 -0.001917 -0.004208  0.003714 -0.023119  0.652858
                                -3.183608 20.397418 -2.239009 -0.027838 -0.025519  1.720763  1.267974 -4.515011 -2.079787 -0.004148
                                 0.097051  0.050306 -0.782703 -0.177815  0.315934

   2.3   +     3.2723   -5.9153  0.000001 -0.000003  0.000011 -0.000032  0.000043 -0.000056  0.000121 -0.000346  0.001419 -0.013055
                                -0.143230 -0.200230 -1.380614 -1.798054 -6.131003 -2.307636 -1.720437  3.753692  0.316066  0.052783
                                 0.206469  1.077698  1.740652  2.381199  6.198962 -0.144384  0.450827  0.850511  0.029325 -0.004654
                                -0.000020  0.000103 -0.000430  0.002299 -0.042745 -0.393723  0.837535 -0.347044 -1.203211 -0.511026
                                 0.102347  0.756351 -1.153544  0.830508  1.017899 -1.635051  2.185058 -0.402047  0.436501  0.156227
                                -0.025160  0.005275  0.000132 -0.000006 -0.001014  0.000045  0.009861 -0.000481  0.043382 -0.004059
                                -0.251905  0.005652 -0.088441  0.004430  1.650839 -0.086321  0.222265 -0.008093  0.519789 -0.020240
                                -2.148106  0.424683  0.921868 -0.549020 -0.842394 -0.181583  0.336398 -0.054966 -0.095003 -0.020375
                                -0.000255 -0.001039  0.001867  0.004251 -0.003851 -0.012572  0.016446  0.038259 -0.038568 -0.127426
                                 0.265487  0.461519 -0.336728 -0.259775 -0.028138 -0.047811 -0.066368 -0.041270 -0.000202 -0.000092
                                -0.000060 -0.000579  0.000288  0.000133 -0.007059 -0.003015 -0.001276 -0.001192  0.011107 -0.218612
                                 0.703420 -2.813143 -1.945623  0.036407  0.008939 -0.860935 -0.190818 -0.050212  0.848930  0.023696
                                 0.015557  0.024703  0.088737 -0.357619 -0.507412

   3.3   +     5.0665   -2.1977  0.000002 -0.000008  0.000034 -0.000103  0.000139 -0.000181  0.000393 -0.001125  0.004612 -0.042451
                                -0.465885 -0.652501 -4.569900 -5.586719-15.084011 -3.929143  1.148017  2.711622  4.689485  0.171668
                                 0.671702  3.554074  5.619963  6.735401 12.452245 -0.971053 -6.476509  1.564365  0.269277 -0.047979
                                 0.000001 -0.000005  0.000022 -0.000122  0.002333  0.023188 -0.059222  0.035368  0.209876  0.451789
                                -0.005687 -0.046395  0.076747 -0.107587 -0.305087 -0.789321  2.007514  1.211554 -1.140588 -0.356991
                                 0.051529 -0.009998  0.000071 -0.000069 -0.000512  0.000499  0.001554 -0.001421 -0.164219  0.164870
                                -0.735045  0.732059 -0.743364  0.746140  1.116814 -1.126428  0.203209 -0.200733  0.671465 -0.665632
                                -1.004966  0.950332  0.678933 -0.831731 -0.367825 -0.170690  0.132755  0.108733 -0.068344  0.071743
                                 0.013979  0.006380 -0.053385 -0.023678  0.162282  0.073297 -0.439120 -0.193547  1.382967  0.619800
                                -1.308829 -0.616691  0.827014  0.425509 -0.554914 -0.480578  0.159676  0.151635  0.000228  0.000213
                                -0.000101  0.000025 -0.000559  0.000142  0.007158  0.003335 -0.002703 -0.000163 -0.001141 -0.036771
                                 0.255633 -5.966081  4.730777 -0.106730  0.116447  0.186873 -0.031476  1.122787  0.901163 -0.157887
                                -0.011506 -0.023270  0.010509 -0.051143  0.032450

   4.3   0    -0.2076   -6.1176  0.000000 -0.000000  0.000000 -0.000000  0.000001 -0.000001  0.000001 -0.000004  0.000017 -0.000151
                                -0.001570 -0.001177  0.034374 -0.053913  0.030283  0.143018  0.021823 -0.028365 -0.082608  0.000600
                                 0.002077 -0.018913 -0.012025  0.019816  0.080751  0.039950  0.104141 -0.154181 -0.009844  0.001704
                                -0.000000  0.000001 -0.000004  0.000022 -0.000415 -0.003820  0.008637 -0.003651 -0.006520  0.012634
                                 0.000993  0.007358 -0.011515  0.004885  0.005226 -0.017888 -0.010283 -0.031813  0.019411 -0.025017
                                 0.006936 -0.002121  0.000000 -0.000000 -0.000001  0.000001 -0.000010 -0.000026 -0.001023 -0.000862
                                -0.003882 -0.002597 -0.005158 -0.004198 -0.008967 -0.011030  0.000674  0.000111  0.003261  0.001605
                                -0.003801 -0.000055 -0.002843  0.005141 -0.000252  0.004664  0.001525 -0.001317 -0.000752  0.002427
                                -0.000017 -0.000024  0.000046  0.000068 -0.000150 -0.000215  0.000304  0.000378 -0.001187 -0.001575
                                -0.000799  0.000390  0.002435  0.002891 -0.000249 -0.000054  0.000988  0.000584 -0.000000 -0.000002
                                 0.000012  0.000006  0.000075  0.000007  0.000415  0.000279  0.000731  0.003708  0.040817  0.170257
                                 0.412707  0.458568  0.187626  0.001519  0.000805  0.009406  0.003753  0.011760  0.010481  0.000706
                                 0.000192 -0.000162  0.004816  0.000890 -0.002328

   5.3   0     0.0018   -1.1966  0.000000 -0.000000  0.000000 -0.000001  0.000001 -0.000001  0.000003 -0.000008  0.000033 -0.000306
                                -0.003320 -0.004394 -0.021779 -0.042611 -0.086590 -0.042114  0.115311 -0.282893  0.420258  0.001233
                                 0.004728  0.018586  0.031020  0.041471  0.107933 -1.579366 -0.777586  1.953391  1.102667 -1.278595
                                 0.000000 -0.000001  0.000003 -0.000016  0.000293  0.002650 -0.005341  0.001986  0.006352  0.007852
                                -0.000699 -0.005037  0.007503 -0.004744 -0.004972 -0.016614 -0.001260 -0.107815  0.218457 -0.085067
                                 0.080648 -0.457059  0.000000 -0.000000 -0.000001  0.000000  0.000000 -0.000004 -0.000235 -0.000132
                                -0.000983 -0.000420 -0.001166 -0.000686 -0.001178 -0.001816  0.000226  0.000027  0.000878  0.000281
                                -0.002026 -0.000214  0.004302  0.004901 -0.012035  0.014298  0.025600 -0.031855 -0.057268  0.031463
                                -0.000001  0.000005 -0.000000 -0.000022 -0.000004  0.000057  0.000002 -0.000155 -0.000060  0.000285
                                -0.000353 -0.001057  0.001443  0.003203  0.001226 -0.002168 -0.000536  0.006124  0.000001 -0.000000
                                 0.000001 -0.000001  0.000013  0.000004  0.000084  0.000054  0.000114  0.000195  0.002102  0.009649
                                 0.025632  0.170120 -1.026480 -0.000691 -0.000466 -0.004917 -0.004733 -0.075748 -0.052698  0.000046
                                -0.000026 -0.000043  0.000805  0.000802  0.000225

                                   1 3d2-    1 3d2-    1 3d2-    1 3d2-    1 3d2-    1 3d2-    1 3d2-    1 3d2-    1 3d2-    1 3d2-
                                   1 3d2-    1 3d2-    1 3d2-    1 3d2-    1 3d2-    1 3d2-    1 3d2-    1 3d2-    1 3d2-    1 3d2-
                                   1 3d2-    1 3d2-    1 4f2-    1 4f2-    1 4f2-    1 4f2-    1 4f2-    1 4f2-    1 4f2-    1 4f2-
                                   1 4f2-    1 4f2-    1 4f2-    1 4f2-    1 4f2-    1 4f2-    1 5g2-    1 5g4-    1 5g2-    1 5g4-
                                   1 5g2-    1 5g4-    1 5g2-    1 5g4-    1 5g2-    1 5g4-    1 5g2-    1 5g4-    1 5g2-    1 5g4-
                                   1 5g2-    1 5g4-    1 5g2-    1 5g4-    1 6h4-    1 6h2-    1 6h4-    1 6h2-    1 6h4-    1 6h2-
                                   2 2px     2 2px     2 2px     2 3d2-    2 3d1+    2 3d2-    2 3d1+

   1.4   +     3.3141   -6.1160 -0.000019  0.000100 -0.000421  0.002249 -0.041741 -0.383053  0.808265 -0.327789 -1.070787 -0.556335
                                 0.099853  0.734342 -1.115857  0.757807  0.885614  0.299703 -0.686908  0.290095 -0.247367  0.095940
                                -0.040933  0.011633  0.000132 -0.001013  0.009834  0.042683 -0.253824 -0.088590  1.629645  0.223001
                                 0.521806 -1.911571  0.984564 -0.772640  0.343146 -0.108983  0.000365 -0.000001 -0.000772  0.000020
                                 0.003712 -0.000180 -0.006743  0.001365  0.034767 -0.008551 -0.000951  0.027939 -0.062755  0.132960
                                 0.011720 -0.051187 -0.011836  0.038117 -0.000099  0.000165  0.000473  0.000282 -0.003049 -0.005223
                                -0.024144  0.195247  0.421979  0.051306 -0.002308 -0.300592 -0.147808

   2.4   0     0.0112   -0.8821  0.000001 -0.000004  0.000017 -0.000090  0.001657  0.015024 -0.030865  0.011824  0.035584  0.032642
                                -0.003952 -0.028626  0.042983 -0.026255 -0.028508 -0.091143  0.182411 -0.341183  0.469754 -0.655767
                                 1.100252 -1.599969  0.000000 -0.000001  0.000007 -0.000089 -0.000635 -0.000484  0.001101  0.000270
                                 0.000717 -0.002995  0.009843 -0.023023  0.042934 -0.084610 -0.000002  0.000003  0.000009 -0.000012
                                -0.000023  0.000032  0.000057 -0.000079 -0.000129  0.000196  0.000299 -0.000472 -0.000571  0.000864
                                 0.001490 -0.002874 -0.003462  0.007278 -0.000000 -0.000000  0.000002  0.000000 -0.000006 -0.000001
                                 0.000076 -0.001720 -0.002868 -0.000158 -0.000118 -0.000008  0.000118

   3.4   0     0.0309   -1.2907 -0.000002  0.000008 -0.000035  0.000185 -0.003419 -0.030996  0.063644 -0.024374 -0.073655 -0.068252
                                 0.008153  0.059055 -0.088655  0.054336  0.058891  0.187082 -0.356103  0.775887 -1.048951  1.462862
                                -2.803630  1.450784  0.000000 -0.000003  0.000020 -0.000261 -0.001829 -0.001401  0.003167  0.000770
                                 0.002052 -0.008785  0.032296 -0.044677  0.120395 -0.327143 -0.000015  0.000024  0.000059 -0.000093
                                -0.000162  0.000256  0.000399 -0.000631 -0.000921  0.001510  0.002142 -0.003489 -0.004331  0.007014
                                 0.013045 -0.022561 -0.019049  0.029913 -0.000001 -0.000000  0.000004  0.000000 -0.000014  0.000000
                                -0.000840 -0.002554 -0.068225 -0.000130 -0.000049  0.000967  0.000060

 HOMO      7.1     5.460381 =     148.5845eV
 LUMO      4.3    -0.207620 =      -5.6496eV
 LUMO-HOMO        -5.668001 =    -154.2342eV

 No convergence



 **********************************************************************************************************************************
 DATASETS  * FILE   NREC   LENGTH (MB)   RECORD NAMES
              1      19       22.87       500      610      700      900      950      970     1000      129      960     1100
                                          VAR    BASINP    GEOM    SYMINP    ZMAT    AOBASIS   BASIS     P2S    ABASIS      S
                                         1400     1410     1420     1200     1210     1080     1600     1650     1700
                                           T        V       ECP      H0       H01     AOSYM     SMH    MOLCAS    OPER

              2       4        4.77       700     1000      520     2100
                                         GEOM     BASIS   MCVARS     RHF

 PROGRAMS   *        TOTAL       RHF       INT
 CPU TIMES  *       236.95    113.92    122.83
 REAL TIME  *       265.06 SEC
 DISK USED  *        20.61 GB
 SF USED    *         0.28 MB
 GA USED    *         0.00 MB       (max)       0.00 MB       (current)
 **********************************************************************************************************************************
   -->
   <time start="18:26:03" end="18:30:28" cpu="236.95" system="26.95" real="265.06"/>
   <storage units="megabyte" memory="8001.84" sf="0.28" df="414.61" eaf="20193.85" ga="0.0"/>
  </jobstep><!--
 SETTING SCF            =       -72.24018517  AU
 SETTING _CC_NORM_MAX   =         2.00000000
  --><jobstep command="RCCSD(T)" commandset="CCSD">
   <!--


 PROGRAM * CCSD (Restricted open-shell coupled cluster)     Authors: C. Hampel, H.-J. Werner, 1991, M. Deegan, P.J. Knowles, 1992


 Convergence thresholds:  THRVAR = 1.00D-08  THRDEN = 1.00D-06

 CCSD(T)     terms to be evaluated (factor= 1.000)


 Number of closed-shell orbitals:   6 (   4   1   1   0 )
 Number of active  orbitals:        8 (   3   2   2   1 )
 Number of external orbitals:     480 ( 181 111 122  66 )

 Memory could be reduced to 617.40 Mwords without degradation in triples

 Number of N-1 electron functions:              20
 Number of N-2 electron functions:             190
 Number of singly external CSFs:              3039
 Number of doubly external CSFs:           8369389
 Total number of CSFs:                     8372428

 Molecular orbitals read from record     2100.2  Type=RHF/CANONICAL (state 1.4)

 ?Error: RHF not converged. This error exit can be avoided using the IGNORE_ERROR option on the ORBITAL directive
   --><error/><!--
  --></jobstep><!--
  -->
