<?xml version="1.0"?>
<molpro xmlns="http://www.molpro.net/schema/molpro-output"
  xmlns:xsd="http://www.w3.org/1999/XMLSchema"
  xmlns:cml="http://www.xml-cml.org/schema"
  xmlns:stm="http://www.xml-cml.org/schema"
  xmlns:xhtml="http://www.w3.org/1999/xhtml">
 <!--

 Nodes     nprocs
 nid00826    11
 Number of processes for MPI-2 version of Molpro:   nprocs(total)=   12   nprocs(compute)=   11   nprocs(helper)=    1

 Using customized tuning parameters: mindgm=7; mindgv=16; mindgc=1; mindgr=1; noblas=0; minvec=7
 default implementation of scratch files=sf

 --><job>
  <!--

 Variables initialized (889), CPU time= 0.04 sec
 Commands  initialized (702), CPU time= 0.01 sec, 572 directives.
 Default parameters read. Elapsed time= 0.28 sec

 Checking input...
 Passed
1


                                         ***  PROGRAM SYSTEM MOLPRO  ***
                                       Copyright, TTI GmbH Stuttgart, 2015
                                    Version 2015.1 linked Dec 29 2018 15:55:43


 **********************************************************************************************************************************
 LABEL *   Calculation for Ta atom, singlet and triplet
  64 bit mpp version                                                                     DATE: 12-Oct-22          TIME: 21:30:37
 **********************************************************************************************************************************

 SHA1:             19cd028119e0e09f93f0674bd8af7968d9b3eff6
 **********************************************************************************************************************************
  -->
  <!--

 THRESHOLDS:

 ZERO    =  1.00D-12  ONEINT  =  1.00D-12  TWOINT  =  1.00D-15  PREFAC  =  1.00D-14  LOCALI  =  1.00D-09  EORDER  =  1.00D-04
 ENERGY  =  0.00D+00  ETEST   =  0.00D+00  EDENS   =  0.00D+00  THRDEDEF=  1.00D-06  GRADIENT=  1.00D-02  STEP    =  1.00D-03
 ORBITAL =  1.00D-05  CIVEC   =  1.00D-05  COEFF   =  1.00D-04  PRINTCI =  5.00D-02  PUNCHCI =  9.90D+01  OPTGRAD =  3.00D-04
 OPTENERG=  1.00D-06  OPTSTEP =  3.00D-04  THRGRAD =  1.00D-10  COMPRESS=  1.00D-11  VARMIN  =  1.00D-07  VARMAX  =  1.00D-03
 THRDOUB =  0.00D+00  THRDIV  =  1.00D-05  THRRED  =  1.00D-07  THRPSP  =  1.00D+00  THRDC   =  1.00D-10  THRCS   =  1.00D-10
 THRNRM  =  1.00D-08  THREQ   =  0.00D+00  THRDE   =  1.00D+00  THRREF  =  1.00D-05  SPARFAC =  1.00D+00  THRDLP  =  1.00D-07
 THRDIA  =  1.00D-10  THRDLS  =  1.00D-07  THRGPS  =  0.00D+00  THRKEX  =  0.00D+00  THRDIS  =  2.00D-01  THRVAR  =  1.00D-10
 THRLOC  =  1.00D-06  THRGAP  =  1.00D-06  THRLOCT = -1.00D+00  THRGAPT = -1.00D+00  THRORB  =  1.00D-06  THRMLTP =  0.00D+00
 THRCPQCI=  1.00D-10  KEXTA   =  0.00D+00  THRCOARS=  0.00D+00  SYMTOL  =  1.00D-06  GRADTOL =  1.00D-06  THROVL  =  1.00D-08
 THRORTH =  1.00D-08  GRID    =  1.00D-06  GRIDMAX =  1.00D-03  DTMAX   =  0.00D+00  THROCCDE=  1.00D-01  THROCCDE=  1.00D-01



 THRESHOLDS:

 ZERO    =  1.00D-12  ONEINT  =  1.00D-15  TWOINT  =  1.00D-15  PREFAC  =  1.00D-14  LOCALI  =  1.00D-09  EORDER  =  1.00D-04
 ENERGY  =  0.00D+00  ETEST   =  0.00D+00  EDENS   =  0.00D+00  THRDEDEF=  1.00D-06  GRADIENT=  1.00D-02  STEP    =  1.00D-03
 ORBITAL =  1.00D-05  CIVEC   =  1.00D-05  COEFF   =  1.00D-04  PRINTCI =  5.00D-02  PUNCHCI =  9.90D+01  OPTGRAD =  3.00D-04
 OPTENERG=  1.00D-06  OPTSTEP =  3.00D-04  THRGRAD =  1.00D-10  COMPRESS=  1.00D-11  VARMIN  =  1.00D-07  VARMAX  =  1.00D-03
 THRDOUB =  0.00D+00  THRDIV  =  1.00D-05  THRRED  =  1.00D-07  THRPSP  =  1.00D+00  THRDC   =  1.00D-10  THRCS   =  1.00D-10
 THRNRM  =  1.00D-08  THREQ   =  0.00D+00  THRDE   =  1.00D+00  THRREF  =  1.00D-05  SPARFAC =  1.00D+00  THRDLP  =  1.00D-07
 THRDIA  =  1.00D-10  THRDLS  =  1.00D-07  THRGPS  =  0.00D+00  THRKEX  =  0.00D+00  THRDIS  =  2.00D-01  THRVAR  =  1.00D-10
 THRLOC  =  1.00D-06  THRGAP  =  1.00D-06  THRLOCT = -1.00D+00  THRGAPT = -1.00D+00  THRORB  =  1.00D-06  THRMLTP =  0.00D+00
 THRCPQCI=  1.00D-10  KEXTA   =  0.00D+00  THRCOARS=  0.00D+00  SYMTOL  =  1.00D-06  GRADTOL =  1.00D-06  THROVL  =  1.00D-08
 THRORTH =  1.00D-08  GRID    =  1.00D-06  GRIDMAX =  1.00D-03  DTMAX   =  0.00D+00  THROCCDE=  1.00D-01  THROCCDE=  1.00D-01



Geometry recognized as XYZ


 Variable memory set to 1000000000 words,  buffer space   230000 words

 SETTING BASIS          =    USERDEF
  --><jobstep command="RHF-SCF" commandset="SCFPRO">
   <!--


 Recomputing integrals since basis changed


 Using spherical harmonics



 PROGRAM * SEWARD (Integral evaluation for generally contracted gaussian basis sets)     Author: Roland Lindh, 1990

 Geometry written to block  1 of record 700

 Orientation using atomic masses
 Molecule type: Atom
 Symmetry elements: X,Y,Z
 Rotational constants:       0.0000000      0.0000000      0.0000000 GHz  (calculated with average atomic masses)

 Point group  D2h


   --><cml:molecule>
    <cml:symmetry pointGroup="D2h"/>
    <cml:atomArray>
     <cml:atom id="a1" elementType="Ta" x3="0.0" y3="0.0" z3="0.0"/>
    </cml:atomArray>
    <cml:bondArray>
    </cml:bondArray>
   </cml:molecule><!--

 ATOMIC COORDINATES

 NR  ATOM    CHARGE       X              Y              Z

   1  TA     13.00    0.000000000    0.000000000    0.000000000

 NUCLEAR CHARGE:                   13
 NUMBER OF PRIMITIVE AOS:         455
 NUMBER OF SYMMETRY AOS:          370
 NUMBER OF CONTRACTIONS:          370   (  88Ag  +  61B3u +  61B2u +  28B1g +  61B1u +  28B2g +  28B3g +  15Au  )
 NUMBER OF CORE ORBITALS:           4   (   1Ag  +   1B3u +   1B2u +   0B1g +   1B1u +   0B2g +   0B3g +   0Au  )
 NUMBER OF VALENCE ORBITALS:        6   (   3Ag  +   0B3u +   0B2u +   1B1g +   0B1u +   1B2g +   1B3g +   0Au  )


 NUCLEAR REPULSION ENERGY    0.00000000

 EXTRA SYMMETRY OF AOS IN SYMMETRY 1:   1 1 1 1 1 1 1 1 1 1   1 1 1 1 1 1 1 1 1 1   1 1 1 1 1 1 1 1 1 1   1 1 1 1 1 2 3 2 3 2
                                        3 2 3 2 3 2 3 2 3 2   3 2 3 2 3 2 3 2 3 2   3 2 3 2 3 2 3 2 3 2   3 2 3 2 3 2 3 2 3 4
                                        5 6 4 5 6 4 5 6
 EXTRA SYMMETRY OF AOS IN SYMMETRY 2:   1 1 1 1 1 1 1 1 1 1   1 1 1 1 1 1 1 1 1 1   1 1 1 1 1 1 1 1 1 1   1 2 3 2 3 2 3 2 3 2
                                        3 2 3 2 3 2 3 2 3 2   3 2 3 2 3 2 3 2 3 2   3
 EXTRA SYMMETRY OF AOS IN SYMMETRY 3:   1 1 1 1 1 1 1 1 1 1   1 1 1 1 1 1 1 1 1 1   1 1 1 1 1 1 1 1 1 1   1 2 3 2 3 2 3 2 3 2
                                        3 2 3 2 3 2 3 2 3 2   3 2 3 2 3 2 3 2 3 2   3
 EXTRA SYMMETRY OF AOS IN SYMMETRY 4:   1 1 1 1 1 1 1 1 1 1   1 1 1 1 1 1 1 1 1 1   1 1 2 3 2 3 2 3
 EXTRA SYMMETRY OF AOS IN SYMMETRY 5:   1 1 1 1 1 1 1 1 1 1   1 1 1 1 1 1 1 1 1 1   1 1 1 1 1 1 1 1 1 1   1 2 3 2 3 2 3 2 3 2
                                        3 2 3 2 3 2 3 2 3 2   3 2 3 2 3 2 3 2 3 2   3
 EXTRA SYMMETRY OF AOS IN SYMMETRY 6:   1 1 1 1 1 1 1 1 1 1   1 1 1 1 1 1 1 1 1 1   1 1 2 3 2 3 2 3
 EXTRA SYMMETRY OF AOS IN SYMMETRY 7:   1 1 1 1 1 1 1 1 1 1   1 1 1 1 1 1 1 1 1 1   1 1 2 3 2 3 2 3

 Eigenvalues of metric

         1 0.694E-06 0.139E-04 0.139E-04 0.237E-04 0.481E-04 0.143E-03 0.143E-03 0.146E-03
         2 0.469E-06 0.114E-04 0.100E-03 0.100E-03 0.132E-03 0.442E-03 0.112E-02 0.146E-02
         3 0.469E-06 0.114E-04 0.100E-03 0.100E-03 0.132E-03 0.442E-03 0.112E-02 0.146E-02
         4 0.139E-04 0.143E-03 0.607E-03 0.227E-02 0.654E-02 0.151E-01 0.281E-01 0.503E-01
         5 0.469E-06 0.114E-04 0.100E-03 0.100E-03 0.132E-03 0.442E-03 0.112E-02 0.146E-02
         6 0.139E-04 0.143E-03 0.607E-03 0.227E-02 0.654E-02 0.151E-01 0.281E-01 0.503E-01
         7 0.139E-04 0.143E-03 0.607E-03 0.227E-02 0.654E-02 0.151E-01 0.281E-01 0.503E-01
         8 0.100E-03 0.146E-02 0.736E-02 0.189E-01 0.417E-01 0.101E+00 0.199E+00 0.345E+00


 Contracted 2-electron integrals neglected if value below      1.0D-15
 AO integral compression algorithm  1   Integral accuracy      1.0D-15

     2358.510 MB (compressed) written to integral file ( 47.5%)

     Node minimum: 95.683 MB, node maximum: 312.476 MB


 NUMBER OF SORTED TWO-ELECTRON INTEGRALS:   27624048.     BUFFER LENGTH:  32768
 NUMBER OF SEGMENTS:   1  SEGMENT LENGTH:   27624048      RECORD LENGTH: 524288

 Memory used in sort:      28.18 MW

 SORT1 READ   620842336. AND WROTE    17185602. INTEGRALS IN     50 RECORDS. CPU TIME:    14.47 SEC, REAL TIME:    16.62 SEC
 SORT2 READ   190734154. AND WROTE   304061875. INTEGRALS IN  10285 RECORDS. CPU TIME:     2.76 SEC, REAL TIME:     3.90 SEC

 Node minimum:    27596060.  Node maximum:    27763322. integrals

 OPERATOR DM      FOR CENTER  0  COORDINATES:    0.000000    0.000000    0.000000


 **********************************************************************************************************************************
 DATASETS  * FILE   NREC   LENGTH (MB)   RECORD NAMES
              1      19       20.90       500      610      700      900      950      970     1000      129      960     1100
                                          VAR    BASINP    GEOM    SYMINP    ZMAT    AOBASIS   BASIS     P2S    ABASIS      S
                                         1400     1410     1420     1200     1210     1080     1600     1650     1700
                                           T        V       ECP      H0       H01     AOSYM     SMH    MOLCAS    OPER

 PROGRAMS   *        TOTAL       INT
 CPU TIMES  *       111.73    111.27
 REAL TIME  *       117.46 SEC
 DISK USED  *         4.67 GB
 GA USED    *         0.00 MB       (max)       0.00 MB       (current)
 **********************************************************************************************************************************


 PROGRAM * RHF-SCF (OPEN SHELL)       Authors: W. Meyer, H.-J. Werner


 NUMBER OF ELECTRONS:       5+    4-    SPACE SYMMETRY=2    SPIN SYMMETRY: Doublet
 CONVERGENCE THRESHOLDS:    1.00E-05 (Density)    1.00E-07 (Energy)
 MAX. NUMBER OF ITERATIONS:       60
 INTERPOLATION TYPE:            DIIS
 INTERPOLATION STEPS:              2 (START)      1 (STEP)
 LEVEL SHIFTS:                 -0.60 (CLOSED) -0.30 (OPEN)

 Number of closed-shell orbitals:    4 (   1   1   1   0   1   0   0   0 )
 Number of open-shell orbitals:      1 (   0   1   0   0   0   0   0   0 )


 Orbital guess generated from atomic densities. Full valence occupancy:    4   1   1   1   1   1   1   0


 Molecular orbital dump at record        4202.2

 ITERATION    DDIFF          GRAD             ENERGY        2-EL.EN.            DIPOLE MOMENTS         DIIS   ORB.
    1      0.000D+00      0.000D+00       -53.10163762     39.013773    0.00000    0.00000    0.00000    0    start
    2      0.000D+00      0.208D-01       -53.72789726     43.082698    0.00000    0.00000    0.00000    1    diag,B
    3      0.533D-01      0.621D-02       -53.78346361     43.653211    0.00000    0.00000    0.00000    2    diag,B
    4      0.946D-02      0.204D-02       -53.79154475     43.834350    0.00000    0.00000    0.00000    3    diag,B
    5      0.251D-02      0.364D-03       -53.79182897     43.873893    0.00000    0.00000    0.00000    4    diag,B
    6      0.104D-02      0.672D-04       -53.79183713     43.882546    0.00000    0.00000    0.00000    5    diag,B
    7      0.407D-03      0.882D-05       -53.79183723     43.883347    0.00000    0.00000    0.00000    6    fixocc
    8      0.122D-03      0.111D-04       -53.79183723     43.883370    0.00000    0.00000    0.00000    7    diag,B
    9      0.125D-04      0.322D-05       -53.79183724     43.883402    0.00000    0.00000    0.00000    8    diag,B
   10      0.119D-04      0.162D-05       -53.79183724     43.883413    0.00000    0.00000    0.00000    9    orth
   11      0.919D-05      0.794D-05       -53.79183724     43.883411    0.00000    0.00000    0.00000    0    orth

 Final alpha occupancy:   1   2   1   0   1   0   0   0
 Final beta  occupancy:   1   1   1   0   1   0   0   0

 !RHF STATE 1.2 Energy                -53.791837236231
   --><property name="Energy" method="RHF" principal="true" stateSymmetry="2" stateNumber="1"
     value="-53.7918372362308"/><!--
 Nuclear energy                         0.00000000
 One-electron energy                  -75.73354278
 Two-electron energy                   21.94170554
 Virial quotient                       -3.70611099
 !RHF STATE 1.2 Dipole moment           0.00000000     0.00000000     0.00000000
 Dipole moment /Debye                   0.00000000     0.00000000     0.00000000
   --><property name="Dipole moment" method="RHF" principal="true" stateSymmetry="2"
     stateNumber="1" value="0.0 0.0 0.0"/><!--

 ELECTRON ORBITALS
 =================


   Orb  Occ    Energy  Couls-En    Coefficients

                                   1 1s      1 1s      1 1s      1 1s      1 1s      1 1s      1 1s      1 1s      1 1s      1 1s
                                   1 1s      1 1s      1 1s      1 1s      1 1s      1 1s      1 1s      1 1s      1 1s      1 1s
                                   1 1s      1 1s      1 1s      1 1s      1 1s      1 1s      1 1s      1 1s      1 1s      1 1s
                                   1 1s      1 1s      1 1s      1 1s      1 1s      1 3d0     1 3d2+    1 3d0     1 3d2+    1 3d0
                                   1 3d2+    1 3d0     1 3d2+    1 3d0     1 3d2+    1 3d0     1 3d2+    1 3d0     1 3d2+    1 3d0
                                   1 3d2+    1 3d0     1 3d2+    1 3d0     1 3d2+    1 3d0     1 3d2+    1 3d0     1 3d2+    1 3d0
                                   1 3d2+    1 3d0     1 3d2+    1 3d0     1 3d2+    1 3d0     1 3d2+    1 3d0     1 3d2+    1 3d0
                                   1 3d2+    1 3d0     1 3d2+    1 3d0     1 3d2+    1 3d0     1 3d2+    1 3d0     1 3d2+    1 5g0
                                   1 5g4+    1 5g2+    1 5g0     1 5g4+    1 5g2+    1 5g0     1 5g4+    1 5g2+

   1.1   2    -4.9375  -15.0491  0.000000 -0.000000  0.000000 -0.000000  0.000000 -0.000000  0.000000 -0.000000  0.000000 -0.000000
                                 0.000001 -0.000003  0.000009 -0.000022  0.000054 -0.000133  0.000323 -0.000799  0.001993 -0.005014
                                 0.012183 -0.029160  0.065531 -0.140783  0.242424 -0.084429  2.000263  0.369390  0.253429  0.035810
                                -0.018155  0.007372 -2.443915  0.554017 -0.001977 -0.000000  0.000000  0.000000 -0.000000 -0.000000
                                 0.000000  0.000000 -0.000000 -0.000000  0.000000  0.000000 -0.000000 -0.000000  0.000000  0.000001
                                -0.000001 -0.000002  0.000003  0.000003 -0.000006 -0.000008  0.000014  0.000014 -0.000024 -0.000051
                                 0.000088 -0.000189  0.000327  0.000334 -0.000578  0.001426 -0.002469  0.000132 -0.000229 -0.000041
                                 0.000072  0.000010 -0.000017  0.000099 -0.000172  0.000417 -0.000721 -0.000003  0.000005  0.000001
                                 0.000001 -0.000001  0.000004  0.000007 -0.000006 -0.000000 -0.000000  0.000000

   2.1   0    -1.3779   -7.5031 -0.000000 -0.000000  0.000000 -0.000000  0.000000 -0.000000  0.000000 -0.000000  0.000000 -0.000000
                                 0.000000 -0.000000  0.000000 -0.000000  0.000000 -0.000000  0.000000 -0.000000  0.000000 -0.000000
                                 0.000000 -0.000000  0.000000 -0.000001  0.000001 -0.000004 -0.000045  0.000029  0.000056  0.000002
                                -0.000040  0.000042  0.000038 -0.000067 -0.000013 -0.000000 -0.000000  0.000000  0.000000 -0.000000
                                -0.000000  0.000001  0.000000 -0.000003 -0.000002  0.000009  0.000005 -0.000032 -0.000019  0.000071
                                 0.000041 -0.000256 -0.000148  0.000367  0.000212 -0.001443 -0.000833 -0.000333 -0.000191 -0.002452
                                -0.001417  0.012059  0.006950  0.211648  0.122193  0.430786  0.248729  0.329697  0.190325  0.057244
                                 0.033049 -0.003444 -0.001992 -0.028646 -0.016527 -0.026894 -0.015560  0.000977  0.000565  0.000295
                                -0.000358 -0.000262  0.001664 -0.001961 -0.001490  0.000626 -0.000744 -0.000560

   3.1   0    -1.3726   -7.4114 -0.000000  0.000000 -0.000000  0.000000 -0.000000  0.000000 -0.000000  0.000000 -0.000000  0.000000
                                -0.000000  0.000000 -0.000001  0.000001 -0.000003  0.000008 -0.000019  0.000048 -0.000120  0.000303
                                -0.000741  0.001789 -0.004082  0.009125 -0.017696  0.020171 -0.076765 -0.047577 -0.125249  0.173516
                                 0.044224 -0.005200  0.096436  0.013351  0.001171  0.000000 -0.000000 -0.000000  0.000000  0.000000
                                -0.000000 -0.000000  0.000001  0.000001 -0.000002 -0.000003  0.000006  0.000013 -0.000023 -0.000028
                                 0.000048  0.000116 -0.000201 -0.000148  0.000257  0.000689 -0.001193  0.000461 -0.000799  0.000375
                                -0.000649 -0.012678  0.021960 -0.114773  0.198814 -0.220243  0.381511 -0.196746  0.340804 -0.042868
                                 0.074254  0.002553 -0.004421  0.021384 -0.037041 -0.001000  0.001726 -0.000776  0.001345 -0.000304
                                -0.000599  0.000453 -0.001672 -0.003297  0.002492 -0.000708 -0.001397  0.001056

                                   1 2px     1 2px     1 2px     1 2px     1 2px     1 2px     1 2px     1 2px     1 2px     1 2px
                                   1 2px     1 2px     1 2px     1 2px     1 2px     1 2px     1 2px     1 2px     1 2px     1 2px
                                   1 2px     1 2px     1 2px     1 2px     1 2px     1 2px     1 2px     1 2px     1 2px     1 2px
                                   1 2px     1 4f1+    1 4f3+    1 4f1+    1 4f3+    1 4f1+    1 4f3+    1 4f1+    1 4f3+    1 4f1+
                                   1 4f3+    1 4f1+    1 4f3+    1 4f1+    1 4f3+    1 4f1+    1 4f3+    1 4f1+    1 4f3+    1 4f1+
                                   1 4f3+    1 4f1+    1 4f3+    1 4f1+    1 4f3+    1 4f1+    1 4f3+    1 4f1+    1 4f3+    1 4f1+
                                   1 4f3+

   1.2   2    -3.4488  -12.0116 -0.000000  0.000000 -0.000000  0.000000 -0.000000  0.000000 -0.000000  0.000000 -0.000001  0.000004
                                -0.000012  0.000030 -0.000085  0.000193 -0.000602  0.001439 -0.004346  0.008718 -0.018845  0.017288
                                 0.061684 -0.545915  0.196032  0.846203  0.263931  0.007114  0.001096 -0.000482  0.331423 -0.188913
                                 0.000145 -0.000000  0.000000  0.000000 -0.000000 -0.000000  0.000000  0.000000 -0.000001 -0.000001
                                 0.000002  0.000002 -0.000002 -0.000006  0.000008 -0.000023  0.000029  0.000196 -0.000253  0.000597
                                -0.000771  0.000862 -0.001113  0.000017 -0.000022  0.001316 -0.001699 -0.000180  0.000233 -0.000015
                                 0.000020

   2.2   +    -1.2284   -5.3944  0.000000 -0.000000  0.000000 -0.000000  0.000000 -0.000000  0.000000 -0.000000  0.000001 -0.000002
                                 0.000007 -0.000017  0.000048 -0.000110  0.000336 -0.000801  0.002379 -0.004839  0.010841 -0.013209
                                -0.016287  0.257422 -0.129542  0.265408 -0.049042  0.954505  0.230674 -0.028503 -0.173193 -0.733947
                                 0.006627  0.000000 -0.000000 -0.000000  0.000000  0.000000 -0.000000 -0.000000  0.000000  0.000001
                                -0.000001 -0.000002  0.000003  0.000005 -0.000006 -0.000015  0.000019  0.000083 -0.000107  0.000343
                                -0.000443 -0.000004  0.000005 -0.000146  0.000189 -0.000465  0.000600 -0.000835  0.001079 -0.000162
                                 0.000209

   3.2   0    -0.5485   -3.7100 -0.000000 -0.000000  0.000000 -0.000000  0.000000 -0.000000  0.000000 -0.000000  0.000000 -0.000000
                                 0.000000 -0.000000  0.000000 -0.000000  0.000000 -0.000000 -0.000000  0.000000 -0.000000 -0.000000
                                 0.000000 -0.000001 -0.000000  0.000004  0.000000 -0.000002  0.000002  0.000001  0.000001 -0.000003
                                -0.000000 -0.000001 -0.000001  0.000008  0.000006 -0.000034 -0.000026  0.000114  0.000089 -0.000334
                                -0.000258  0.000786  0.000609 -0.002092 -0.001620  0.004863  0.003767 -0.034809 -0.026962 -0.116591
                                -0.090308 -0.098210 -0.076070  0.085526  0.066246  0.207288  0.160559  0.393561  0.304841  0.500223
                                 0.387458

   4.2   0    -0.5448   -3.6971  0.000000 -0.000000  0.000000 -0.000000  0.000000 -0.000000  0.000000 -0.000000  0.000000 -0.000000
                                 0.000000 -0.000000  0.000001 -0.000002  0.000001 -0.000001 -0.000026  0.000050 -0.000142 -0.000144
                                 0.002663 -0.024200 -0.015516  0.145835  0.017978 -0.115913  0.081930  0.054038  0.031075 -0.120928
                                -0.005984 -0.000001  0.000001  0.000006 -0.000007 -0.000026  0.000033  0.000086 -0.000112 -0.000252
                                 0.000326  0.000593 -0.000766 -0.001581  0.002041  0.003660 -0.004725 -0.026157  0.033770 -0.087851
                                 0.113419 -0.073486  0.094873  0.064533 -0.083314  0.156661 -0.202255  0.301977 -0.389864  0.387112
                                -0.499776

                                   1 2py     1 2py     1 2py     1 2py     1 2py     1 2py     1 2py     1 2py     1 2py     1 2py
                                   1 2py     1 2py     1 2py     1 2py     1 2py     1 2py     1 2py     1 2py     1 2py     1 2py
                                   1 2py     1 2py     1 2py     1 2py     1 2py     1 2py     1 2py     1 2py     1 2py     1 2py
                                   1 2py     1 4f1-    1 4f3-    1 4f1-    1 4f3-    1 4f1-    1 4f3-    1 4f1-    1 4f3-    1 4f1-
                                   1 4f3-    1 4f1-    1 4f3-    1 4f1-    1 4f3-    1 4f1-    1 4f3-    1 4f1-    1 4f3-    1 4f1-
                                   1 4f3-    1 4f1-    1 4f3-    1 4f1-    1 4f3-    1 4f1-    1 4f3-    1 4f1-    1 4f3-    1 4f1-
                                   1 4f3-

   1.3   2    -3.4623  -12.0170 -0.000000  0.000000 -0.000000  0.000000 -0.000000  0.000000 -0.000000  0.000000 -0.000001  0.000004
                                -0.000012  0.000030 -0.000084  0.000191 -0.000595  0.001422 -0.004297  0.008616 -0.018609  0.016909
                                 0.061954 -0.543093  0.192411  0.816418  0.271862  0.006268  0.000597 -0.000386  0.329678 -0.163370
                                 0.000121 -0.000000  0.000000  0.000000 -0.000000 -0.000000  0.000000  0.000000 -0.000001 -0.000000
                                 0.000002  0.000001 -0.000002 -0.000002  0.000008 -0.000008  0.000029  0.000064 -0.000249  0.000194
                                -0.000753  0.000292 -0.001130  0.000007 -0.000027  0.000440 -0.001703 -0.000062  0.000240 -0.000005
                                 0.000020

   2.3   0    -0.9629   -5.0113  0.000000 -0.000000  0.000000 -0.000000  0.000000 -0.000000  0.000000 -0.000000  0.000000 -0.000001
                                 0.000005 -0.000011  0.000032 -0.000072  0.000238 -0.000576  0.001838 -0.003718  0.008419 -0.008648
                                -0.024660  0.293743 -0.020092 -0.682874 -0.155031  0.877457  0.344224 -0.035730 -0.260937  0.268749
                                 0.009040 -0.000000  0.000000  0.000000 -0.000000 -0.000000  0.000000  0.000000 -0.000000 -0.000000
                                 0.000000  0.000000 -0.000001 -0.000000  0.000001  0.000002 -0.000006 -0.000021  0.000081 -0.000050
                                 0.000190 -0.000256  0.000989  0.000047 -0.000181  0.000063 -0.000240 -0.000199  0.000776  0.000149
                                -0.000581

   3.3   0    -0.5536   -3.7153 -0.000000 -0.000000  0.000000 -0.000000  0.000000 -0.000000  0.000000 -0.000000  0.000000 -0.000000
                                 0.000000 -0.000000  0.000000 -0.000000  0.000000  0.000000  0.000000 -0.000000  0.000000  0.000000
                                -0.000000  0.000000  0.000000 -0.000001 -0.000000  0.000001 -0.000001 -0.000000 -0.000000  0.000001
                                 0.000000 -0.000001 -0.000000  0.000009  0.000002 -0.000042 -0.000011  0.000143  0.000037 -0.000416
                                -0.000107  0.000981  0.000253 -0.002610 -0.000674  0.006090  0.001572 -0.043652 -0.011271 -0.145850
                                -0.037659 -0.123810 -0.031968  0.106844  0.027588  0.258835  0.066833  0.482767  0.124653  0.612800
                                 0.158229

                                   1 3d2-    1 3d2-    1 3d2-    1 3d2-    1 3d2-    1 3d2-    1 3d2-    1 3d2-    1 3d2-    1 3d2-
                                   1 3d2-    1 3d2-    1 3d2-    1 3d2-    1 3d2-    1 3d2-    1 3d2-    1 3d2-    1 3d2-    1 3d2-
                                   1 3d2-    1 3d2-    1 5g2-    1 5g4-    1 5g2-    1 5g4-    1 5g2-    1 5g4-

   1.4   0    -1.3722   -7.4656 -0.000000  0.000000 -0.000000  0.000001 -0.000003  0.000008 -0.000031  0.000066 -0.000258  0.000348
                                -0.001500 -0.000724 -0.001549  0.021429  0.237326  0.464643  0.391111  0.078692 -0.004726 -0.039575
                                -0.009935  0.001405  0.000266 -0.000703  0.001468 -0.003884  0.000596 -0.001577

   2.4   0    -0.6203   -3.6849 -0.000000  0.000000 -0.000000  0.000001 -0.000002  0.000008 -0.000019  0.000054 -0.000061  0.000239
                                -0.000055  0.002471 -0.006412 -0.059114 -0.112795 -0.229708 -0.158567  0.764872  0.404887  0.063349
                                -0.066842 -0.033933  0.000080 -0.000212 -0.001443  0.003819  0.004564 -0.012077

                                   1 2pz     1 2pz     1 2pz     1 2pz     1 2pz     1 2pz     1 2pz     1 2pz     1 2pz     1 2pz
                                   1 2pz     1 2pz     1 2pz     1 2pz     1 2pz     1 2pz     1 2pz     1 2pz     1 2pz     1 2pz
                                   1 2pz     1 2pz     1 2pz     1 2pz     1 2pz     1 2pz     1 2pz     1 2pz     1 2pz     1 2pz
                                   1 2pz     1 4f0     1 4f2+    1 4f0     1 4f2+    1 4f0     1 4f2+    1 4f0     1 4f2+    1 4f0
                                   1 4f2+    1 4f0     1 4f2+    1 4f0     1 4f2+    1 4f0     1 4f2+    1 4f0     1 4f2+    1 4f0
                                   1 4f2+    1 4f0     1 4f2+    1 4f0     1 4f2+    1 4f0     1 4f2+    1 4f0     1 4f2+    1 4f0
                                   1 4f2+

   1.5   2    -3.4623  -12.0170 -0.000000  0.000000 -0.000000  0.000000 -0.000000  0.000000 -0.000000  0.000000 -0.000001  0.000004
                                -0.000012  0.000030 -0.000084  0.000191 -0.000595  0.001422 -0.004297  0.008616 -0.018609  0.016909
                                 0.061954 -0.543092  0.192412  0.816415  0.271862  0.006268  0.000597 -0.000386  0.329677 -0.163367
                                 0.000121 -0.000000  0.000000  0.000000 -0.000000 -0.000000  0.000000  0.000000 -0.000000 -0.000001
                                 0.000001  0.000001 -0.000002 -0.000005  0.000006 -0.000018  0.000024  0.000158 -0.000204  0.000476
                                -0.000615  0.000715 -0.000923  0.000017 -0.000022  0.001077 -0.001390 -0.000152  0.000196 -0.000013
                                 0.000016

   2.5   0    -0.9629   -5.0113  0.000000 -0.000000  0.000000 -0.000000  0.000000 -0.000000  0.000000 -0.000000  0.000000 -0.000001
                                 0.000005 -0.000011  0.000032 -0.000072  0.000238 -0.000576  0.001838 -0.003718  0.008419 -0.008648
                                -0.024660  0.293743 -0.020092 -0.682874 -0.155031  0.877457  0.344224 -0.035730 -0.260937  0.268748
                                 0.009040 -0.000000  0.000000  0.000000 -0.000000 -0.000000  0.000000  0.000000 -0.000000 -0.000000
                                 0.000000  0.000000 -0.000001 -0.000001  0.000001  0.000004 -0.000005 -0.000051  0.000066 -0.000121
                                 0.000156 -0.000625  0.000807  0.000114 -0.000148  0.000152 -0.000196 -0.000491  0.000634  0.000367
                                -0.000474

   3.5   0    -0.5536   -3.7153  0.000000 -0.000000  0.000000 -0.000000 -0.000000  0.000000 -0.000000  0.000000 -0.000000  0.000000
                                -0.000000  0.000000 -0.000000  0.000000 -0.000000  0.000000  0.000000 -0.000000  0.000000  0.000000
                                -0.000000  0.000000  0.000000 -0.000001 -0.000000  0.000000 -0.000000 -0.000000 -0.000000  0.000001
                                 0.000000 -0.000001 -0.000001  0.000008  0.000006 -0.000034 -0.000027  0.000117  0.000090 -0.000340
                                -0.000263  0.000801  0.000621 -0.002131 -0.001651  0.004972  0.003852 -0.035641 -0.027608 -0.119086
                                -0.092244 -0.101091 -0.078305  0.087237  0.067574  0.211338  0.163702  0.394178  0.305330  0.500349
                                 0.387570

                                   1 3d1+    1 3d1+    1 3d1+    1 3d1+    1 3d1+    1 3d1+    1 3d1+    1 3d1+    1 3d1+    1 3d1+
                                   1 3d1+    1 3d1+    1 3d1+    1 3d1+    1 3d1+    1 3d1+    1 3d1+    1 3d1+    1 3d1+    1 3d1+
                                   1 3d1+    1 3d1+    1 5g1+    1 5g3+    1 5g1+    1 5g3+    1 5g1+    1 5g3+

   1.6   0    -1.3722   -7.4656 -0.000000  0.000000 -0.000000  0.000001 -0.000003  0.000008 -0.000031  0.000066 -0.000258  0.000348
                                -0.001500 -0.000724 -0.001549  0.021429  0.237326  0.464643  0.391111  0.078692 -0.004726 -0.039575
                                -0.009935  0.001405  0.000564 -0.000497  0.003114 -0.002746  0.001265 -0.001115

   2.6   0    -0.6203   -3.6849 -0.000000  0.000000 -0.000000  0.000001 -0.000002  0.000008 -0.000019  0.000054 -0.000061  0.000239
                                -0.000055  0.002471 -0.006412 -0.059114 -0.112795 -0.229708 -0.158567  0.764872  0.404887  0.063349
                                -0.066842 -0.033933  0.000170 -0.000150 -0.003062  0.002700  0.009683 -0.008539

                                   1 3d1-    1 3d1-    1 3d1-    1 3d1-    1 3d1-    1 3d1-    1 3d1-    1 3d1-    1 3d1-    1 3d1-
                                   1 3d1-    1 3d1-    1 3d1-    1 3d1-    1 3d1-    1 3d1-    1 3d1-    1 3d1-    1 3d1-    1 3d1-
                                   1 3d1-    1 3d1-    1 5g1-    1 5g3-    1 5g1-    1 5g3-    1 5g1-    1 5g3-

   1.7   0    -1.3779   -7.5031 -0.000000  0.000000 -0.000000  0.000001 -0.000004  0.000010 -0.000037  0.000082 -0.000296  0.000425
                                -0.001670 -0.000376 -0.002863  0.013755  0.244441  0.497501  0.380683  0.066101 -0.003979 -0.032908
                                -0.031157  0.001129  0.000189 -0.000499  0.001051 -0.002781  0.000397 -0.001049

   2.7   0    -0.6180   -3.6208 -0.000000  0.000000 -0.000000  0.000001 -0.000003  0.000012 -0.000030  0.000083 -0.000132  0.000380
                                -0.000384  0.003077 -0.008769 -0.070466 -0.094320 -0.173003 -0.179873  0.759355  0.425706  0.073349
                                -0.103270 -0.035433  0.000067 -0.000178 -0.001002  0.002652  0.003260 -0.008624

                                   1 4f2-    1 4f2-    1 4f2-    1 4f2-    1 4f2-    1 4f2-    1 4f2-    1 4f2-    1 4f2-    1 4f2-
                                   1 4f2-    1 4f2-    1 4f2-    1 4f2-    1 4f2-

   1.8   0    -0.5485   -3.7100 -0.000001  0.000010 -0.000043  0.000145 -0.000422  0.000994 -0.002646  0.006152 -0.044030 -0.147475
                                -0.124225  0.108181  0.262197  0.497813  0.632729

   2.8   0    -0.2263   -3.0435 -0.000010  0.000065 -0.000291  0.000998 -0.002859  0.007155 -0.018275  0.052142 -0.388957 -1.226726
                                -1.228926  0.805219  1.619327  1.604104 -1.116022

 HOMO      2.2    -1.228370 =     -33.4256eV
 LUMO      2.1    -1.377917 =     -37.4950eV
 LUMO-HOMO        -0.149547 =      -4.0694eV


 **********************************************************************************************************************************
 DATASETS  * FILE   NREC   LENGTH (MB)   RECORD NAMES
              1      19       20.94       500      610      700      900      950      970     1000      129      960     1100
                                          VAR    BASINP    GEOM    SYMINP    ZMAT    AOBASIS   BASIS     P2S    ABASIS      S
                                         1400     1410     1420     1200     1210     1080     1600     1650     1700
                                           T        V       ECP      H0       H01     AOSYM     SMH    MOLCAS    OPER

              2       4        3.41       700     1000      520     4202
                                         GEOM     BASIS   MCVARS     RHF

 PROGRAMS   *        TOTAL       RHF       INT
 CPU TIMES  *       113.99      2.24    111.27
 REAL TIME  *       120.22 SEC
 DISK USED  *         4.97 GB
 SF USED    *         0.09 MB
 GA USED    *         0.00 MB       (max)       0.00 MB       (current)
 **********************************************************************************************************************************
   -->
   <time start="21:30:37" end="21:32:37" cpu="113.99" system="3.88" real="120.22"/>
   <storage units="megabyte" memory="8001.84" sf="0.09" df="303.5" eaf="4665.96" ga="0.0"/>
  </jobstep><!--
  --><jobstep command="POP" commandset="POP">
   <!--


 PROGRAM * POP (Mulliken population analysis)


 Density matrix read from record         4202.2  Type=RHF/CHARGE (state 1.2)

 Population analysis by basis function type

 Unique atom        s        p        d        f        g    Total    Charge
   1  TA      1.99996  6.99991  0.00004  0.00009  0.00000  9.00000  + 4.00000


 **********************************************************************************************************************************
 DATASETS  * FILE   NREC   LENGTH (MB)   RECORD NAMES
              1      19       20.94       500      610      700      900      950      970     1000      129      960     1100
                                          VAR    BASINP    GEOM    SYMINP    ZMAT    AOBASIS   BASIS     P2S    ABASIS      S
                                         1400     1410     1420     1200     1210     1080     1600     1650     1700
                                           T        V       ECP      H0       H01     AOSYM     SMH    MOLCAS    OPER

              2       4        3.41       700     1000      520     4202
                                         GEOM     BASIS   MCVARS     RHF

 PROGRAMS   *        TOTAL       POP       RHF       INT
 CPU TIMES  *       114.00      0.00      2.24    111.27
 REAL TIME  *       120.23 SEC
 DISK USED  *         4.97 GB
 SF USED    *         0.09 MB
 GA USED    *         0.00 MB       (max)       0.00 MB       (current)
 **********************************************************************************************************************************
   -->
   <time start="21:32:37" end="21:32:37" cpu="0.01" system="0.0" real="0.01"/>
   <storage units="megabyte" memory="8001.84" sf="0.09" df="303.5" eaf="4665.96" ga="0.0"/>
  </jobstep><!--
  --><jobstep command="MULTI" commandset="MULTI">
   <!--


 PROGRAM * MULTI (Direct Multiconfiguration SCF)       Authors: P.J. Knowles, H.-J. Werner (1984)     S.T. Elbert (1988)


 Number of closed-shell orbitals:   4 (   1   1   1   0   1   0   0   0 )
 Number of active  orbitals:        3 (   0   1   1   0   1   0   0   0 )
 Number of external orbitals:     363 (  87  59  59  28  59  28  28  15 )

 State symmetry 1

 Number of electrons:     1    Spin symmetry=Doublet   Space symmetry=2
 Number of states:        1
 Number of CSFs:          1   (1 determinants, 3 intermediate states)

 State symmetry 2

 Number of electrons:     1    Spin symmetry=Doublet   Space symmetry=3
 Number of states:        1
 Number of CSFs:          1   (1 determinants, 3 intermediate states)

 State symmetry 3

 Number of electrons:     1    Spin symmetry=Doublet   Space symmetry=5
 Number of states:        1
 Number of CSFs:          1   (1 determinants, 3 intermediate states)

 Molecular orbitals read from record     4202.2  Type=RHF/CANONICAL (state 1.2)
 *** IN SYMMETRY 1 ORBITAL  1 SYMMETRY CONTAMINATION OF 0.119D-02 HAS BEEN REMOVED

 EXTRA SYMMETRY OF MOS IN SYMMETRY 1:   1 2 3 1 1 2 1 1 2 3   1 2 1 4 5 6 2 3 1 4   5 6 2 3 1 2 3 4 5 6   1 2 3 1 2 3 1 2 3 1
                                        2 3 2 3 1 2 3 1 2 3   1 2 3 1 2 3 1 2 3 1   2 3 1 1 2 3 1 3 2 1   2 3 1 1 3 2 1 1 1 1
                                        1 1 1 1 1 1 3 3
 *** IN SYMMETRY 2 ORBITAL  1 SYMMETRY CONTAMINATION OF 0.295D-02 HAS BEEN REMOVED
 *** IN SYMMETRY 2 ORBITAL  2 SYMMETRY CONTAMINATION OF 0.164D-02 HAS BEEN REMOVED
 EXTRA SYMMETRY OF MOS IN SYMMETRY 2:   1 1 2 3 1 1 2 3 1 1   2 3 2 3 1 2 3 1 2 3   1 2 3 1 2 3 1 2 3 1   2 3 1 1 2 3 1 2 3 1
                                        2 3 1 2 3 1 1 2 3 1   1 1 1 1 1 1 1 1 1 1   1
 *** IN SYMMETRY 3 ORBITAL  1 SYMMETRY CONTAMINATION OF 0.215D-02 HAS BEEN REMOVED
 *** IN SYMMETRY 3 ORBITAL  2 SYMMETRY CONTAMINATION OF 0.128D-02 HAS BEEN REMOVED
 EXTRA SYMMETRY OF MOS IN SYMMETRY 3:   1 1 2 3 1 1 2 3 1 1   2 3 2 3 1 2 3 1 2 3   1 2 3 1 2 3 1 2 3 1   2 3 1 1 2 3 1 2 3 1
                                        2 3 1 2 3 1 1 2 3 1   1 1 1 1 1 1 1 1 1 1   1
 EXTRA SYMMETRY OF MOS IN SYMMETRY 4:   1 1 1 1 2 3 1 2 3 1   1 2 3 1 1 1 1 1 1 1   1 1 1 1 1 1 1 1
 *** IN SYMMETRY 5 ORBITAL  1 SYMMETRY CONTAMINATION OF 0.247D-02 HAS BEEN REMOVED
 *** IN SYMMETRY 5 ORBITAL  2 SYMMETRY CONTAMINATION OF 0.147D-02 HAS BEEN REMOVED
 EXTRA SYMMETRY OF MOS IN SYMMETRY 5:   1 1 2 3 1 1 2 3 1 1   2 3 2 3 1 2 3 1 2 3   1 2 3 1 2 3 1 2 3 1   2 3 1 1 2 3 1 2 3 1
                                        2 3 1 2 3 1 1 2 3 1   1 1 1 1 1 1 1 1 1 1   1
 EXTRA SYMMETRY OF MOS IN SYMMETRY 6:   1 1 1 1 3 2 1 3 2 1   1 3 2 1 1 1 1 1 1 1   1 1 1 1 1 1 1 1
 EXTRA SYMMETRY OF MOS IN SYMMETRY 7:   1 1 1 1 2 3 1 2 3 1   1 2 3 1 1 1 1 1 1 1   1 1 1 1 1 1 1 1

 Wavefunction dump at record             5202.2

 Convergence thresholds  0.10E-01 (gradient)  0.10E-05 (energy)  0.10E-02 (step length)

 Weight factors for state symmetry  1:    0.33333
 Weight factors for state symmetry  2:    0.33333
 Weight factors for state symmetry  3:    0.33333

 Number of orbital rotations:      444   (     3 Core/Active    264 Core/Virtual   0 Active/Active    177 Active/Virtual)
 Total number of variables:        447


 ITER. MIC  NCI  NEG     ENERGY(VAR)     ENERGY(PROJ)   ENERGY CHANGE     GRAD(0)  GRAD(ORB)   GRAD(CI)     STEP       TIME

   1   23   21    0     -53.78919394     -53.79132363   -0.00212970    6.28355974 0.00001096 0.00000000  0.10D+00      0.86
   2   52   15    0     -53.79124801     -53.79132339   -0.00007538   *********** 0.00005946 0.00000000  0.22D-04      1.38
   3   38   15    0     -53.79132339     -53.79132339    0.00000000    0.00005946 0.00000001 0.00000000  0.51D-10      1.95

 ** WVFN ****  CONVERGENCE REACHED, FINAL GRADIENT:  0.11D-07



 Results for state 1.2
 =====================

 !MCSCF STATE 1.2 Energy              -53.791323390115
   --><property name="Energy" method="MCSCF" principal="true" stateSymmetry="2" stateNumber="1"
     value="-53.7913233901154"/><!--
 Nuclear energy                         0.00000000
 Kinetic energy                        14.51347991
 One electron energy                  -75.73299313
 Two electron energy                   21.94166974
 Virial ratio                           4.70630088

 !MCSCF STATE 1.2 Dipole moment         0.00000000     0.00000000     0.00000000
 Dipole moment /Debye                   0.00000000     0.00000000     0.00000000
   --><property name="Dipole moment" method="MCSCF" principal="true" stateSymmetry="2"
     stateNumber="1" value="0.0 0.0 0.0"/><!--



 Results for state 1.3
 =====================

 !MCSCF STATE 1.3 Energy              -53.791323390115
   --><property name="Energy" method="MCSCF" principal="true" stateSymmetry="3" stateNumber="1"
     value="-53.7913233901154"/><!--
 Nuclear energy                         0.00000000
 Kinetic energy                        14.51347991
 One electron energy                  -75.73299313
 Two electron energy                   21.94166974
 Virial ratio                           4.70630088

 !MCSCF STATE 1.3 Dipole moment         0.00000000     0.00000000     0.00000000
 Dipole moment /Debye                   0.00000000     0.00000000     0.00000000
   --><property name="Dipole moment" method="MCSCF" principal="true" stateSymmetry="3"
     stateNumber="1" value="0.0 0.0 0.0"/><!--



 Results for state 1.5
 =====================

 !MCSCF STATE 1.5 Energy              -53.791323390115
   --><property name="Energy" method="MCSCF" principal="true" stateSymmetry="5" stateNumber="1"
     value="-53.7913233901154"/><!--
 Nuclear energy                         0.00000000
 Kinetic energy                        14.51347991
 One electron energy                  -75.73299313
 Two electron energy                   21.94166974
 Virial ratio                           4.70630088

 !MCSCF STATE 1.5 Dipole moment         0.00000000     0.00000000     0.00000000
 Dipole moment /Debye                   0.00000000     0.00000000     0.00000000
   --><property name="Dipole moment" method="MCSCF" principal="true" stateSymmetry="5"
     stateNumber="1" value="0.0 0.0 0.0"/><!--

 State-averaged charge density matrix saved on record  5202.2 (density set 1)


 NATURAL ORBITALS (state averaged)
 =================================

   Orb     Occ        Energy       Coefficients

                                   1 1s      1 1s      1 1s      1 1s      1 1s      1 1s      1 1s      1 1s      1 1s      1 1s
                                   1 1s      1 1s      1 1s      1 1s      1 1s      1 1s      1 1s      1 1s      1 1s      1 1s
                                   1 1s      1 1s      1 1s      1 1s      1 1s      1 1s      1 1s      1 1s      1 1s      1 1s
                                   1 1s      1 1s      1 1s      1 1s      1 1s      1 3d0     1 3d2+    1 3d0     1 3d2+    1 3d0
                                   1 3d2+    1 3d0     1 3d2+    1 3d0     1 3d2+    1 3d0     1 3d2+    1 3d0     1 3d2+    1 3d0
                                   1 3d2+    1 3d0     1 3d2+    1 3d0     1 3d2+    1 3d0     1 3d2+    1 3d0     1 3d2+    1 3d0
                                   1 3d2+    1 3d0     1 3d2+    1 3d0     1 3d2+    1 3d0     1 3d2+    1 3d0     1 3d2+    1 3d0
                                   1 3d2+    1 3d0     1 3d2+    1 3d0     1 3d2+    1 3d0     1 3d2+    1 3d0     1 3d2+    1 5g0
                                   1 5g4+    1 5g2+    1 5g0     1 5g4+    1 5g2+    1 5g0     1 5g4+    1 5g2+

   1.1  2.00000    -4.937607     0.000000 -0.000000  0.000000 -0.000000  0.000000 -0.000000  0.000000 -0.000000  0.000000 -0.000000
                                 0.000001 -0.000003  0.000009 -0.000022  0.000054 -0.000133  0.000323 -0.000800  0.001993 -0.005014
                                 0.012184 -0.029161  0.065534 -0.140788  0.242433 -0.084440  2.000301  0.369361  0.253261  0.035819
                                -0.018154  0.007372 -2.443951  0.554213 -0.001977  0.000000  0.000000  0.000000  0.000000  0.000000
                                 0.000000  0.000000  0.000000  0.000000  0.000000  0.000000  0.000000  0.000000  0.000000  0.000000
                                 0.000000  0.000000  0.000000  0.000000  0.000000  0.000000  0.000000  0.000000  0.000000  0.000000
                                 0.000000  0.000000  0.000000  0.000000  0.000000  0.000000  0.000000  0.000000  0.000000  0.000000
                                 0.000000  0.000000  0.000000  0.000000  0.000000  0.000000  0.000000  0.000000  0.000000  0.000000
                                 0.000000  0.000000  0.000000  0.000000  0.000000  0.000000  0.000000  0.000000

                                   1 2px     1 2px     1 2px     1 2px     1 2px     1 2px     1 2px     1 2px     1 2px     1 2px
                                   1 2px     1 2px     1 2px     1 2px     1 2px     1 2px     1 2px     1 2px     1 2px     1 2px
                                   1 2px     1 2px     1 2px     1 2px     1 2px     1 2px     1 2px     1 2px     1 2px     1 2px
                                   1 2px     1 4f1+    1 4f3+    1 4f1+    1 4f3+    1 4f1+    1 4f3+    1 4f1+    1 4f3+    1 4f1+
                                   1 4f3+    1 4f1+    1 4f3+    1 4f1+    1 4f3+    1 4f1+    1 4f3+    1 4f1+    1 4f3+    1 4f1+
                                   1 4f3+    1 4f1+    1 4f3+    1 4f1+    1 4f3+    1 4f1+    1 4f3+    1 4f1+    1 4f3+    1 4f1+
                                   1 4f3+

   1.2  2.00000    -3.457844    -0.000000  0.000000 -0.000000  0.000000 -0.000000  0.000000 -0.000000  0.000000 -0.000001  0.000004
                                -0.000012  0.000030 -0.000084  0.000192 -0.000597  0.001428 -0.004313  0.008648 -0.018684  0.017031
                                 0.061860 -0.543958  0.193558  0.826362  0.269152  0.006904  0.000847 -0.000428  0.330219 -0.172015
                                 0.000131  0.000000  0.000000  0.000000  0.000000  0.000000  0.000000  0.000000  0.000000  0.000000
                                 0.000000  0.000000  0.000000  0.000000  0.000000  0.000000  0.000000  0.000000  0.000000  0.000000
                                 0.000000  0.000000  0.000000  0.000000  0.000000  0.000000  0.000000  0.000000  0.000000  0.000000
                                 0.000000

   2.2  0.33333    -0.988218     0.000000 -0.000000  0.000000 -0.000000  0.000000 -0.000000  0.000000 -0.000000  0.000001 -0.000002
                                 0.000007 -0.000017  0.000048 -0.000110  0.000336 -0.000801  0.002381 -0.004842  0.010847 -0.013177
                                -0.016574  0.259456 -0.128131  0.247508 -0.051945  0.954298  0.231747 -0.028652 -0.175667 -0.716557
                                 0.006665  0.000000  0.000000  0.000000  0.000000  0.000000  0.000000  0.000000  0.000000  0.000000
                                 0.000000  0.000000  0.000000  0.000000  0.000000  0.000000  0.000000  0.000000  0.000000  0.000000
                                 0.000000  0.000000  0.000000  0.000000  0.000000  0.000000  0.000000  0.000000  0.000000  0.000000
                                 0.000000

                                   1 2py     1 2py     1 2py     1 2py     1 2py     1 2py     1 2py     1 2py     1 2py     1 2py
                                   1 2py     1 2py     1 2py     1 2py     1 2py     1 2py     1 2py     1 2py     1 2py     1 2py
                                   1 2py     1 2py     1 2py     1 2py     1 2py     1 2py     1 2py     1 2py     1 2py     1 2py
                                   1 2py     1 4f1-    1 4f3-    1 4f1-    1 4f3-    1 4f1-    1 4f3-    1 4f1-    1 4f3-    1 4f1-
                                   1 4f3-    1 4f1-    1 4f3-    1 4f1-    1 4f3-    1 4f1-    1 4f3-    1 4f1-    1 4f3-    1 4f1-
                                   1 4f3-    1 4f1-    1 4f3-    1 4f1-    1 4f3-    1 4f1-    1 4f3-    1 4f1-    1 4f3-    1 4f1-
                                   1 4f3-

   1.3  2.00000    -3.457844    -0.000000  0.000000 -0.000000  0.000000 -0.000000  0.000000 -0.000000  0.000000 -0.000001  0.000004
                                -0.000012  0.000030 -0.000084  0.000192 -0.000597  0.001428 -0.004313  0.008648 -0.018684  0.017031
                                 0.061860 -0.543958  0.193558  0.826362  0.269152  0.006904  0.000847 -0.000428  0.330219 -0.172015
                                 0.000131  0.000000  0.000000  0.000000  0.000000  0.000000  0.000000  0.000000  0.000000  0.000000
                                 0.000000  0.000000  0.000000  0.000000  0.000000  0.000000  0.000000  0.000000  0.000000  0.000000
                                 0.000000  0.000000  0.000000  0.000000  0.000000  0.000000  0.000000  0.000000  0.000000  0.000000
                                 0.000000

   2.3  0.33333    -0.988218     0.000000 -0.000000  0.000000 -0.000000  0.000000 -0.000000  0.000000 -0.000000  0.000001 -0.000002
                                 0.000007 -0.000017  0.000048 -0.000110  0.000336 -0.000801  0.002381 -0.004842  0.010847 -0.013177
                                -0.016574  0.259456 -0.128131  0.247508 -0.051945  0.954298  0.231747 -0.028652 -0.175667 -0.716557
                                 0.006665  0.000000  0.000000  0.000000  0.000000  0.000000  0.000000  0.000000  0.000000  0.000000
                                 0.000000  0.000000  0.000000  0.000000  0.000000  0.000000  0.000000  0.000000  0.000000  0.000000
                                 0.000000  0.000000  0.000000  0.000000  0.000000  0.000000  0.000000  0.000000  0.000000  0.000000
                                 0.000000

                                   1 2pz     1 2pz     1 2pz     1 2pz     1 2pz     1 2pz     1 2pz     1 2pz     1 2pz     1 2pz
                                   1 2pz     1 2pz     1 2pz     1 2pz     1 2pz     1 2pz     1 2pz     1 2pz     1 2pz     1 2pz
                                   1 2pz     1 2pz     1 2pz     1 2pz     1 2pz     1 2pz     1 2pz     1 2pz     1 2pz     1 2pz
                                   1 2pz     1 4f0     1 4f2+    1 4f0     1 4f2+    1 4f0     1 4f2+    1 4f0     1 4f2+    1 4f0
                                   1 4f2+    1 4f0     1 4f2+    1 4f0     1 4f2+    1 4f0     1 4f2+    1 4f0     1 4f2+    1 4f0
                                   1 4f2+    1 4f0     1 4f2+    1 4f0     1 4f2+    1 4f0     1 4f2+    1 4f0     1 4f2+    1 4f0
                                   1 4f2+

   1.5  2.00000    -3.457844    -0.000000  0.000000 -0.000000  0.000000 -0.000000  0.000000 -0.000000  0.000000 -0.000001  0.000004
                                -0.000012  0.000030 -0.000084  0.000192 -0.000597  0.001428 -0.004313  0.008648 -0.018684  0.017031
                                 0.061860 -0.543958  0.193558  0.826362  0.269152  0.006904  0.000847 -0.000428  0.330219 -0.172015
                                 0.000131  0.000000  0.000000  0.000000  0.000000  0.000000  0.000000  0.000000  0.000000  0.000000
                                 0.000000  0.000000  0.000000  0.000000  0.000000  0.000000  0.000000  0.000000  0.000000  0.000000
                                 0.000000  0.000000  0.000000  0.000000  0.000000  0.000000  0.000000  0.000000  0.000000  0.000000
                                 0.000000

   2.5  0.33333    -0.988218     0.000000 -0.000000  0.000000 -0.000000  0.000000 -0.000000  0.000000 -0.000000  0.000001 -0.000002
                                 0.000007 -0.000017  0.000048 -0.000110  0.000336 -0.000801  0.002381 -0.004842  0.010847 -0.013177
                                -0.016574  0.259456 -0.128131  0.247508 -0.051945  0.954298  0.231747 -0.028652 -0.175667 -0.716557
                                 0.006665  0.000000  0.000000  0.000000  0.000000  0.000000  0.000000  0.000000  0.000000  0.000000
                                 0.000000  0.000000  0.000000  0.000000  0.000000  0.000000  0.000000  0.000000  0.000000  0.000000
                                 0.000000  0.000000  0.000000  0.000000  0.000000  0.000000  0.000000  0.000000  0.000000  0.000000
                                 0.000000

 Total charge:   4.000000000000


 EXTRA SYMMETRY OF MOS IN SYMMETRY 1:   1 2 3 1 2 1 1 1 2 3   1 3 2 4 5 6 2 3 1 4   5 6 3 2 1 3 2 4 6 5   1 2 3 1 2 3 1 3 2 1
                                        3 2 3 2 1 3 2 1 3 2   1 3 2 1 3 2 1 3 2 1   2 3 1 1 2 3 1 2 3 1   2 3 1 1 2 3 1 1 1 1
                                        1 1 1 1 1 1 1 3
 EXTRA SYMMETRY OF MOS IN SYMMETRY 2:   1 1 3 2 1 1 2 3 1 1   2 3 3 2 1 3 2 1 3 2   1 3 2 1 3 2 1 2 3 1   3 2 1 1 3 2 1 3 2 1
                                        3 2 1 2 3 1 1 3 2 1   1 1 1 1 1 1 1 1 1 1   1
 EXTRA SYMMETRY OF MOS IN SYMMETRY 3:   1 1 2 3 1 1 2 3 1 1   3 2 2 3 1 2 3 1 3 2   1 2 3 1 2 3 1 2 3 1   2 3 1 1 2 3 1 2 3 1
                                        2 3 1 3 2 1 1 3 2 1   1 1 1 1 1 1 1 1 1 1   1
 EXTRA SYMMETRY OF MOS IN SYMMETRY 4:   1 1 1 1 2 3 1 2 3 1   1 3 2 1 1 1 1 1 1 1   1 1 1 1 1 1 1 1
 EXTRA SYMMETRY OF MOS IN SYMMETRY 5:   1 1 2 3 1 1 3 2 1 1   2 3 3 2 1 3 2 1 3 2   1 3 2 1 3 2 1 3 2 1   3 2 1 1 3 2 1 3 2 1
                                        2 3 1 2 3 1 1 2 3 1   1 1 1 1 1 1 1 1 1 1   1
 EXTRA SYMMETRY OF MOS IN SYMMETRY 6:   1 1 1 1 2 3 1 2 3 1   1 2 3 1 1 1 1 1 1 1   1 1 1 1 1 1 1 1
 EXTRA SYMMETRY OF MOS IN SYMMETRY 7:   1 1 1 1 2 3 1 3 2 1   1 2 3 1 1 1 1 1 1 1   1 1 1 1 1 1 1 1

 Natural orbital dump (state averaged) at molpro section  5202.2    (Orbital set 2)


 CI vector for state symmetry 1
 ==============================

 a 0 0           1.0000000

 TOTAL ENERGIES                       -53.79132339

 CI vector for state symmetry 2
 ==============================

 0 a 0           1.0000000

 TOTAL ENERGIES                       -53.79132339

 CI vector for state symmetry 3
 ==============================

 0 0 a           1.0000000

 TOTAL ENERGIES                       -53.79132339



 **********************************************************************************************************************************
 DATASETS  * FILE   NREC   LENGTH (MB)   RECORD NAMES
              1      20       27.48       500      610      700      900      950      970     1000      129      960     1100
                                          VAR    BASINP    GEOM    SYMINP    ZMAT    AOBASIS   BASIS     P2S    ABASIS      S
                                         1400     1410     1420     1200     1210     1080     1600     1650     1700     1380
                                           T        V       ECP      H0       H01     AOSYM     SMH    MOLCAS    OPER     JKOP

              2       5        6.69       700     1000      520     4202     5202
                                         GEOM     BASIS   MCVARS     RHF     MCSCF

 PROGRAMS   *        TOTAL     MULTI       POP       RHF       INT
 CPU TIMES  *       116.58      2.56      0.00      2.24    111.27
 REAL TIME  *       123.01 SEC
 DISK USED  *         4.97 GB
 SF USED    *        36.44 MB
 GA USED    *         0.00 MB       (max)       0.00 MB       (current)
 **********************************************************************************************************************************
   -->
   <time start="21:32:37" end="21:32:39" cpu="2.58" system="0.18" real="2.78"/>
   <storage units="megabyte" memory="8001.84" sf="36.44" df="303.5" eaf="4665.96" ga="0.0"/>
  </jobstep><!--
  --><jobstep command="RHF-SCF" commandset="SCFPRO">
   <!--


 PROGRAM * RHF-SCF (OPEN SHELL)       Authors: W. Meyer, H.-J. Werner


 NUMBER OF ELECTRONS:       5+    4-    SPACE SYMMETRY=2    SPIN SYMMETRY: Doublet
 CONVERGENCE THRESHOLDS:    1.00E-05 (Density)    1.00E-07 (Energy)
 MAX. NUMBER OF ITERATIONS:        0
 INTERPOLATION TYPE:            DIIS
 INTERPOLATION STEPS:              2 (START)      1 (STEP)
 LEVEL SHIFTS:                 -0.60 (CLOSED) -0.30 (OPEN)

 Number of closed-shell orbitals:    4 (   1   1   1   0   1   0   0   0 )
 Number of open-shell orbitals:      1 (   0   1   0   0   0   0   0   0 )


 Molecular orbitals read from record     5202.2  Type=MCSCF/NATURAL (state averaged)

 Molecular orbital dump at record        2101.2

 ITERATION    DDIFF          GRAD             ENERGY        2-EL.EN.            DIPOLE MOMENTS         DIIS   ORB.
    1      0.000D+00      0.000D+00       -53.79132339     43.883339    0.00000    0.00000    0.00000    0    start

 Final alpha occupancy:   1   2   1   0   1   0   0   0
 Final beta  occupancy:   1   1   1   0   1   0   0   0

 !RHF STATE 1.2 Energy                -53.791323390115
   --><property name="Energy" method="RHF" principal="true" stateSymmetry="2" stateNumber="1"
     value="-53.7913233901152"/><!--
 Nuclear energy                         0.00000000
 One-electron energy                  -75.73299313
 Two-electron energy                   21.94166974
 Virial quotient                       -3.70630088
 !RHF STATE 1.2 Dipole moment           0.00000000     0.00000000     0.00000000
 Dipole moment /Debye                   0.00000000     0.00000000     0.00000000
   --><property name="Dipole moment" method="RHF" principal="true" stateSymmetry="2"
     stateNumber="1" value="0.0 0.0 0.0"/><!--

 Orbital energies:

         1.1          2.1          3.1
     -4.937607    -1.366414    -1.366414

         1.2          2.2          3.2          4.2
     -3.457844    -0.988218    -0.540552    -0.540552

         1.3          2.3          3.3
     -3.457844    -0.988218    -0.540552

         1.4          2.4
     -1.366414    -0.610780

         1.5          2.5          3.5
     -3.457844    -0.988218    -0.540552

         1.6          2.6
     -1.366414    -0.610780

         1.7          2.7
     -1.366414    -0.610780

         1.8          2.8
     -0.540552    -0.222774

 HOMO      2.2    -0.988218 =     -26.8908eV
 LUMO      2.1    -1.366414 =     -37.1820eV
 LUMO-HOMO        -0.378196 =     -10.2912eV


 **********************************************************************************************************************************
 DATASETS  * FILE   NREC   LENGTH (MB)   RECORD NAMES
              1      20       27.48       500      610      700      900      950      970     1000      129      960     1100
                                          VAR    BASINP    GEOM    SYMINP    ZMAT    AOBASIS   BASIS     P2S    ABASIS      S
                                         1400     1410     1420     1200     1210     1080     1600     1650     1700     1380
                                           T        V       ECP      H0       H01     AOSYM     SMH    MOLCAS    OPER     JKOP

              2       6       10.15       700     1000      520     4202     5202     2101
                                         GEOM     BASIS   MCVARS     RHF     MCSCF     RHF

 PROGRAMS   *        TOTAL       RHF     MULTI       POP       RHF       INT
 CPU TIMES  *       116.70      0.11      2.56      0.00      2.24    111.27
 REAL TIME  *       123.17 SEC
 DISK USED  *         4.97 GB
 SF USED    *        36.44 MB
 GA USED    *         0.00 MB       (max)       0.00 MB       (current)
 **********************************************************************************************************************************
   -->
   <time start="21:32:39" end="21:32:40" cpu="0.12" system="0.03" real="0.16"/>
   <storage units="megabyte" memory="8001.84" sf="36.44" df="303.5" eaf="4665.96" ga="0.0"/>
  </jobstep><!--
 SETTING SCF(I)         =       -53.79132339  AU
 SETTING _CC_NORM_MAX   =         2.00000000
  --><jobstep command="RCCSD(T)" commandset="CCSD">
   <!--


 PROGRAM * CCSD (Restricted open-shell coupled cluster)     Authors: C. Hampel, H.-J. Werner, 1991, M. Deegan, P.J. Knowles, 1992


 Convergence thresholds:  THRVAR = 1.00D-08  THRDEN = 1.00D-06

 CCSD(T)     terms to be evaluated (factor= 1.000)


 Number of closed-shell orbitals:   4 (   1   1   1   0   1   0   0   0 )
 Number of active  orbitals:        1 (   0   1   0   0   0   0   0   0 )
 Number of external orbitals:     365 (  87  59  60  28  60  28  28  15 )

 Memory could be reduced to 74.19 Mwords without degradation in triples

 Number of N-1 electron functions:               9
 Number of N-2 electron functions:              36
 Number of singly external CSFs:               594
 Number of doubly external CSFs:            489300
 Total number of CSFs:                      489894

 Molecular orbitals read from record     2101.2  Type=RHF/CANONICAL (state 1.2)

 Integral transformation finished. Total CPU:   1.47 sec, npass=  1  Memory used:   9.89 MW

 Starting RMP2 calculation

 Wavefunction is spin-projected

 ITER.      SQ.NORM     CORR.ENERGY   TOTAL ENERGY   ENERGY CHANGE        DEN1      VAR(S)    VAR(P)  DIIS     TIME
   1      1.04110502    -0.24757711   -54.03890050    -0.24757711    -0.00177207  0.16D-05  0.38D-03  0  0     1.73
   2      1.04196593    -0.24934918   -54.04067257    -0.00177207    -0.00003504  0.25D-07  0.82D-05  0  0     1.80
   3      1.04208518    -0.24954795   -54.04087134    -0.00019877    -0.00000416  0.47D-09  0.30D-06  0  0     1.83
   4      1.04210512    -0.24958299   -54.04090638    -0.00003504    -0.00020353  0.17D-10  0.19D-07  0  0     1.87
   5      1.04210850    -0.24958672   -54.04091011    -0.00000373    -0.02160093  0.39D-11  0.47D-07  0  0     1.91
   6      1.04211315    -0.24959088   -54.04091427    -0.00000416    -2.29789296  0.18D-09  0.47D-05  0  0     1.95
   7      1.04252254    -0.24957096   -54.04089435     0.00001992  -244.45029503  0.20D-07  0.50D-03  0  0     1.99
   8      1.08609126    -0.24977449   -54.04109788    -0.00020353-26004.68152142  0.21D-05  0.53D-01  0  0     2.02
   9      5.72070899    -0.24768001   -54.03900340     0.00209448***************  0.22D-03  0.56D+01  0  0     2.06
  10    498.76164123    -0.26928094   -54.06060433    -0.02160093***************  0.24D-01  0.60D+03  0  0     2.10

 UNREASONABLE NORM:498.761641 CALCULATION WILL BE STOPPED

 The threshold can be changed using option CC_NORM_MAX (see manual). The current value is CC_NORM_MAX=2.00

 Norm of t1 vector:      0.14030570      S-energy:    -0.00054530      T1 diagnostic:  0.00262452
 Norm of t2 vector:     22.31013123      P-energy:    -0.26873563
                                         Alpha-Beta:  -0.20814137
                                         Alpha-Alpha: -0.03527083
                                         Beta-Beta:   -0.02532344

 Singles amplitudes (print threshold =  0.500E-01):

         I         SYM. A    A   T(IA) [Alpha-Alpha]

         1         1        63     -0.08577740

         I         SYM. A    A   T(IA) [Beta-Beta]

         1         1        63      0.08591242

 Spin contamination <S**2-Sz**2-Sz>     0.00000000


  Correlated core orbitals:             1.1       1.2       1.3       1.5
  Orbital energies:                    -4.9434   -3.4592   -3.4648   -3.4648

  RCCSD core-core energy               -0.242597232904
   --><property name="core-core energy" method="RCCSD" stateSymmetry="2" stateNumber="1"
     value="-0.242597232903996"/><!--
  RCCSD core-valence energy            -0.026683703860
   --><property name="core-valence energy" method="RCCSD" stateSymmetry="2" stateNumber="1"
     value="-0.26683703859505E-01"/><!--
  RCCSD valence correlation energy     -0.000000000000
   --><property name="valence correlation energy" method="RCCSD" stateSymmetry="2"
     stateNumber="1" value="-0.55764583067272E-18"/><!--


 RESULTS
 =======

  Reference energy                    -53.791323390115
   --><property name="energy" method="Reference" stateSymmetry="1" stateNumber="1"
     value="-53.7913233901154"/><!--
  RCCSD singles energy                 -0.000545304311
   --><property name="energy" method="RCCSD singles" stateSymmetry="1" stateNumber="1"
     value="-0.545304311140637E-03"/><!--
  RCCSD pair energy                    -0.268735632452
   --><property name="energy" method="RCCSD pair" stateSymmetry="1" stateNumber="1"
     value="-0.26873563245236"/><!--
  RCCSD correlation energy             -0.269280936764
   --><property name="energy" method="RCCSD correlation" stateSymmetry="1" stateNumber="1"
     value="-0.269280936763501"/><!--

 !RHF-RCCSD energy                    -54.060604326879
   --><property name="energy" method="RHF-RCCSD" principal="true" stateSymmetry="1"
     stateNumber="1" value="-54.0606043268789"/><!--

 Program statistics:

 Available memory in ccsd:               999999650
 Min. memory needed in ccsd:               1612776
 Max. memory used in ccsd:                 2142066
 Max. memory used in cckext:                     0 ( 0 integral passes)
 Max. memory used in cckint:               9894162 ( 1 integral passes)


 ? Error
 ? No convergence. This error exit can be avoided using the NOCHECK option
 ? The problem occurs in ccsd
   --><error type="Error" location="ccsd"
     message="No convergence. This error exit can be avoided using the NOCHECK option"/><!--
  --></jobstep><!--
  -->
  <input>
  <!--
 --></job><!--
--></molpro>
