<?xml version="1.0"?>
<molpro xmlns="http://www.molpro.net/schema/molpro-output"
  xmlns:xsd="http://www.w3.org/1999/XMLSchema"
  xmlns:cml="http://www.xml-cml.org/schema"
  xmlns:stm="http://www.xml-cml.org/schema"
  xmlns:xhtml="http://www.w3.org/1999/xhtml">
 <!--

 Nodes     nprocs
 nid02149     5
 Number of processes for MPI-2 version of Molpro:   nprocs(total)=    6   nprocs(compute)=    5   nprocs(helper)=    1

 Using customized tuning parameters: mindgm=7; mindgv=16; mindgc=1; mindgr=1; noblas=0; minvec=7
 default implementation of scratch files=sf

 --><job>
  <!--

 Variables initialized (889), CPU time= 0.02 sec
 Commands  initialized (702), CPU time= 0.01 sec, 572 directives.
 Default parameters read. Elapsed time= 0.15 sec

 Checking input...
 Passed
1


                                         ***  PROGRAM SYSTEM MOLPRO  ***
                                       Copyright, TTI GmbH Stuttgart, 2015
                                    Version 2015.1 linked Dec 29 2018 15:55:43


 **********************************************************************************************************************************
 LABEL *   Calculation for Gd atom, singlet and triplet
  64 bit mpp version                                                                     DATE: 17-Apr-23          TIME: 12:04:09
 **********************************************************************************************************************************

 SHA1:             19cd028119e0e09f93f0674bd8af7968d9b3eff6
 **********************************************************************************************************************************
  -->
  <!--

 THRESHOLDS:

 ZERO    =  1.00D-12  ONEINT  =  1.00D-12  TWOINT  =  1.00D-15  PREFAC  =  1.00D-14  LOCALI  =  1.00D-09  EORDER  =  1.00D-04
 ENERGY  =  0.00D+00  ETEST   =  0.00D+00  EDENS   =  0.00D+00  THRDEDEF=  1.00D-06  GRADIENT=  1.00D-02  STEP    =  1.00D-03
 ORBITAL =  1.00D-05  CIVEC   =  1.00D-05  COEFF   =  1.00D-04  PRINTCI =  5.00D-02  PUNCHCI =  9.90D+01  OPTGRAD =  3.00D-04
 OPTENERG=  1.00D-06  OPTSTEP =  3.00D-04  THRGRAD =  1.00D-10  COMPRESS=  1.00D-11  VARMIN  =  1.00D-07  VARMAX  =  1.00D-03
 THRDOUB =  0.00D+00  THRDIV  =  1.00D-05  THRRED  =  1.00D-07  THRPSP  =  1.00D+00  THRDC   =  1.00D-10  THRCS   =  1.00D-10
 THRNRM  =  1.00D-08  THREQ   =  0.00D+00  THRDE   =  1.00D+00  THRREF  =  1.00D-05  SPARFAC =  1.00D+00  THRDLP  =  1.00D-07
 THRDIA  =  1.00D-10  THRDLS  =  1.00D-07  THRGPS  =  0.00D+00  THRKEX  =  0.00D+00  THRDIS  =  2.00D-01  THRVAR  =  1.00D-10
 THRLOC  =  1.00D-06  THRGAP  =  1.00D-06  THRLOCT = -1.00D+00  THRGAPT = -1.00D+00  THRORB  =  1.00D-06  THRMLTP =  0.00D+00
 THRCPQCI=  1.00D-10  KEXTA   =  0.00D+00  THRCOARS=  0.00D+00  SYMTOL  =  1.00D-06  GRADTOL =  1.00D-06  THROVL  =  1.00D-08
 THRORTH =  1.00D-08  GRID    =  1.00D-06  GRIDMAX =  1.00D-03  DTMAX   =  0.00D+00  THROCCDE=  1.00D-01  THROCCDE=  1.00D-01



 THRESHOLDS:

 ZERO    =  1.00D-12  ONEINT  =  1.00D-15  TWOINT  =  1.00D-15  PREFAC  =  1.00D-14  LOCALI  =  1.00D-09  EORDER  =  1.00D-04
 ENERGY  =  0.00D+00  ETEST   =  0.00D+00  EDENS   =  0.00D+00  THRDEDEF=  1.00D-06  GRADIENT=  1.00D-02  STEP    =  1.00D-03
 ORBITAL =  1.00D-05  CIVEC   =  1.00D-05  COEFF   =  1.00D-04  PRINTCI =  5.00D-02  PUNCHCI =  9.90D+01  OPTGRAD =  3.00D-04
 OPTENERG=  1.00D-06  OPTSTEP =  3.00D-04  THRGRAD =  1.00D-10  COMPRESS=  1.00D-11  VARMIN  =  1.00D-07  VARMAX  =  1.00D-03
 THRDOUB =  0.00D+00  THRDIV  =  1.00D-05  THRRED  =  1.00D-07  THRPSP  =  1.00D+00  THRDC   =  1.00D-10  THRCS   =  1.00D-10
 THRNRM  =  1.00D-08  THREQ   =  0.00D+00  THRDE   =  1.00D+00  THRREF  =  1.00D-05  SPARFAC =  1.00D+00  THRDLP  =  1.00D-07
 THRDIA  =  1.00D-10  THRDLS  =  1.00D-07  THRGPS  =  0.00D+00  THRKEX  =  0.00D+00  THRDIS  =  2.00D-01  THRVAR  =  1.00D-10
 THRLOC  =  1.00D-06  THRGAP  =  1.00D-06  THRLOCT = -1.00D+00  THRGAPT = -1.00D+00  THRORB  =  1.00D-06  THRMLTP =  0.00D+00
 THRCPQCI=  1.00D-10  KEXTA   =  0.00D+00  THRCOARS=  0.00D+00  SYMTOL  =  1.00D-06  GRADTOL =  1.00D-06  THROVL  =  1.00D-08
 THRORTH =  1.00D-08  GRID    =  1.00D-06  GRIDMAX =  1.00D-03  DTMAX   =  0.00D+00  THROCCDE=  1.00D-01  THROCCDE=  1.00D-01


 SETTING DKROLL         =         1.00000000
 SETTING DKHO           =        10.00000000
 SETTING DKHP           =         4.00000000

Geometry recognized as XYZ


 Variable memory set to 2000000000 words,  buffer space   230000 words

 SETTING BASIS          =    USERDEF

 DO I                   =        15.00000000

 Running procedure=XP
  --><jobstep command="RHF-SCF" commandset="SCFPRO">
   <!--


 Recomputing integrals since basis changed


 Using spherical harmonics



 PROGRAM * SEWARD (Integral evaluation for generally contracted gaussian basis sets)     Author: Roland Lindh, 1990

 Geometry written to block  1 of record 700

 Orientation using atomic masses
 Molecule type: Atom
 Symmetry elements: X,Y,Z
 Rotational constants:       0.0000000      0.0000000      0.0000000 GHz  (calculated with average atomic masses)

 Point group  D2h


   --><cml:molecule>
    <cml:symmetry pointGroup="D2h"/>
    <cml:atomArray>
     <cml:atom id="a1" elementType="Lu" x3="0.0" y3="0.0" z3="0.0"/>
    </cml:atomArray>
    <cml:bondArray>
    </cml:bondArray>
   </cml:molecule><!--

 ATOMIC COORDINATES

 NR  ATOM    CHARGE       X              Y              Z

   1  LU     71.00    0.000000000    0.000000000    0.000000000

 NUCLEAR CHARGE:                   71
 NUMBER OF PRIMITIVE AOS:         463
 NUMBER OF SYMMETRY AOS:          341
 NUMBER OF CONTRACTIONS:          341   (  77Ag  +  54B3u +  54B2u +  28B1g +  54B1u +  28B2g +  28B3g +  18Au  )
 NUMBER OF CORE ORBITALS:          23   (   8Ag  +   3B3u +   3B2u +   2B1g +   3B1u +   2B2g +   2B3g +   0Au  )
 NUMBER OF VALENCE ORBITALS:       17   (   4Ag  +   3B3u +   3B2u +   1B1g +   3B1u +   1B2g +   1B3g +   1Au  )


 NUCLEAR REPULSION ENERGY    0.00000000

 One-electron integrals computed with SEWARD

 10nd-order Douglas-Kroll-Hess method activated. McWeeny DKH parametrization is used.

 Computing Douglas-Kroll / X2C integrals

 AO integral compression algorithm  1   Integral accuracy      1.0D-15

     1449.132 MB (compressed) written to integral file ( 50.0%)

     Node minimum: 240.386 MB, node maximum: 332.923 MB


 NUMBER OF SORTED TWO-ELECTRON INTEGRALS:   43453828.     BUFFER LENGTH:  32768
 NUMBER OF SEGMENTS:   2  SEGMENT LENGTH:   31992154      RECORD LENGTH: 524288

 Memory used in sort:      32.55 MW

 SORT1 READ   362089039. AND WROTE    27100999. INTEGRALS IN     78 RECORDS. CPU TIME:     8.23 SEC, REAL TIME:     8.73 SEC
 SORT2 READ   135657945. AND WROTE   217701552. INTEGRALS IN   6350 RECORDS. CPU TIME:     3.13 SEC, REAL TIME:     3.70 SEC

 Node minimum:    43453828.  Node maximum:    43660745. integrals

 OPERATOR DM      FOR CENTER  0  COORDINATES:    0.000000    0.000000    0.000000

 EXTRA SYMMETRY OF AOS IN SYMMETRY 1:   1 1 1 1 1 1 1 1 1 1   1 1 1 1 1 1 1 1 1 1   1 1 1 1 1 1 1 2 3 2   3 2 3 2 3 2 3 2 3 2
                                        3 2 3 2 3 2 3 2 3 2   3 2 3 2 3 2 3 2 3 4   5 6 4 5 6 4 5 6 4 5   6 4 5 6 4 5 6
 EXTRA SYMMETRY OF AOS IN SYMMETRY 2:   1 1 1 1 1 1 1 1 1 1   1 1 1 1 1 1 1 1 1 1   1 1 2 3 2 3 2 3 2 3   2 3 2 3 2 3 2 3 2 3
                                        2 3 4 5 6 4 5 6 4 5   6 4 5 6
 EXTRA SYMMETRY OF AOS IN SYMMETRY 3:   1 1 1 1 1 1 1 1 1 1   1 1 1 1 1 1 1 1 1 1   1 1 2 3 2 3 2 3 2 3   2 3 2 3 2 3 2 3 2 3
                                        2 3 4 5 6 4 5 6 4 5   6 4 5 6
 EXTRA SYMMETRY OF AOS IN SYMMETRY 4:   1 1 1 1 1 1 1 1 1 1   1 1 1 1 1 1 2 3 2 3   2 3 2 3 2 3 2 3
 EXTRA SYMMETRY OF AOS IN SYMMETRY 5:   1 1 1 1 1 1 1 1 1 1   1 1 1 1 1 1 1 1 1 1   1 1 2 3 2 3 2 3 2 3   2 3 2 3 2 3 2 3 2 3
                                        2 3 4 5 6 4 5 6 4 5   6 4 5 6
 EXTRA SYMMETRY OF AOS IN SYMMETRY 6:   1 1 1 1 1 1 1 1 1 1   1 1 1 1 1 1 2 3 2 3   2 3 2 3 2 3 2 3
 EXTRA SYMMETRY OF AOS IN SYMMETRY 7:   1 1 1 1 1 1 1 1 1 1   1 1 1 1 1 1 2 3 2 3   2 3 2 3 2 3 2 3
 EXTRA SYMMETRY OF AOS IN SYMMETRY 8:   1 1 1 1 1 1 1 1 1 1   2 3 2 3 2 3 2 3

 Eigenvalues of metric

         1 0.198E-06 0.285E-05 0.880E-05 0.110E-03 0.147E-03 0.147E-03 0.226E-03 0.428E-03
         2 0.115E-06 0.864E-04 0.280E-03 0.685E-03 0.202E-02 0.951E-02 0.162E-01 0.364E-01
         3 0.115E-06 0.864E-04 0.280E-03 0.685E-03 0.202E-02 0.951E-02 0.162E-01 0.364E-01
         4 0.147E-03 0.324E-02 0.233E-01 0.406E-01 0.866E-01 0.997E-01 0.997E-01 0.141E+00
         5 0.115E-06 0.864E-04 0.280E-03 0.685E-03 0.202E-02 0.951E-02 0.162E-01 0.364E-01
         6 0.147E-03 0.324E-02 0.233E-01 0.406E-01 0.866E-01 0.997E-01 0.997E-01 0.141E+00
         7 0.147E-03 0.324E-02 0.233E-01 0.406E-01 0.866E-01 0.997E-01 0.997E-01 0.141E+00
         8 0.437E-01 0.880E-01 0.207E+00 0.366E+00 0.366E+00 0.370E+00 0.551E+00 0.646E+00


 **********************************************************************************************************************************
 DATASETS  * FILE   NREC   LENGTH (MB)   RECORD NAMES
              1      22       21.15       500      610      700      900      950      970     1000      129      960     1700
                                          VAR    BASINP    GEOM    SYMINP    ZMAT    AOBASIS   BASIS     P2S    ABASIS    OPER
                                         1101     1401     1411     1412     1650     1100     1400     1410     1200     1210
                                          SR      EKINR    POTR     PVPR    MOLCAS      S      EKIN      POT      H0       H01
                                         1080     1600
                                         AOSYM     SMH

 PROGRAMS   *        TOTAL       INT
 CPU TIMES  *        41.14     40.68
 REAL TIME  *        44.35 SEC
 DISK USED  *         3.06 GB
 GA USED    *         0.00 MB       (max)       0.00 MB       (current)
 **********************************************************************************************************************************


 PROGRAM * RHF-SCF (OPEN SHELL)       Authors: W. Meyer, H.-J. Werner


 NUMBER OF ELECTRONS:      32+   31-    SPACE SYMMETRY=2    SPIN SYMMETRY: Doublet
 CONVERGENCE THRESHOLDS:    1.00E-05 (Density)    1.42E-07 (Energy)
 MAX. NUMBER OF ITERATIONS:       60
 INTERPOLATION TYPE:            DIIS
 INTERPOLATION STEPS:              2 (START)      1 (STEP)
 LEVEL SHIFTS:                 -0.60 (CLOSED) -0.30 (OPEN)

 Number of closed-shell orbitals:   31 (   9   5   5   2   5   2   2   1 )
 Number of open-shell orbitals:      1 (   0   1   0   0   0   0   0   0 )



 Extra symmetries of mos in symmetry 2:   1   1   1   3   2   1
 Extra symmetries of mos in symmetry 3:   1   1   1   3   2   1
 Extra symmetries of mos in symmetry 5:   1   1   1   3   2   1
 Orbital guess generated from atomic densities. Full valence occupancy:   12   6   6   3   6   3   3   1


 Molecular orbital dump at record        4202.2

 ITERATION    DDIFF          GRAD             ENERGY        2-EL.EN.            DIPOLE MOMENTS         DIIS   ORB.
    1      0.000D+00      0.000D+00    -14539.40331610  10170.275198    0.00000    0.00000    0.00000    0    start
    2      0.000D+00      0.474D-01    -14540.07224557  10405.785118    0.00000    0.00000    0.00000    1    diag,B
    3      0.536D-01      0.514D-01    -14540.42485217  10315.081877    0.00000    0.00000    0.00000    2    diag,B
    4      0.325D-01      0.578D-02    -14540.44415911  10304.169990    0.00000    0.00000    0.00000    3    diag,B
    5      0.821D-02      0.186D-02    -14534.24639412  10117.540014    0.00000    0.00000    0.00000    4    diag,B
    6      0.535D-01      0.332D-01    -14534.25968402  10119.424178    0.00000    0.00000    0.00000    5    diag,B
    7      0.294D-03      0.325D-01    -14534.32530134  10128.604731    0.00000    0.00000    0.00000    6    fixocc
    8      0.267D-02      0.294D-01    -14534.34006616  10130.944022    0.00000    0.00000    0.00000    7    diag,B
    9      0.195D-02      0.286D-01    -14534.34781156  10132.231501    0.00000    0.00000    0.00000    8    diag,B
   10      0.574D-03      0.282D-01    -14534.34796198  10132.283499    0.00000    0.00000    0.00000    9    orth
   11      0.173D-03      0.282D-01    -14534.34846985  10132.409907    0.00000    0.00000    0.00000    9    diag,B
   12      0.253D-03      0.282D-01    -14534.35876059  10134.058008    0.00000    0.00000    0.00000    9    diag,B
   13      0.453D-03      0.276D-01    -14534.34689392  10132.065286    0.00000    0.00000    0.00000    9    diag,B
     Orbital  5.2 strongly deviates from fixed occupation: 1.43205  (now: 2.00)
     Note:  Use {hf,nitord=N} to fix occupations at iteration N
            Use {gthresh,occdev=1.0} to suppress deviation warnings
   14      0.669D-03      0.284D-01    -14540.46306794  10308.711407    0.00000    0.00000    0.00000    9    diag,B
   15      0.562D-01      0.212D-02    -14540.47074053  10305.494400    0.00000    0.00000    0.00000    9    diag,B
   16      0.113D-02      0.189D-02    -14540.43720472  10311.043033    0.00000    0.00000    0.00000    9    diag,B
   17      0.535D-02      0.172D-02    -14540.42532869  10306.002702    0.00000    0.00000    0.00000    9    diag,B
   18      0.321D-02      0.953D-03    -14540.42432800  10305.829367    0.00000    0.00000    0.00000    9    diag,B
   19      0.197D-02      0.804D-03    -14540.42485096  10307.308064    0.00000    0.00000    0.00000    9    diag,B
   20      0.527D-03      0.363D-03    -14540.42423256  10309.391154    0.00000    0.00000    0.00000    9    orth
   21      0.109D-02      0.759D-03    -14540.42407620  10308.410455    0.00000    0.00000    0.00000    9    diag,B
   22      0.700D-03      0.328D-03    -14540.42413205  10307.782400    0.00000    0.00000    0.00000    9    diag,B
   23      0.265D-03      0.111D-03    -14540.42409457  10307.617291    0.00000    0.00000    0.00000    9    diag,B
   24      0.133D-03      0.658D-04    -14540.42404738  10307.605126    0.00000    0.00000    0.00000    9    diag,B
   25      0.256D-03      0.322D-04    -14540.42404921  10307.616485    0.00000    0.00000    0.00000    9    diag,B
   26      0.171D-04      0.312D-04    -14540.42404053  10307.636176    0.00000    0.00000    0.00000    9    diag,B
   27      0.103D-03      0.921D-05    -14540.42404064  10307.647836    0.00000    0.00000    0.00000    9    diag,B
   28      0.218D-04      0.850D-05    -14540.42404033  10307.646529    0.00000    0.00000    0.00000    9    diag,B
   29      0.114D-04      0.616D-05    -14540.42403998  10307.647363    0.00000    0.00000    0.00000    9    diag,B
   30      0.206D-04      0.160D-05    -14540.42403996  10307.649073    0.00000    0.00000    0.00000    9    orth
   31      0.566D-05      0.113D-05    -14540.42404015  10307.649496    0.00000    0.00000    0.00000    0    orth

 Final alpha occupancy:   9   6   5   2   5   2   2   1
 Final beta  occupancy:   9   5   5   2   5   2   2   1

 !RHF STATE 1.2 Energy               -14540.4240401503
   --><property name="Energy" method="RHF" principal="true" stateSymmetry="2" stateNumber="1"
     value="-14540.4240401503"/><!--
 Nuclear energy                         0.00000000
 One-electron energy               -19694.24878808
 Two-electron energy                 5153.82474793
 Virial quotient                       -0.73488843
 !RHF STATE 1.2 Dipole moment           0.00000000     0.00000000     0.00000000
 Dipole moment /Debye                   0.00000000     0.00000000     0.00000000
   --><property name="Dipole moment" method="RHF" principal="true" stateSymmetry="2"
     stateNumber="1" value="0.0 0.0 0.0"/><!--

 ELECTRON ORBITALS
 =================


   Orb  Occ    Energy  Couls-En    Coefficients

                                   1 1s      1 1s      1 1s      1 1s      1 1s      1 1s      1 1s      1 1s      1 1s      1 1s
                                   1 1s      1 1s      1 1s      1 1s      1 1s      1 1s      1 1s      1 1s      1 1s      1 1s
                                   1 1s      1 1s      1 1s      1 1s      1 1s      1 1s      1 1s      1 3d0     1 3d2+    1 3d0
                                   1 3d2+    1 3d0     1 3d2+    1 3d0     1 3d2+    1 3d0     1 3d2+    1 3d0     1 3d2+    1 3d0
                                   1 3d2+    1 3d0     1 3d2+    1 3d0     1 3d2+    1 3d0     1 3d2+    1 3d0     1 3d2+    1 3d0
                                   1 3d2+    1 3d0     1 3d2+    1 3d0     1 3d2+    1 3d0     1 3d2+    1 3d0     1 3d2+    1 5g0
                                   1 5g4+    1 5g2+    1 5g0     1 5g4+    1 5g2+    1 5g0     1 5g4+    1 5g2+    1 5g0     1 5g4+
                                   1 5g2+    1 5g0     1 5g4+    1 5g2+    1 5g0     1 5g4+    1 5g2+

   1.1   2 -2343.7147-5060.3459  0.001174  0.003283  0.009326  0.023783  0.058911  0.137442  0.014876  0.274171  0.517483 -0.099128
                                 0.260937 -0.045244  0.082246 -0.042158  0.545379 -0.567325  0.098975 -0.109754  0.051666 -0.011011
                                 0.005844 -0.003155  0.001218 -0.000569  0.000279 -0.000080  0.000017  0.000000 -0.000000 -0.000000
                                 0.000000 -0.000000  0.000000  0.000000 -0.000000  0.000000 -0.000000  0.000000 -0.000000 -0.000000
                                 0.000001  0.000000 -0.000000 -0.000000  0.000000  0.000000 -0.000000  0.000000 -0.000000  0.000000
                                -0.000000 -0.000000  0.000000  0.000000 -0.000000 -0.000000  0.000000  0.000000 -0.000000 -0.000000
                                -0.000000  0.000000  0.000000  0.000000 -0.000000 -0.000000 -0.000000  0.000000  0.000000  0.000000
                                -0.000000 -0.000000 -0.000000  0.000000  0.000000  0.000000 -0.000000

   2.1   2  -407.5658-1096.4272 -0.000439 -0.001232 -0.003516 -0.009095 -0.022983 -0.057155  0.001449 -0.137420 -0.081613 -0.165256
                                -0.101299  0.535507  0.020304  0.560387 -0.171827  0.250436 -0.135029  0.167169 -0.084473  0.019544
                                -0.010801  0.005944 -0.002325  0.001095 -0.000539  0.000154 -0.000033 -0.000000  0.000000  0.000000
                                -0.000000  0.000002 -0.000003  0.000007 -0.000013  0.000000 -0.000001 -0.000001  0.000001  0.000002
                                -0.000003 -0.000000  0.000000  0.000001 -0.000001 -0.000001  0.000001 -0.000001  0.000001 -0.000000
                                 0.000000 -0.000000  0.000000  0.000000 -0.000000 -0.000000  0.000000  0.000000 -0.000000  0.000000
                                 0.000000 -0.000000 -0.000000 -0.000000  0.000000  0.000000  0.000000 -0.000000 -0.000000 -0.000000
                                 0.000000  0.000000  0.000000 -0.000000 -0.000000 -0.000000  0.000000

   3.1   2   -97.8548 -389.4789  0.000207  0.000582  0.001661  0.004309  0.010907  0.027545 -0.002600  0.069945 -0.007361  0.135677
                                 0.038703 -0.355696 -0.192583 -0.452754  4.523908 -3.734488  1.118375 -0.932165  0.445936 -0.093230
                                 0.051538 -0.028460  0.011206 -0.005303  0.002616 -0.000747  0.000162  0.000000 -0.000000  0.000001
                                -0.000002  0.000005 -0.000009  0.000013 -0.000022  0.000036 -0.000063  0.000069 -0.000120  0.000017
                                -0.000030  0.000026 -0.000045  0.000000 -0.000000  0.000011 -0.000019  0.000008 -0.000014  0.000001
                                -0.000002 -0.000000  0.000000  0.000000 -0.000000 -0.000000  0.000000  0.000000 -0.000000  0.000000
                                 0.000000 -0.000000 -0.000000 -0.000000  0.000000  0.000000  0.000000 -0.000000 -0.000000 -0.000000
                                 0.000000  0.000000  0.000000 -0.000000 -0.000000 -0.000000  0.000000

   4.1   2   -65.1228 -333.7543 -0.000000 -0.000000 -0.000000 -0.000000 -0.000000 -0.000000  0.000000 -0.000000  0.000000 -0.000000
                                -0.000000  0.000000  0.000000  0.000000 -0.000000  0.000000 -0.000000  0.000000 -0.000000  0.000000
                                -0.000000  0.000000 -0.000000  0.000000 -0.000000  0.000000 -0.000000  0.001203  0.000694  0.009717
                                 0.005609  0.048965  0.028268  0.160042  0.092392  0.326514  0.188496  0.359876  0.207756  0.003390
                                 0.001957  0.142555  0.082297 -0.001255 -0.000724  0.008491  0.004902 -0.001799 -0.001039  0.001082
                                 0.000625 -0.000502 -0.000290  0.000172  0.000099 -0.000085 -0.000049  0.000026  0.000015  0.000028
                                -0.000033 -0.000025 -0.000004  0.000004  0.000003  0.000010 -0.000011 -0.000009 -0.000002  0.000002
                                 0.000002  0.000001 -0.000001 -0.000001 -0.000000  0.000000  0.000000

   5.1   2   -65.1087 -333.7458  0.000000  0.000000  0.000001  0.000002  0.000004  0.000010 -0.000001  0.000026 -0.000007  0.000055
                                 0.000014 -0.000133 -0.000099 -0.000183  0.004316 -0.003936  0.000635 -0.000721  0.000203 -0.000106
                                 0.000066 -0.000015  0.000011 -0.000004  0.000002 -0.000001  0.000000 -0.000695  0.001203 -0.005610
                                 0.009717 -0.028269  0.048968 -0.092399  0.160053 -0.188514  0.326544 -0.207770  0.359900 -0.001923
                                 0.003331 -0.082311  0.142580  0.000750 -0.001299 -0.004888  0.008467  0.001043 -0.001807 -0.000625
                                 0.001082  0.000290 -0.000502 -0.000099  0.000172  0.000049 -0.000085 -0.000015  0.000026 -0.000029
                                -0.000057  0.000043  0.000003  0.000007 -0.000005 -0.000010 -0.000020  0.000015  0.000002  0.000004
                                -0.000003 -0.000001 -0.000002  0.000001  0.000000  0.000001 -0.000000

   6.1   2   -24.0518 -169.2079 -0.000101 -0.000283 -0.000807 -0.002095 -0.005303 -0.013456  0.001622 -0.034781  0.012625 -0.076616
                                -0.016776  0.183670  0.137858  0.250057 -3.349938  2.395002 -0.907014  0.872536  0.557328  0.580741
                                -0.078112  0.057138 -0.023066  0.011144 -0.005541  0.001589 -0.000345 -0.000001  0.000001 -0.000006
                                 0.000011 -0.000033  0.000057 -0.000106  0.000183 -0.000219  0.000380 -0.000189  0.000327  0.000011
                                -0.000020  0.000022 -0.000038  0.000189 -0.000327  0.001166 -0.002019  0.000106 -0.000183 -0.000085
                                 0.000148  0.000026 -0.000045 -0.000008  0.000015  0.000004 -0.000007 -0.000001  0.000002 -0.000000
                                -0.000000  0.000000  0.000001  0.000001 -0.000001  0.000001  0.000003 -0.000002 -0.000000 -0.000000
                                 0.000000 -0.000000 -0.000000  0.000000  0.000000  0.000000 -0.000000

   7.1   2   -12.5618 -137.3326  0.000000  0.000000  0.000000  0.000000  0.000000  0.000000 -0.000000  0.000000 -0.000000  0.000000
                                 0.000000 -0.000000 -0.000000 -0.000000  0.000001 -0.000000  0.000000 -0.000000  0.000000  0.000000
                                -0.000000 -0.000000 -0.000000  0.000000 -0.000000 -0.000000  0.000000 -0.000584 -0.000337 -0.004804
                                -0.002774 -0.024229 -0.013988 -0.082056 -0.047374 -0.161366 -0.093163 -0.178051 -0.102796  0.120127
                                 0.069354 -0.059974 -0.034625  0.407329  0.235168  0.448819  0.259121  0.136968  0.079077 -0.010974
                                -0.006336  0.006163  0.003558 -0.002066 -0.001193  0.001013  0.000585 -0.000302 -0.000175  0.000044
                                -0.000052 -0.000040  0.000130 -0.000154 -0.000117  0.000547 -0.000647 -0.000489  0.000149 -0.000176
                                -0.000133 -0.000026  0.000031  0.000024  0.000008 -0.000009 -0.000007

   8.1   2   -12.5181 -137.3494 -0.000000 -0.000001 -0.000003 -0.000008 -0.000020 -0.000051  0.000007 -0.000133  0.000061 -0.000305
                                -0.000061  0.000696  0.000570  0.000962 -0.011637  0.007109 -0.002120  0.000299  0.009188 -0.003185
                                -0.003401  0.003681  0.000053  0.000083 -0.000043  0.000013 -0.000003  0.000338 -0.000585  0.002777
                                -0.004811  0.014003 -0.024254  0.047438 -0.082166  0.093244 -0.161506  0.103182 -0.178719 -0.070136
                                 0.121482  0.035643 -0.061736 -0.236652  0.409900 -0.258233  0.447282 -0.078873  0.136615  0.005777
                                -0.010006 -0.003431  0.005942  0.001151 -0.001994 -0.000565  0.000979  0.000169 -0.000292 -0.000048
                                -0.000094  0.000071 -0.000138 -0.000271  0.000205 -0.000570 -0.001124  0.000850 -0.000158 -0.000312
                                 0.000236  0.000027  0.000053 -0.000040 -0.000008 -0.000016  0.000012

   9.1   2    -6.5723  -75.7845  0.000043  0.000120  0.000342  0.000889  0.002249  0.005715 -0.000734  0.014846 -0.006537  0.033857
                                 0.006843 -0.078569 -0.064201 -0.108796  1.537850 -1.031047  0.381881 -0.333703 -0.659495 -0.660506
                                 0.546342  0.856373  0.177376 -0.028662  0.012760 -0.003453  0.000729 -0.000000  0.000000 -0.000002
                                 0.000003 -0.000007  0.000013 -0.000029  0.000049 -0.000046  0.000081 -0.000140  0.000242  0.000225
                                -0.000390 -0.000343  0.000595  0.000646 -0.001119 -0.000361  0.000625  0.000486 -0.000842 -0.001292
                                 0.002238 -0.000179  0.000310  0.000017 -0.000030 -0.000008  0.000013  0.000002 -0.000004  0.000001
                                 0.000001 -0.000001  0.000000  0.000001 -0.000000  0.000005  0.000009 -0.000007 -0.000005 -0.000011
                                 0.000008 -0.000004 -0.000008  0.000006  0.000001  0.000002 -0.000001

  10.1   0    -3.2330  -52.7049  0.000000  0.000001  0.000002  0.000004  0.000011  0.000028 -0.000003  0.000073 -0.000024  0.000160
                                 0.000036 -0.000399 -0.000294 -0.000570  0.006546 -0.004089  0.002875 -0.002874 -0.001860 -0.009611
                                 0.002932  0.033490 -0.026388 -0.010467  0.002210 -0.000503  0.000099 -0.000114  0.000198 -0.000937
                                 0.001623 -0.004757  0.008240 -0.016074  0.027842 -0.031872  0.055205 -0.032323  0.055986  0.022525
                                -0.039015 -0.001187  0.002056  0.087853 -0.152168  0.103520 -0.179305 -0.102826  0.178103 -0.336524
                                 0.582890 -0.127021  0.220012 -0.002622  0.004542  0.000756 -0.001309 -0.000200  0.000347  0.000014
                                 0.000028 -0.000021 -0.000059 -0.000117  0.000088  0.000199  0.000393 -0.000297 -0.002075 -0.004092
                                 0.003093 -0.002296 -0.004529  0.003423  0.000206  0.000407 -0.000308

  11.1   0    -3.2014  -52.1534 -0.000000 -0.000000 -0.000000 -0.000000 -0.000000 -0.000000  0.000000 -0.000000  0.000000 -0.000000
                                -0.000000  0.000000  0.000000  0.000000 -0.000001  0.000000 -0.000000  0.000000  0.000001  0.000000
                                -0.000001 -0.000000  0.000000  0.000000 -0.000000  0.000000 -0.000000  0.000194  0.000112  0.001589
                                 0.000918  0.008068  0.004658  0.027271  0.015745  0.054020  0.031188  0.054992  0.031749 -0.038758
                                -0.022377  0.002824  0.001630 -0.149136 -0.086102 -0.174774 -0.100904  0.166428  0.096085  0.578544
                                 0.334015  0.233990  0.135091  0.004610  0.002662 -0.001205 -0.000695  0.000310  0.000179 -0.000033
                                 0.000040  0.000030  0.000035 -0.000041 -0.000031 -0.000293  0.000346  0.000262  0.001713 -0.002027
                                -0.001531  0.002184 -0.002584 -0.001953 -0.000185  0.000219  0.000166

                                   1 2px     1 2px     1 2px     1 2px     1 2px     1 2px     1 2px     1 2px     1 2px     1 2px
                                   1 2px     1 2px     1 2px     1 2px     1 2px     1 2px     1 2px     1 2px     1 2px     1 2px
                                   1 2px     1 2px     1 4f1+    1 4f3+    1 4f1+    1 4f3+    1 4f1+    1 4f3+    1 4f1+    1 4f3+
                                   1 4f1+    1 4f3+    1 4f1+    1 4f3+    1 4f1+    1 4f3+    1 4f1+    1 4f3+    1 4f1+    1 4f3+
                                   1 4f1+    1 4f3+    1 6h1+    1 6h3+    1 6h5+    1 6h1+    1 6h3+    1 6h5+    1 6h1+    1 6h3+
                                   1 6h5+    1 6h1+    1 6h3+    1 6h5+

   1.2   2  -359.7652-1012.4074  0.000490  0.002254  0.009493  0.037002  0.123704  0.294238  0.011898  0.439650  0.298835 -0.055369
                                 0.064966 -0.840255  0.860273 -0.054028  0.006481 -0.004102  0.003096 -0.000878  0.000383 -0.000181
                                 0.000067 -0.000015  0.000005 -0.000007  0.000002 -0.000002  0.000000 -0.000001  0.000000 -0.000000
                                -0.000000  0.000000  0.000000 -0.000000 -0.000000  0.000000  0.000000 -0.000000 -0.000000  0.000000
                                 0.000000 -0.000000 -0.000000  0.000000 -0.000000 -0.000000 -0.000000 -0.000000 -0.000000  0.000000
                                -0.000000  0.000000 -0.000000  0.000000

   2.2   2   -83.1792 -361.9206 -0.000248 -0.001143 -0.004874 -0.019185 -0.067134 -0.155460 -0.025293 -0.242070 -0.127229  0.325970
                                 0.591521  0.230620  0.038336  0.010621  0.014085 -0.007074  0.005607 -0.001671  0.000740 -0.000353
                                 0.000131 -0.000029 -0.000000  0.000000  0.000021 -0.000028  0.000041 -0.000052  0.000013 -0.000017
                                 0.000010 -0.000013  0.000000 -0.000000  0.000001 -0.000001 -0.000000  0.000001  0.000000 -0.000000
                                -0.000000  0.000000 -0.000000  0.000000 -0.000000 -0.000000  0.000000 -0.000000  0.000000 -0.000000
                                 0.000000 -0.000000  0.000000 -0.000000

   3.2   2   -19.1139 -155.5477  0.000119  0.000548  0.002345  0.009246  0.032733  0.074761  0.015398  0.117502  0.054461 -0.222447
                                -0.482023  1.347510 -1.611831  0.640119  0.622322  0.210095 -0.065330  0.017353 -0.006620  0.003065
                                -0.001127  0.000250  0.000009 -0.000012  0.000059 -0.000076  0.000206 -0.000265  0.000449 -0.000579
                                 0.001096 -0.001414  0.000157 -0.000203 -0.000069  0.000089  0.000028 -0.000037 -0.000008  0.000010
                                 0.000002 -0.000003  0.000000 -0.000000  0.000000  0.000001 -0.000001  0.000002  0.000000 -0.000000
                                 0.000000 -0.000000  0.000000 -0.000000

   4.2   2    -5.1612 -109.8573 -0.000004 -0.000017 -0.000073 -0.000290 -0.001025 -0.002374 -0.000450 -0.003729 -0.001399  0.007075
                                 0.017835 -0.118550  0.132973 -0.036862 -0.029002 -0.013293  0.058200  0.050213  0.002239  0.000317
                                -0.000161  0.000039 -0.005193  0.006704 -0.034502  0.044537 -0.114370  0.147633 -0.213865  0.276064
                                -0.245587  0.317012 -0.176944  0.228406 -0.051299  0.066219  0.002807 -0.003623 -0.001130  0.001458
                                 0.000321 -0.000415 -0.000011  0.000012 -0.000016 -0.000611  0.000660 -0.000885 -0.001282  0.001385
                                -0.001858 -0.000043  0.000047 -0.000063

   5.2   2    -5.1871 -110.0991  0.000000  0.000000  0.000001  0.000003  0.000010  0.000024  0.000004  0.000037  0.000014 -0.000070
                                -0.000179  0.001197 -0.001344  0.000369  0.000286  0.000111 -0.000556 -0.000424 -0.000010 -0.000005
                                 0.000002 -0.000000  0.006713  0.005201  0.044596  0.034553  0.147840  0.114546  0.276436  0.214182
                                 0.318088  0.246453  0.230445  0.178550  0.066565  0.051576 -0.003739 -0.002897  0.001472  0.001140
                                -0.000418 -0.000324  0.000011 -0.000005 -0.000012  0.000664 -0.000307 -0.000687  0.001397 -0.000647
                                -0.001447  0.000046 -0.000021 -0.000047

   6.2   +    -5.4075  -68.0039 -0.000048 -0.000220 -0.000941 -0.003716 -0.013153 -0.030494 -0.005741 -0.047876 -0.017875  0.090185
                                 0.228245 -1.513527  1.699584 -0.469516 -0.366975 -0.147314  0.714245  0.546418  0.012715  0.006109
                                -0.002633  0.000604  0.000449 -0.000569  0.002979 -0.003773  0.009873 -0.012507  0.018567 -0.023522
                                 0.020990 -0.026583  0.016219 -0.020564  0.005160 -0.006552 -0.000379  0.000483  0.000136 -0.000173
                                -0.000039  0.000050 -0.000004  0.000005 -0.000006  0.000025 -0.000027  0.000035  0.000010 -0.000010
                                 0.000012 -0.000000  0.000000 -0.000000

   7.2   0    -2.3147  -34.2306  0.000024  0.000111  0.000473  0.001871  0.006617  0.015481  0.002719  0.024278  0.007999 -0.044427
                                -0.120656  0.999876 -1.114612  0.278132  0.193542  0.127702 -0.628662 -0.539590  1.125831  0.298016
                                -0.029747  0.004995 -0.000034  0.000044 -0.000225  0.000290 -0.000743  0.000958 -0.001393  0.001799
                                -0.001200  0.001549 -0.001755  0.002264  0.005912 -0.007633  0.017127 -0.022110  0.002711 -0.003499
                                -0.000404  0.000522  0.000002 -0.000002  0.000003  0.000006 -0.000006  0.000009  0.000050 -0.000054
                                 0.000072  0.000150 -0.000163  0.000218

   8.2   0    -1.9175  -35.6864  0.000000  0.000000  0.000000  0.000000  0.000000  0.000000  0.000000  0.000000  0.000000 -0.000000
                                -0.000000  0.000004 -0.000005  0.000001  0.000000 -0.000000 -0.000001  0.000002 -0.000001 -0.000002
                                 0.000000 -0.000000 -0.001994 -0.001545 -0.013001 -0.010070 -0.044082 -0.034143 -0.077190 -0.059786
                                -0.087386 -0.067683  0.008812  0.006825  0.193034  0.149510  0.526085  0.407469  0.168824  0.130759
                                -0.022942 -0.017769  0.000008 -0.000004 -0.000008 -0.000181  0.000084  0.000188  0.000924 -0.000428
                                -0.000957  0.005184 -0.002400 -0.005366

                                   1 2py     1 2py     1 2py     1 2py     1 2py     1 2py     1 2py     1 2py     1 2py     1 2py
                                   1 2py     1 2py     1 2py     1 2py     1 2py     1 2py     1 2py     1 2py     1 2py     1 2py
                                   1 2py     1 2py     1 4f1-    1 4f3-    1 4f1-    1 4f3-    1 4f1-    1 4f3-    1 4f1-    1 4f3-
                                   1 4f1-    1 4f3-    1 4f1-    1 4f3-    1 4f1-    1 4f3-    1 4f1-    1 4f3-    1 4f1-    1 4f3-
                                   1 4f1-    1 4f3-    1 6h1-    1 6h3-    1 6h5-    1 6h1-    1 6h3-    1 6h5-    1 6h1-    1 6h3-
                                   1 6h5-    1 6h1-    1 6h3-    1 6h5-

   1.3   2  -359.7685-1012.4083  0.000490  0.002254  0.009493  0.037000  0.123697  0.294228  0.011889  0.439651  0.298875 -0.055389
                                 0.064983 -0.840548  0.860576 -0.054047  0.006484 -0.004104  0.003096 -0.000879  0.000383 -0.000181
                                 0.000067 -0.000015  0.000002 -0.000007  0.000001 -0.000002  0.000000 -0.000001  0.000000 -0.000000
                                -0.000000  0.000000 -0.000000  0.000000 -0.000000  0.000000  0.000000 -0.000000 -0.000000  0.000000
                                 0.000000 -0.000000  0.000000 -0.000000  0.000000 -0.000000  0.000000 -0.000000  0.000000 -0.000000
                                 0.000000 -0.000000  0.000000 -0.000000

   2.3   2   -83.1871 -361.9122 -0.000248 -0.001143 -0.004873 -0.019180 -0.067117 -0.155430 -0.025271 -0.242029 -0.127245  0.325798
                                 0.591363  0.233730  0.035249  0.010927  0.014094 -0.007074  0.005609 -0.001663  0.000740 -0.000352
                                 0.000131 -0.000029 -0.000000  0.000000  0.000007 -0.000028  0.000014 -0.000053  0.000004 -0.000017
                                 0.000003 -0.000013  0.000000 -0.000001  0.000000 -0.000001 -0.000000  0.000001  0.000000 -0.000000
                                -0.000000  0.000000  0.000000 -0.000000  0.000000 -0.000000  0.000000 -0.000000  0.000000 -0.000000
                                 0.000000 -0.000000  0.000000 -0.000000

   3.3   2   -19.1409 -155.4541  0.000118  0.000547  0.002340  0.009227  0.032666  0.074594  0.015383  0.117246  0.054522 -0.222107
                                -0.480154  1.304859 -1.565230  0.631400  0.623964  0.214170 -0.067670  0.017220 -0.006782  0.003130
                                -0.001151  0.000255  0.000003 -0.000011  0.000018 -0.000071  0.000064 -0.000248  0.000141 -0.000548
                                 0.000359 -0.001391  0.000048 -0.000187 -0.000025  0.000097  0.000010 -0.000038 -0.000003  0.000010
                                 0.000001 -0.000003  0.000000 -0.000000  0.000001  0.000001 -0.000002  0.000004  0.000000 -0.000001
                                 0.000001 -0.000000  0.000000 -0.000000

   4.3   2    -5.1687 -110.1035 -0.000001 -0.000006 -0.000026 -0.000101 -0.000359 -0.000829 -0.000160 -0.001303 -0.000497  0.002502
                                 0.006229 -0.039961  0.044794 -0.012708 -0.010364 -0.006204  0.022408  0.020756  0.001143  0.000076
                                -0.000048  0.000012 -0.002125  0.008231 -0.014118  0.054682 -0.046800  0.181265 -0.087514  0.338957
                                -0.100535  0.389389 -0.072582  0.281123 -0.021052  0.081538  0.001165 -0.004511 -0.000465  0.001802
                                 0.000132 -0.000513 -0.000003  0.000008 -0.000019 -0.000150  0.000486 -0.001086 -0.000315  0.001021
                                -0.002284 -0.000011  0.000034 -0.000077

   5.3   2    -5.2167 -110.0166 -0.000000 -0.000000 -0.000000 -0.000000 -0.000000 -0.000000 -0.000000 -0.000001 -0.000000  0.000001
                                 0.000002 -0.000016  0.000018 -0.000005 -0.000004 -0.000001  0.000007  0.000006  0.000000  0.000000
                                -0.000000  0.000000  0.008202  0.002118  0.054483  0.014067  0.180643  0.046640  0.337726  0.087196
                                 0.389733  0.100623  0.283757  0.073262  0.081217  0.020969 -0.004652 -0.001201  0.001790  0.000462
                                -0.000509 -0.000131  0.000005 -0.000010 -0.000005  0.000272 -0.000546 -0.000282  0.000573 -0.001148
                                -0.000593  0.000018 -0.000035 -0.000018

   6.3   0    -4.7754  -65.9530 -0.000046 -0.000213 -0.000911 -0.003599 -0.012741 -0.029476 -0.005642 -0.046295 -0.017757  0.087920
                                 0.219149 -1.374371  1.546535 -0.439996 -0.358263 -0.147475  0.660599  0.578619  0.036630  0.001647
                                -0.001191  0.000305  0.000070 -0.000271  0.000465 -0.001802  0.001537 -0.005963  0.002910 -0.011286
                                 0.003267 -0.012672  0.002621 -0.010161  0.001052 -0.004078 -0.000045  0.000175  0.000028 -0.000109
                                -0.000008  0.000032 -0.000001  0.000002 -0.000004 -0.000001  0.000002 -0.000004 -0.000008  0.000026
                                -0.000057 -0.000000  0.000000 -0.000000

   7.3   0    -2.3221  -34.7053  0.000025  0.000115  0.000493  0.001950  0.006895  0.016119  0.002846  0.025282  0.008443 -0.046346
                                -0.125061  1.015862 -1.133107  0.284380  0.201069  0.145596 -0.649896 -0.568861  1.133129  0.297333
                                -0.029762  0.004989 -0.000012  0.000046 -0.000080  0.000310 -0.000262  0.001016 -0.000501  0.001940
                                -0.000449  0.001739 -0.000678  0.002624  0.001689 -0.006541  0.005463 -0.021154  0.000850 -0.003290
                                -0.000126  0.000487  0.000000 -0.000001  0.000003  0.000001 -0.000005  0.000010  0.000010 -0.000031
                                 0.000070  0.000028 -0.000090  0.000202

                                   1 3d2-    1 3d2-    1 3d2-    1 3d2-    1 3d2-    1 3d2-    1 3d2-    1 3d2-    1 3d2-    1 3d2-
                                   1 3d2-    1 3d2-    1 3d2-    1 3d2-    1 3d2-    1 3d2-    1 5g2-    1 5g4-    1 5g2-    1 5g4-
                                   1 5g2-    1 5g4-    1 5g2-    1 5g4-    1 5g2-    1 5g4-    1 5g2-    1 5g4-

   1.4   2   -65.1122 -333.7477  0.001389  0.011220  0.056541  0.184806  0.377043  0.415559  0.003864  0.164626 -0.001484  0.009784
                                -0.002085  0.001249 -0.000579  0.000198 -0.000098  0.000030  0.000024 -0.000065 -0.000003  0.000008
                                 0.000008 -0.000022 -0.000002  0.000004  0.000001 -0.000002 -0.000000  0.000001

   2.4   2   -12.5293 -137.3464 -0.000675 -0.005553 -0.028000 -0.094847 -0.186454 -0.206184  0.139902 -0.070804  0.472601  0.516913
                                 0.157836 -0.011830  0.006922 -0.002323  0.001140 -0.000340  0.000039 -0.000104  0.000116 -0.000307
                                 0.000486 -0.001287  0.000133 -0.000353 -0.000023  0.000062  0.000007 -0.000019

   3.4   0    -3.2291  -52.6167  0.000228  0.001867  0.009481  0.032035  0.063516  0.064398 -0.044898  0.002347 -0.174876 -0.206345
                                 0.203356  0.672650  0.256471  0.005236 -0.001487  0.000392 -0.000017  0.000045  0.000045 -0.000119
                                -0.000193  0.000511  0.001726 -0.004565  0.001965 -0.005199 -0.000175  0.000463

   4.4   0    -1.7591  -29.0704 -0.000136 -0.001145 -0.005646 -0.019761 -0.036778 -0.051733  0.060065 -0.050816  0.150758  0.099505
                                -0.114038 -0.797094  0.778469  0.689516 -0.160269  0.040443  0.000007 -0.000019 -0.000022  0.000058
                                 0.000089 -0.000235 -0.001307  0.003458  0.003134 -0.008293  0.002906 -0.007688

                                   1 2pz     1 2pz     1 2pz     1 2pz     1 2pz     1 2pz     1 2pz     1 2pz     1 2pz     1 2pz
                                   1 2pz     1 2pz     1 2pz     1 2pz     1 2pz     1 2pz     1 2pz     1 2pz     1 2pz     1 2pz
                                   1 2pz     1 2pz     1 4f0     1 4f2+    1 4f0     1 4f2+    1 4f0     1 4f2+    1 4f0     1 4f2+
                                   1 4f0     1 4f2+    1 4f0     1 4f2+    1 4f0     1 4f2+    1 4f0     1 4f2+    1 4f0     1 4f2+
                                   1 4f0     1 4f2+    1 6h2+    1 6h4+    1 6h0     1 6h2+    1 6h4+    1 6h0     1 6h2+    1 6h4+
                                   1 6h0     1 6h2+    1 6h4+    1 6h0

   1.5   2  -359.7685-1012.4083  0.000490  0.002254  0.009493  0.037000  0.123697  0.294228  0.011889  0.439651  0.298875 -0.055389
                                 0.064983 -0.840548  0.860576 -0.054047  0.006484 -0.004104  0.003096 -0.000879  0.000383 -0.000181
                                 0.000067 -0.000015  0.000004 -0.000006  0.000001 -0.000002  0.000000 -0.000000  0.000000 -0.000000
                                -0.000000  0.000000 -0.000000  0.000000 -0.000000  0.000000  0.000000 -0.000000 -0.000000  0.000000
                                 0.000000 -0.000000 -0.000000  0.000000  0.000000  0.000000 -0.000000 -0.000000 -0.000000  0.000000
                                 0.000000  0.000000 -0.000000 -0.000000

   2.5   2   -83.1871 -361.9122 -0.000248 -0.001143 -0.004873 -0.019180 -0.067117 -0.155430 -0.025271 -0.242029 -0.127245  0.325798
                                 0.591363  0.233730  0.035249  0.010927  0.014094 -0.007074  0.005609 -0.001663  0.000740 -0.000352
                                 0.000131 -0.000029 -0.000000  0.000000  0.000018 -0.000023  0.000034 -0.000044  0.000011 -0.000014
                                 0.000008 -0.000011  0.000000 -0.000001  0.000001 -0.000001 -0.000000  0.000001  0.000000 -0.000000
                                -0.000000  0.000000 -0.000000  0.000000  0.000000  0.000000 -0.000000 -0.000000 -0.000000  0.000000
                                 0.000000  0.000000 -0.000000 -0.000000

   3.5   2   -19.1409 -155.4541  0.000118  0.000547  0.002340  0.009227  0.032666  0.074594  0.015383  0.117246  0.054522 -0.222107
                                -0.480154  1.304860 -1.565231  0.631400  0.623964  0.214170 -0.067670  0.017220 -0.006782  0.003130
                                -0.001151  0.000255  0.000007 -0.000009  0.000045 -0.000058  0.000157 -0.000203  0.000346 -0.000448
                                 0.000880 -0.001136  0.000119 -0.000153 -0.000061  0.000079  0.000024 -0.000031 -0.000006  0.000008
                                 0.000002 -0.000003 -0.000001  0.000001  0.000001 -0.000003  0.000002  0.000002 -0.000001  0.000001
                                 0.000001  0.000000 -0.000000 -0.000000

   4.5   2    -5.1687 -110.1032 -0.000001 -0.000006 -0.000026 -0.000102 -0.000360 -0.000833 -0.000160 -0.001309 -0.000499  0.002513
                                 0.006257 -0.040152  0.045008 -0.012766 -0.010408 -0.006219  0.022494  0.020821  0.001145  0.000077
                                -0.000049  0.000012 -0.005205  0.006721 -0.034582  0.044649 -0.114636  0.148005 -0.214364  0.276763
                                -0.246258  0.317941 -0.177788  0.229541 -0.051566  0.066577  0.002853 -0.003684 -0.001140  0.001472
                                 0.000324 -0.000419  0.000014 -0.000012 -0.000010  0.000793 -0.000687 -0.000581  0.001668 -0.001444
                                -0.001221  0.000056 -0.000049 -0.000041

   5.5   2    -5.2167 -110.0166 -0.000000 -0.000000 -0.000000 -0.000000 -0.000001 -0.000003 -0.000001 -0.000005 -0.000002  0.000008
                                 0.000022 -0.000149  0.000167 -0.000045 -0.000034 -0.000011  0.000066  0.000049  0.000001  0.000001
                                -0.000000  0.000000  0.006697  0.005187  0.044486  0.034456  0.147499  0.114243  0.275760  0.213586
                                 0.318224  0.246476  0.231693  0.179454  0.066316  0.051363 -0.003799 -0.002942  0.001462  0.001132
                                -0.000415 -0.000322 -0.000004 -0.000009  0.000006 -0.000206 -0.000534  0.000351 -0.000433 -0.001124
                                 0.000739 -0.000013 -0.000035  0.000023

   6.5   0    -4.7754  -65.9534 -0.000046 -0.000213 -0.000911 -0.003599 -0.012741 -0.029476 -0.005642 -0.046295 -0.017757  0.087920
                                 0.219148 -1.374368  1.546530 -0.439995 -0.358262 -0.147475  0.660598  0.578615  0.036630  0.001647
                                -0.001191  0.000305  0.000172 -0.000223  0.001139 -0.001479  0.003771 -0.004896  0.007137 -0.009267
                                 0.008014 -0.010406  0.006426 -0.008341  0.002579 -0.003344 -0.000111  0.000143  0.000069 -0.000089
                                -0.000020  0.000026  0.000003 -0.000003 -0.000002  0.000003 -0.000003 -0.000002  0.000041 -0.000036
                                -0.000031  0.000000 -0.000000 -0.000000

   7.5   0    -2.3221  -34.7053  0.000025  0.000115  0.000493  0.001950  0.006895  0.016119  0.002846  0.025282  0.008443 -0.046346
                                -0.125061  1.015865 -1.133110  0.284380  0.201069  0.145596 -0.649898 -0.568858  1.133130  0.297332
                                -0.029762  0.004989 -0.000029  0.000038 -0.000196  0.000253 -0.000643  0.000830 -0.001227  0.001585
                                -0.001100  0.001421 -0.001659  0.002144  0.004137 -0.005337  0.013379 -0.017270  0.002081 -0.002686
                                -0.000308  0.000398 -0.000002  0.000002  0.000001 -0.000007  0.000006  0.000005 -0.000051  0.000044
                                 0.000037 -0.000147  0.000127  0.000108

                                   1 3d1+    1 3d1+    1 3d1+    1 3d1+    1 3d1+    1 3d1+    1 3d1+    1 3d1+    1 3d1+    1 3d1+
                                   1 3d1+    1 3d1+    1 3d1+    1 3d1+    1 3d1+    1 3d1+    1 5g1+    1 5g3+    1 5g1+    1 5g3+
                                   1 5g1+    1 5g3+    1 5g1+    1 5g3+    1 5g1+    1 5g3+    1 5g1+    1 5g3+

   1.6   2   -65.1122 -333.7477  0.001389  0.011220  0.056541  0.184806  0.377043  0.415559  0.003864  0.164626 -0.001484  0.009784
                                -0.002085  0.001249 -0.000579  0.000198 -0.000098  0.000030  0.000052 -0.000046 -0.000007  0.000006
                                 0.000018 -0.000016 -0.000003  0.000003  0.000001 -0.000001 -0.000000  0.000000

   2.6   2   -12.5293 -137.3464 -0.000675 -0.005553 -0.028000 -0.094847 -0.186454 -0.206185  0.139903 -0.070805  0.472601  0.516913
                                 0.157836 -0.011830  0.006922 -0.002323  0.001140 -0.000340  0.000083 -0.000073  0.000246 -0.000217
                                 0.001032 -0.000910  0.000283 -0.000249 -0.000049  0.000044  0.000015 -0.000013

   3.6   0    -3.2291  -52.6168  0.000228  0.001867  0.009481  0.032035  0.063516  0.064398 -0.044898  0.002346 -0.174876 -0.206346
                                 0.203358  0.672652  0.256468  0.005236 -0.001487  0.000392 -0.000036  0.000032  0.000095 -0.000084
                                -0.000410  0.000362  0.003661 -0.003227  0.004168 -0.003676 -0.000371  0.000327

   4.6   0    -1.7591  -29.0704 -0.000136 -0.001145 -0.005646 -0.019761 -0.036778 -0.051733  0.060065 -0.050816  0.150758  0.099505
                                -0.114039 -0.797093  0.778472  0.689513 -0.160269  0.040443  0.000016 -0.000014 -0.000046  0.000041
                                 0.000188 -0.000166 -0.002773  0.002444  0.006649 -0.005864  0.006164 -0.005437

                                   1 3d1-    1 3d1-    1 3d1-    1 3d1-    1 3d1-    1 3d1-    1 3d1-    1 3d1-    1 3d1-    1 3d1-
                                   1 3d1-    1 3d1-    1 3d1-    1 3d1-    1 3d1-    1 3d1-    1 5g1-    1 5g3-    1 5g1-    1 5g3-
                                   1 5g1-    1 5g3-    1 5g1-    1 5g3-    1 5g1-    1 5g3-    1 5g1-    1 5g3-

   1.7   2   -65.1228 -333.7543  0.001389  0.011220  0.056539  0.184796  0.377017  0.415539  0.003914  0.164605 -0.001449  0.009804
                                -0.002077  0.001250 -0.000579  0.000198 -0.000098  0.000030  0.000018 -0.000046 -0.000002  0.000006
                                 0.000006 -0.000016 -0.000001  0.000003  0.000000 -0.000001 -0.000000  0.000000

   2.7   2   -12.5618 -137.3326 -0.000674 -0.005548 -0.027977 -0.094749 -0.186329 -0.205595  0.138711 -0.069252  0.470342  0.518250
                                 0.158155 -0.012672  0.007116 -0.002385  0.001170 -0.000349  0.000028 -0.000074  0.000083 -0.000218
                                 0.000346 -0.000915  0.000094 -0.000249 -0.000017  0.000044  0.000005 -0.000013

   3.7   0    -3.2014  -52.1533  0.000224  0.001835  0.009316  0.031490  0.062376  0.063499 -0.044754  0.003261 -0.172206 -0.201809
                                 0.192173  0.668041  0.270188  0.005324 -0.001391  0.000357 -0.000021  0.000056  0.000022 -0.000059
                                -0.000185  0.000490  0.001084 -0.002865  0.001382 -0.003654 -0.000117  0.000310

   4.7   0    -1.7658  -29.3290 -0.000138 -0.001163 -0.005742 -0.020073 -0.037438 -0.052092  0.059857 -0.049776  0.151329  0.102174
                                -0.113920 -0.811079  0.783695  0.684716 -0.159898  0.040353  0.000011 -0.000028 -0.000010  0.000026
                                 0.000094 -0.000249 -0.000857  0.002267  0.002258 -0.005977  0.002040 -0.005398

                                   1 4f2-    1 4f2-    1 4f2-    1 4f2-    1 4f2-    1 4f2-    1 4f2-    1 4f2-    1 4f2-    1 4f2-
                                   1 6h4-    1 6h2-    1 6h4-    1 6h2-    1 6h4-    1 6h2-    1 6h4-    1 6h2-

   1.8   2    -5.1871 -110.0992  0.008492  0.056415  0.187023  0.349701  0.402392  0.291522  0.084207 -0.004730  0.001862 -0.000529
                                -0.000015  0.000008 -0.000869  0.000502 -0.001830  0.001056 -0.000060  0.000034

   2.8   0    -1.9175  -35.6864 -0.002523 -0.016444 -0.055758 -0.097636 -0.110532  0.011146  0.244163  0.665429  0.213540 -0.029018
                                -0.000011  0.000006  0.000237 -0.000137 -0.001210  0.000699 -0.006787  0.003919

   3.8   0    -1.2308  -22.6027  0.001857  0.012302  0.040963  0.073273  0.074935 -0.010782 -0.338728 -0.334517  0.992045  0.095073
                                 0.000016 -0.000009 -0.000192  0.000111  0.001464 -0.000846  0.003293 -0.001901

 HOMO      1.8    -5.187139 =    -141.1492eV
 LUMO      6.5    -4.775357 =    -129.9441eV
 LUMO-HOMO         0.411782 =      11.2052eV


 **********************************************************************************************************************************
 DATASETS  * FILE   NREC   LENGTH (MB)   RECORD NAMES
              1      22       21.15       500      610      700      900      950      970     1000      129      960     1700
                                          VAR    BASINP    GEOM    SYMINP    ZMAT    AOBASIS   BASIS     P2S    ABASIS    OPER
                                         1101     1401     1411     1412     1650     1100     1400     1410     1200     1210
                                          SR      EKINR    POTR     PVPR    MOLCAS      S      EKIN      POT      H0       H01
                                         1080     1600
                                         AOSYM     SMH

              2       5        5.89       200      700     1000      520     4202
                                        OPTIONS   GEOM     BASIS   MCVARS     RHF

 PROGRAMS   *        TOTAL       RHF       INT
 CPU TIMES  *        45.78      4.63     40.68
 REAL TIME  *        49.51 SEC
 DISK USED  *         3.21 GB
 SF USED    *         0.07 MB
 GA USED    *         0.00 MB       (max)       0.00 MB       (current)
 **********************************************************************************************************************************
   -->
   <time start="12:04:09" end="12:04:58" cpu="45.78" system="2.92" real="49.51"/>
   <storage units="megabyte" memory="16001.84" sf="0.07" df="148.44" eaf="3057.29" ga="0.0"/>
  </jobstep><!--
  --><jobstep command="POP" commandset="POP">
   <!--


 PROGRAM * POP (Mulliken population analysis)


 Density matrix read from record         4202.2  Type=RHF/CHARGE (state 1.2)

 Population analysis by basis function type

 Unique atom        s        p        d        f        g    Total    Charge
   1  LU      9.99999 19.01210 19.99998 13.98779  0.00003 63.00000  + 8.00000


 **********************************************************************************************************************************
 DATASETS  * FILE   NREC   LENGTH (MB)   RECORD NAMES
              1      22       21.15       500      610      700      900      950      970     1000      129      960     1700
                                          VAR    BASINP    GEOM    SYMINP    ZMAT    AOBASIS   BASIS     P2S    ABASIS    OPER
                                         1101     1401     1411     1412     1650     1100     1400     1410     1200     1210
                                          SR      EKINR    POTR     PVPR    MOLCAS      S      EKIN      POT      H0       H01
                                         1080     1600
                                         AOSYM     SMH

              2       5        5.89       200      700     1000      520     4202
                                        OPTIONS   GEOM     BASIS   MCVARS     RHF

 PROGRAMS   *        TOTAL       POP       RHF       INT
 CPU TIMES  *        45.79      0.01      4.63     40.68
 REAL TIME  *        49.52 SEC
 DISK USED  *         3.21 GB
 SF USED    *         0.07 MB
 GA USED    *         0.00 MB       (max)       0.00 MB       (current)
 **********************************************************************************************************************************
   -->
   <time start="12:04:58" end="12:04:58" cpu="0.01" system="0.0" real="0.01"/>
   <storage units="megabyte" memory="16001.84" sf="0.07" df="148.44" eaf="3057.29" ga="0.0"/>
  </jobstep><!--
  --><jobstep command="MULTI" commandset="MULTI">
   <!--


 PROGRAM * MULTI (Direct Multiconfiguration SCF)       Authors: P.J. Knowles, H.-J. Werner (1984)     S.T. Elbert (1988)


 Number of closed-shell orbitals:  31 (   9   5   5   2   5   2   2   1 )
 Number of active  orbitals:        3 (   0   1   1   0   1   0   0   0 )
 Number of external orbitals:     307 (  68  48  48  26  48  26  26  17 )

 State symmetry 1

 Number of electrons:     1    Spin symmetry=Doublet   Space symmetry=2
 Number of states:        1
 Number of CSFs:          1   (1 determinants, 3 intermediate states)

 State symmetry 2

 Number of electrons:     1    Spin symmetry=Doublet   Space symmetry=3
 Number of states:        1
 Number of CSFs:          1   (1 determinants, 3 intermediate states)

 State symmetry 3

 Number of electrons:     1    Spin symmetry=Doublet   Space symmetry=5
 Number of states:        1
 Number of CSFs:          1   (1 determinants, 3 intermediate states)

 Molecular orbitals read from record     4202.2  Type=RHF/CANONICAL (state 1.2)
 *** IN SYMMETRY 1 ORBITAL  2 SYMMETRY CONTAMINATION OF 0.154D-04 HAS BEEN REMOVED
 *** IN SYMMETRY 1 ORBITAL  3 SYMMETRY CONTAMINATION OF 0.423D-04 HAS BEEN REMOVED
 *** IN SYMMETRY 1 ORBITAL  4 SYMMETRY CONTAMINATION OF 0.366D+00 HAS BEEN REMOVED
 *** IN SYMMETRY 1 ORBITAL  5 SYMMETRY CONTAMINATION OF 0.370D+00 HAS BEEN REMOVED
 *** IN SYMMETRY 1 ORBITAL  6 SYMMETRY CONTAMINATION OF 0.621D-03 HAS BEEN REMOVED
 *** IN SYMMETRY 1 ORBITAL  7 SYMMETRY CONTAMINATION OF 0.367D+00 HAS BEEN REMOVED
 *** IN SYMMETRY 1 ORBITAL  8 SYMMETRY CONTAMINATION OF 0.377D+00 HAS BEEN REMOVED
 *** IN SYMMETRY 1 ORBITAL  9 SYMMETRY CONTAMINATION OF 0.159D-02 HAS BEEN REMOVED

 EXTRA SYMMETRY OF MOS IN SYMMETRY 1:   1 1 1 2 3 1 2 3 1 3   2 1 2 3 1 4 5 6 2 3   1 2 3 1 4 5 6 2 3 1   1 2 1 4 5 6 1 4 5 6
                                        2 3 4 5 6 1 2 3 4 5   6 1 2 3 1 2 3 1 2 3   1 2 3 1 2 3 1 1 2 3   1 1 1 1 1 1 3
 *** IN SYMMETRY 2 ORBITAL  2 SYMMETRY CONTAMINATION OF 0.107D-03 HAS BEEN REMOVED
 *** IN SYMMETRY 2 ORBITAL  3 SYMMETRY CONTAMINATION OF 0.862D-03 HAS BEEN REMOVED
 *** IN SYMMETRY 2 ORBITAL  4 SYMMETRY CONTAMINATION OF 0.549D+00 HAS BEEN REMOVED
 *** IN SYMMETRY 2 ORBITAL  5 SYMMETRY CONTAMINATION OF 0.439D+00 HAS BEEN REMOVED
 *** IN SYMMETRY 2 ORBITAL  6 SYMMETRY CONTAMINATION OF 0.279D-01 HAS BEEN REMOVED
 EXTRA SYMMETRY OF MOS IN SYMMETRY 2:   1 1 1 3 2 1 1 2 3 1   2 3 1 2 3 1 2 3 5 6   4 1 2 3 5 6 4 1 2 3   1 5 6 4 2 3 1 5 6 4
                                        1 2 3 1 1 2 3 1 1 1   1 1 1 1
 *** IN SYMMETRY 3 ORBITAL  2 SYMMETRY CONTAMINATION OF 0.775D-04 HAS BEEN REMOVED
 *** IN SYMMETRY 3 ORBITAL  3 SYMMETRY CONTAMINATION OF 0.603D-03 HAS BEEN REMOVED
 *** IN SYMMETRY 3 ORBITAL  4 SYMMETRY CONTAMINATION OF 0.280D+00 HAS BEEN REMOVED
 *** IN SYMMETRY 3 ORBITAL  5 SYMMETRY CONTAMINATION OF 0.207D+00 HAS BEEN REMOVED
 *** IN SYMMETRY 3 ORBITAL  6 SYMMETRY CONTAMINATION OF 0.104D-01 HAS BEEN REMOVED
 EXTRA SYMMETRY OF MOS IN SYMMETRY 3:   1 1 1 3 2 1 1 2 3 1   2 3 1 2 3 1 2 3 4 5   6 1 2 3 4 5 6 1 2 3   1 4 5 6 2 3 1 4 5 6
                                        1 2 3 1 1 2 3 1 1 1   1 1 1 1
 *** IN SYMMETRY 4 ORBITAL  1 SYMMETRY CONTAMINATION OF 0.114D-03 HAS BEEN REMOVED
 *** IN SYMMETRY 4 ORBITAL  2 SYMMETRY CONTAMINATION OF 0.154D-02 HAS BEEN REMOVED
 EXTRA SYMMETRY OF MOS IN SYMMETRY 4:   1 1 1 1 2 3 1 1 2 3   1 1 2 3 2 3 1 2 3 1   2 3 1 1 1 1 1 1
 *** IN SYMMETRY 5 ORBITAL  2 SYMMETRY CONTAMINATION OF 0.893D-04 HAS BEEN REMOVED
 *** IN SYMMETRY 5 ORBITAL  3 SYMMETRY CONTAMINATION OF 0.695D-03 HAS BEEN REMOVED
 *** IN SYMMETRY 5 ORBITAL  4 SYMMETRY CONTAMINATION OF 0.484D+00 HAS BEEN REMOVED
 *** IN SYMMETRY 5 ORBITAL  5 SYMMETRY CONTAMINATION OF 0.438D+00 HAS BEEN REMOVED
 *** IN SYMMETRY 5 ORBITAL  6 SYMMETRY CONTAMINATION OF 0.120D-01 HAS BEEN REMOVED
 EXTRA SYMMETRY OF MOS IN SYMMETRY 5:   1 1 1 3 2 1 1 2 3 1   2 3 1 2 3 1 2 3 6 5   4 1 2 3 6 5 4 1 2 3   1 6 5 4 2 3 1 6 5 4
                                        1 2 3 1 1 2 3 1 1 1   1 1 1 1
 *** IN SYMMETRY 6 ORBITAL  1 SYMMETRY CONTAMINATION OF 0.125D-03 HAS BEEN REMOVED
 *** IN SYMMETRY 6 ORBITAL  2 SYMMETRY CONTAMINATION OF 0.169D-02 HAS BEEN REMOVED
 EXTRA SYMMETRY OF MOS IN SYMMETRY 6:   1 1 1 1 3 2 1 1 3 2   1 1 3 2 3 2 1 3 2 1   3 2 1 1 1 1 1 1
 *** IN SYMMETRY 7 ORBITAL  1 SYMMETRY CONTAMINATION OF 0.821D-04 HAS BEEN REMOVED
 *** IN SYMMETRY 7 ORBITAL  2 SYMMETRY CONTAMINATION OF 0.110D-02 HAS BEEN REMOVED
 EXTRA SYMMETRY OF MOS IN SYMMETRY 7:   1 1 1 1 2 3 1 1 2 3   1 1 2 3 2 3 1 2 3 1   2 3 1 1 1 1 1 1
 *** IN SYMMETRY 8 ORBITAL  1 SYMMETRY CONTAMINATION OF 0.314D-02 HAS BEEN REMOVED
 EXTRA SYMMETRY OF MOS IN SYMMETRY 8:   1 1 1 1 1 3 2 1 3 2   1 3 2 1 3 2 1 1

 Wavefunction dump at record             5202.2

 Convergence thresholds  0.10E-01 (gradient)  0.13E-05 (energy)  0.10E-02 (step length)

 Weight factors for state symmetry  1:    0.33333
 Weight factors for state symmetry  2:    0.33333
 Weight factors for state symmetry  3:    0.33333

 Number of orbital rotations:     1664   (    15 Core/Active   1505 Core/Virtual   0 Active/Active    144 Active/Virtual)
 Total number of variables:       1667


 ITER. MIC  NCI  NEG     ENERGY(VAR)     ENERGY(PROJ)   ENERGY CHANGE     GRAD(0)  GRAD(ORB)   GRAD(CI)     STEP       TIME

   1   21   21    0  -14540.42358911  -14540.42613589   -0.00254679    0.91166196 0.00000000 0.00000000  0.47D-01      3.75
   2   20   15    0  -14540.42613546  -14540.42613592   -0.00000047    0.90431615 0.00000000 0.00000000  0.28D-04      6.35

 ** WVFN ****  CONVERGENCE REACHED, FINAL GRADIENT:  0.53D-08



 Results for state 1.2
 =====================

 !MCSCF STATE 1.2 Energy             -14540.4261359227
   --><property name="Energy" method="MCSCF" principal="true" stateSymmetry="2" stateNumber="1"
     value="-14540.4261359227"/><!--
 Nuclear energy                         0.00000000
 Kinetic energy                     19785.88302593
 One electron energy               -19694.43946250
 Two electron energy                 5154.01332657
 Virial ratio                           1.73488892

 !MCSCF STATE 1.2 Dipole moment         0.00000000     0.00000000     0.00000000
 Dipole moment /Debye                   0.00000000     0.00000000     0.00000000
   --><property name="Dipole moment" method="MCSCF" principal="true" stateSymmetry="2"
     stateNumber="1" value="0.0 0.0 0.0"/><!--



 Results for state 1.3
 =====================

 !MCSCF STATE 1.3 Energy             -14540.4261359227
   --><property name="Energy" method="MCSCF" principal="true" stateSymmetry="3" stateNumber="1"
     value="-14540.4261359227"/><!--
 Nuclear energy                         0.00000000
 Kinetic energy                     19785.88302592
 One electron energy               -19694.43946250
 Two electron energy                 5154.01332657
 Virial ratio                           1.73488892

 !MCSCF STATE 1.3 Dipole moment         0.00000000     0.00000000     0.00000000
 Dipole moment /Debye                   0.00000000     0.00000000     0.00000000
   --><property name="Dipole moment" method="MCSCF" principal="true" stateSymmetry="3"
     stateNumber="1" value="0.0 0.0 0.0"/><!--



 Results for state 1.5
 =====================

 !MCSCF STATE 1.5 Energy             -14540.4261359228
   --><property name="Energy" method="MCSCF" principal="true" stateSymmetry="5" stateNumber="1"
     value="-14540.4261359228"/><!--
 Nuclear energy                         0.00000000
 Kinetic energy                     19785.88302592
 One electron energy               -19694.43946250
 Two electron energy                 5154.01332657
 Virial ratio                           1.73488892

 !MCSCF STATE 1.5 Dipole moment         0.00000000     0.00000000     0.00000000
 Dipole moment /Debye                   0.00000000     0.00000000     0.00000000
   --><property name="Dipole moment" method="MCSCF" principal="true" stateSymmetry="5"
     stateNumber="1" value="0.0 0.0 0.0"/><!--

 State-averaged charge density matrix saved on record  5202.2 (density set 1)


 NATURAL ORBITALS (state averaged)
 =================================

   Orb     Occ        Energy       Coefficients

                                   1 1s      1 1s      1 1s      1 1s      1 1s      1 1s      1 1s      1 1s      1 1s      1 1s
                                   1 1s      1 1s      1 1s      1 1s      1 1s      1 1s      1 1s      1 1s      1 1s      1 1s
                                   1 1s      1 1s      1 1s      1 1s      1 1s      1 1s      1 1s      1 3d0     1 3d2+    1 3d0
                                   1 3d2+    1 3d0     1 3d2+    1 3d0     1 3d2+    1 3d0     1 3d2+    1 3d0     1 3d2+    1 3d0
                                   1 3d2+    1 3d0     1 3d2+    1 3d0     1 3d2+    1 3d0     1 3d2+    1 3d0     1 3d2+    1 3d0
                                   1 3d2+    1 3d0     1 3d2+    1 3d0     1 3d2+    1 3d0     1 3d2+    1 3d0     1 3d2+    1 5g0
                                   1 5g4+    1 5g2+    1 5g0     1 5g4+    1 5g2+    1 5g0     1 5g4+    1 5g2+    1 5g0     1 5g4+
                                   1 5g2+    1 5g0     1 5g4+    1 5g2+    1 5g0     1 5g4+    1 5g2+

   1.1  2.00000 -2343.711917     0.001174  0.003283  0.009326  0.023783  0.058911  0.137442  0.014876  0.274171  0.517483 -0.099128
                                 0.260937 -0.045244  0.082246 -0.042158  0.545379 -0.567325  0.098975 -0.109754  0.051667 -0.011011
                                 0.005844 -0.003155  0.001218 -0.000569  0.000279 -0.000080  0.000017  0.000000  0.000000  0.000000
                                 0.000000  0.000000  0.000000  0.000000  0.000000  0.000000  0.000000  0.000000  0.000000  0.000000
                                -0.000000  0.000000  0.000000  0.000000 -0.000000  0.000000 -0.000000  0.000000 -0.000000 -0.000000
                                 0.000000  0.000000 -0.000000 -0.000000  0.000000  0.000000 -0.000000 -0.000000  0.000000  0.000000
                                 0.000000  0.000000  0.000000  0.000000  0.000000  0.000000  0.000000  0.000000  0.000000  0.000000
                                 0.000000  0.000000  0.000000  0.000000  0.000000  0.000000  0.000000

   2.1  2.00000  -407.562579    -0.000439 -0.001232 -0.003516 -0.009095 -0.022983 -0.057155  0.001449 -0.137420 -0.081612 -0.165256
                                -0.101299  0.535507  0.020305  0.560386 -0.171842  0.250451 -0.135031  0.167172 -0.084474  0.019544
                                -0.010801  0.005944 -0.002325  0.001095 -0.000539  0.000154 -0.000033 -0.000000 -0.000000 -0.000000
                                -0.000000 -0.000000 -0.000000 -0.000000 -0.000000 -0.000000 -0.000000 -0.000000 -0.000000 -0.000000
                                 0.000000 -0.000000 -0.000000 -0.000000  0.000000 -0.000000  0.000000 -0.000000  0.000000  0.000000
                                -0.000000 -0.000000  0.000000  0.000000 -0.000000 -0.000000  0.000000  0.000000 -0.000000  0.000000
                                 0.000000  0.000000  0.000000  0.000000  0.000000  0.000000  0.000000  0.000000  0.000000  0.000000
                                 0.000000  0.000000  0.000000  0.000000  0.000000  0.000000  0.000000

   3.1  2.00000   -97.851067     0.000207  0.000582  0.001661  0.004309  0.010907  0.027545 -0.002600  0.069945 -0.007361  0.135678
                                 0.038703 -0.355696 -0.192585 -0.452752  4.523953 -3.734533  1.118381 -0.932176  0.445942 -0.093231
                                 0.051539 -0.028461  0.011206 -0.005303  0.002616 -0.000747  0.000162  0.000000  0.000000  0.000000
                                 0.000000  0.000000  0.000000  0.000000  0.000000  0.000000  0.000000  0.000000  0.000000  0.000000
                                 0.000000  0.000000  0.000000 -0.000000 -0.000000  0.000000  0.000000 -0.000000 -0.000000  0.000000
                                 0.000000 -0.000000 -0.000000  0.000000  0.000000 -0.000000 -0.000000  0.000000  0.000000  0.000000
                                 0.000000  0.000000  0.000000  0.000000  0.000000  0.000000  0.000000  0.000000  0.000000  0.000000
                                 0.000000  0.000000  0.000000  0.000000  0.000000  0.000000  0.000000

   4.1  2.00000   -65.112122     0.000000  0.000000  0.000000  0.000000  0.000000  0.000000 -0.000000  0.000000  0.000000  0.000000
                                 0.000000 -0.000000 -0.000000 -0.000000  0.000000 -0.000000  0.000000 -0.000000  0.000000 -0.000000
                                 0.000000  0.000000  0.000000 -0.000000  0.000000 -0.000000  0.000000  0.000001  0.001389  0.000012
                                 0.011220  0.000060  0.056541  0.000196  0.184803  0.000400  0.377035  0.000441  0.415551  0.000004
                                 0.003881  0.000175  0.164617 -0.000002 -0.001472  0.000010  0.009791 -0.000002 -0.002082  0.000001
                                 0.001250 -0.000001 -0.000579  0.000000  0.000198 -0.000000 -0.000098  0.000000  0.000030  0.000000
                                 0.000000  0.000000  0.000000  0.000000  0.000000  0.000000  0.000000  0.000000  0.000000  0.000000
                                 0.000000  0.000000  0.000000  0.000000  0.000000  0.000000  0.000000

   5.1  2.00000   -65.112122     0.000000  0.000000  0.000000  0.000000  0.000000  0.000000  0.000000  0.000000  0.000000 -0.000000
                                 0.000000  0.000000  0.000000  0.000000 -0.000000  0.000000 -0.000000  0.000000  0.000000  0.000000
                                -0.000000 -0.000000 -0.000000  0.000000 -0.000000  0.000000 -0.000000  0.001389 -0.000001  0.011220
                                -0.000012  0.056541 -0.000060  0.184803 -0.000196  0.377035 -0.000400  0.415551 -0.000441  0.003881
                                -0.000004  0.164617 -0.000175 -0.001472  0.000002  0.009791 -0.000010 -0.002082  0.000002  0.001250
                                -0.000001 -0.000579  0.000001  0.000198 -0.000000 -0.000098  0.000000  0.000030 -0.000000  0.000000
                                 0.000000  0.000000  0.000000  0.000000  0.000000  0.000000  0.000000  0.000000  0.000000  0.000000
                                 0.000000  0.000000  0.000000  0.000000  0.000000  0.000000  0.000000

   6.1  2.00000   -24.048307    -0.000101 -0.000283 -0.000807 -0.002095 -0.005303 -0.013456  0.001622 -0.034780  0.012625 -0.076615
                                -0.016775  0.183667  0.137857  0.250050 -3.349947  2.395041 -0.906992  0.872515  0.557249  0.580788
                                -0.078085  0.057135 -0.023065  0.011144 -0.005541  0.001589 -0.000345 -0.000000 -0.000000 -0.000000
                                -0.000000 -0.000000 -0.000000 -0.000000 -0.000000 -0.000000 -0.000000 -0.000000 -0.000000 -0.000000
                                -0.000000 -0.000000 -0.000000  0.000000  0.000000 -0.000000 -0.000000  0.000000  0.000000 -0.000000
                                -0.000000  0.000000  0.000000 -0.000000 -0.000000  0.000000  0.000000 -0.000000 -0.000000  0.000000
                                 0.000000  0.000000  0.000000  0.000000  0.000000  0.000000  0.000000  0.000000  0.000000  0.000000
                                 0.000000  0.000000  0.000000  0.000000  0.000000  0.000000  0.000000

   7.1  2.00000   -12.537076    -0.000000 -0.000000 -0.000000 -0.000000 -0.000000 -0.000000  0.000000 -0.000000 -0.000000 -0.000000
                                -0.000000  0.000000  0.000000  0.000000 -0.000000  0.000000 -0.000000  0.000000 -0.000000  0.000000
                                -0.000000  0.000000 -0.000000  0.000000 -0.000000  0.000000 -0.000000  0.000011 -0.000675  0.000090
                                -0.005550  0.000452 -0.027987  0.001530 -0.094797  0.003009 -0.186378  0.003325 -0.205939 -0.002251
                                 0.139454  0.001134 -0.070236 -0.007615  0.471710 -0.008351  0.517294 -0.002551  0.157991  0.000195
                                -0.012105 -0.000113  0.006987  0.000038 -0.002344 -0.000019  0.001150  0.000006 -0.000343  0.000000
                                 0.000000  0.000000  0.000000  0.000000  0.000000  0.000000  0.000000  0.000000  0.000000  0.000000
                                 0.000000  0.000000  0.000000  0.000000  0.000000  0.000000  0.000000

   8.1  2.00000   -12.537076    -0.000000 -0.000000 -0.000000 -0.000000 -0.000000 -0.000000  0.000000 -0.000000 -0.000000 -0.000000
                                -0.000000  0.000000  0.000000  0.000000 -0.000000  0.000000 -0.000000  0.000000 -0.000000  0.000000
                                -0.000000  0.000000 -0.000000  0.000000 -0.000000  0.000000 -0.000000 -0.000675 -0.000011 -0.005550
                                -0.000090 -0.027987 -0.000452 -0.094797 -0.001530 -0.186378 -0.003009 -0.205939 -0.003325  0.139454
                                 0.002251 -0.070236 -0.001134  0.471710  0.007615  0.517294  0.008351  0.157991  0.002551 -0.012105
                                -0.000195  0.006987  0.000113 -0.002344 -0.000038  0.001150  0.000019 -0.000343 -0.000006  0.000000
                                 0.000000  0.000000  0.000000  0.000000  0.000000  0.000000  0.000000  0.000000  0.000000  0.000000
                                 0.000000  0.000000  0.000000  0.000000  0.000000  0.000000  0.000000

   9.1  2.00000    -6.570207     0.000043  0.000120  0.000342  0.000889  0.002249  0.005714 -0.000734  0.014844 -0.006535  0.033851
                                 0.006842 -0.078557 -0.064191 -0.108779  1.537683 -1.030979  0.381849 -0.333760 -0.659139 -0.660450
                                 0.545658  0.856655  0.177577 -0.028683  0.012769 -0.003455  0.000729  0.000000 -0.000000  0.000000
                                -0.000000  0.000000 -0.000000  0.000000 -0.000000  0.000000 -0.000000  0.000000 -0.000000  0.000000
                                -0.000000  0.000000 -0.000000  0.000000 -0.000000  0.000000 -0.000000  0.000000 -0.000000 -0.000000
                                 0.000000  0.000000 -0.000000 -0.000000  0.000000  0.000000 -0.000000 -0.000000  0.000000  0.000000
                                 0.000000  0.000000  0.000000  0.000000  0.000000  0.000000  0.000000  0.000000  0.000000  0.000000
                                 0.000000  0.000000  0.000000  0.000000  0.000000  0.000000  0.000000

                                   1 2px     1 2px     1 2px     1 2px     1 2px     1 2px     1 2px     1 2px     1 2px     1 2px
                                   1 2px     1 2px     1 2px     1 2px     1 2px     1 2px     1 2px     1 2px     1 2px     1 2px
                                   1 2px     1 2px     1 4f1+    1 4f3+    1 4f1+    1 4f3+    1 4f1+    1 4f3+    1 4f1+    1 4f3+
                                   1 4f1+    1 4f3+    1 4f1+    1 4f3+    1 4f1+    1 4f3+    1 4f1+    1 4f3+    1 4f1+    1 4f3+
                                   1 4f1+    1 4f3+    1 6h1+    1 6h3+    1 6h5+    1 6h1+    1 6h3+    1 6h5+    1 6h1+    1 6h3+
                                   1 6h5+    1 6h1+    1 6h3+    1 6h5+

   1.2  2.00000  -359.764205     0.000490  0.002254  0.009493  0.037000  0.123700  0.294231  0.011892  0.439651  0.298861 -0.055382
                                 0.064977 -0.840449  0.860474 -0.054041  0.006483 -0.004104  0.003096 -0.000879  0.000383 -0.000181
                                 0.000067 -0.000015  0.000000  0.000000  0.000000  0.000000  0.000000  0.000000  0.000000  0.000000
                                 0.000000  0.000000  0.000000  0.000000  0.000000  0.000000  0.000000  0.000000  0.000000  0.000000
                                 0.000000  0.000000  0.000000  0.000000  0.000000  0.000000  0.000000  0.000000  0.000000  0.000000
                                 0.000000  0.000000  0.000000  0.000000

   2.2  2.00000   -83.180774    -0.000248 -0.001143 -0.004873 -0.019182 -0.067122 -0.155440 -0.025278 -0.242042 -0.127238  0.325855
                                 0.591414  0.232701  0.036267  0.010828  0.014094 -0.007073  0.005603 -0.001670  0.000740 -0.000353
                                 0.000131 -0.000029  0.000000  0.000000  0.000000  0.000000  0.000000  0.000000  0.000000  0.000000
                                 0.000000  0.000000  0.000000  0.000000  0.000000  0.000000  0.000000  0.000000  0.000000  0.000000
                                 0.000000  0.000000  0.000000  0.000000  0.000000  0.000000  0.000000  0.000000  0.000000  0.000000
                                 0.000000  0.000000  0.000000  0.000000

   3.2  2.00000   -19.128509     0.000119  0.000547  0.002342  0.009233  0.032686  0.074645  0.015388  0.117324  0.054499 -0.222209
                                -0.480734  1.318475 -1.580091  0.634159  0.623387  0.212861 -0.066844  0.017311 -0.006730  0.003110
                                -0.001144  0.000254  0.000000  0.000000  0.000000  0.000000  0.000000  0.000000  0.000000  0.000000
                                 0.000000  0.000000  0.000000  0.000000  0.000000  0.000000  0.000000  0.000000  0.000000  0.000000
                                 0.000000  0.000000  0.000000  0.000000  0.000000  0.000000  0.000000  0.000000  0.000000  0.000000
                                 0.000000  0.000000  0.000000  0.000000

   4.2  2.00000    -5.184324    -0.000000 -0.000000 -0.000000 -0.000000 -0.000000 -0.000000  0.000000 -0.000000 -0.000000 -0.000000
                                -0.000000  0.000000 -0.000000  0.000000  0.000000  0.000000 -0.000000  0.000000 -0.000000  0.000000
                                -0.000000  0.000000  0.008490 -0.000000  0.056403 -0.000000  0.186981 -0.000000  0.349624 -0.000000
                                 0.402343 -0.000000  0.291647 -0.000000  0.084352 -0.000000 -0.004729  0.000000  0.001866 -0.000000
                                -0.000530  0.000000  0.000000  0.000000  0.000000  0.000000  0.000000  0.000000  0.000000  0.000000
                                 0.000000  0.000000  0.000000  0.000000

   5.2  2.00000    -5.184324    -0.000000 -0.000000 -0.000000 -0.000000 -0.000000 -0.000000 -0.000000 -0.000000 -0.000000  0.000000
                                -0.000000  0.000000 -0.000000  0.000000  0.000000  0.000000 -0.000000  0.000000 -0.000000  0.000000
                                -0.000000  0.000000  0.000000  0.008490  0.000000  0.056403  0.000000  0.186981  0.000000  0.349624
                                 0.000000  0.402343  0.000000  0.291647  0.000000  0.084352  0.000000 -0.004729  0.000000  0.001866
                                 0.000000 -0.000530  0.000000  0.000000  0.000000  0.000000  0.000000  0.000000  0.000000  0.000000
                                 0.000000  0.000000  0.000000  0.000000

   6.2  0.33333    -4.836952    -0.000048 -0.000221 -0.000945 -0.003731 -0.013204 -0.030607 -0.005770 -0.048054 -0.017992  0.090598
                                 0.228902 -1.510148  1.695844 -0.469305 -0.368735 -0.150246  0.718481  0.548741  0.012737  0.006125
                                -0.002639  0.000606 -0.000000  0.000000 -0.000000  0.000000 -0.000000  0.000000 -0.000000  0.000000
[...]
  14      1.23382076    -0.89720775-14541.32334367    -0.00634620    -0.00355124  0.58D-03  0.20D-02 13 13    21.03
  15      1.30156963    -0.88860293-14541.31473885     0.00860482    -0.00152047  0.45D-04  0.87D-03 14 14    22.36
  16      1.41334769    -0.87980084-14541.30593676     0.00880209    -0.00167950  0.10D-03  0.99D-03 15 15    23.66
  17      1.46904671    -0.87586635-14541.30200227     0.00393449    -0.00180226  0.14D-03  0.11D-02 15  1    25.00
  18      1.48468608    -0.87425348-14541.30038941     0.00161286    -0.00178201  0.14D-03  0.10D-02 15  3    26.35
  19      1.54126242    -0.87080932-14541.29694524     0.00344416    -0.00076632  0.59D-04  0.41D-03 15  2    27.69
  20      1.61123065    -0.86694193-14541.29307785     0.00386739    -0.00075138  0.38D-04  0.43D-03 15  6    29.04
  21      1.72017169    -0.86116323-14541.28729915     0.00577870    -0.00080014  0.37D-04  0.49D-03 15  4    30.36
  22      1.74085785    -0.85919173-14541.28532765     0.00197150    -0.00076308  0.35D-04  0.46D-03 15  5    31.67
  23      1.77982044    -0.85732207-14541.28345799     0.00186966    -0.00050523  0.16D-04  0.31D-03 15  9    33.00
  24      1.81893776    -0.85577516-14541.28191108     0.00154691    -0.00038299  0.27D-04  0.22D-03 15  1    34.34
  25      1.86569330    -0.85390832-14541.28004425     0.00186683    -0.00040275  0.39D-04  0.23D-03 15 15    35.67
  26      1.86514490    -0.85414296-14541.28027889    -0.00023464    -0.00036824  0.26D-04  0.22D-03 15  8    36.98
  27      1.98007575    -0.84844958-14541.27458550     0.00569339    -0.00040963  0.33D-04  0.24D-03 15  1    38.32
  28      2.03103340    -0.84602053-14541.27215645     0.00242905    -0.00027788  0.81D-05  0.17D-03 15  4    39.67
  29      2.01433762    -0.84773877-14541.27387469    -0.00171824    -0.00023609  0.28D-04  0.14D-03 15  7    40.98
  30      1.97048425    -0.84978525-14541.27592117    -0.00204648    -0.00013716  0.66D-05  0.78D-04 15  5    42.30
  31      2.14069348    -0.84393784-14541.27007376     0.00584741    -0.00011707  0.73D-05  0.69D-04 15 12    43.64
  32      2.10853910    -0.84630791-14541.27244383    -0.00237007    -0.00011832  0.11D-04  0.70D-04 15  1    45.01
  33      2.01540683    -0.84894221-14541.27507813    -0.00263430    -0.00005306  0.16D-05  0.30D-04 15  4    46.36
  34      2.03808935    -0.84788233-14541.27401825     0.00105988    -0.00004947  0.19D-05  0.28D-04 15  7    47.69
  35      2.14204514    -0.84363851-14541.26977443     0.00424382    -0.00003588  0.28D-05  0.21D-04 15 10    49.03
  36      2.17312748    -0.84240089-14541.26853682     0.00123761    -0.00003639  0.33D-05  0.22D-04 15 11    50.38
  37      2.15823889    -0.84287703-14541.26901296    -0.00047614    -0.00002270  0.70D-06  0.13D-04 15  7    51.70
  38      2.18841038    -0.84185897-14541.26799489     0.00101806    -0.00002076  0.19D-05  0.12D-04 15 13    53.04
  39      2.18500008    -0.84202313-14541.26815905    -0.00016416    -0.00002140  0.25D-05  0.12D-04 15  9    54.38
  40      2.17313311    -0.84237894-14541.26851486    -0.00035581    -0.00001153  0.14D-05  0.61D-05 15 14    55.71
  41      2.19565150    -0.84169146-14541.26782738     0.00068748    -0.00001064  0.26D-05  0.51D-05 15  4    57.02
  42      2.19045245    -0.84185691-14541.26799283    -0.00016545    -0.00001066  0.25D-05  0.51D-05 15  6    58.33
  43      2.19105214    -0.84182200-14541.26795792     0.00003492    -0.00001043  0.22D-05  0.51D-05 15 10    59.67
  44      2.19225415    -0.84174880-14541.26788472     0.00007320    -0.00001068  0.23D-05  0.53D-05 15  3    60.99
  45      2.19545274    -0.84161984-14541.26775576     0.00012896    -0.00001041  0.23D-05  0.52D-05 15  2    62.29
  46      2.19909224    -0.84143528-14541.26757121     0.00018455    -0.00001067  0.20D-05  0.56D-05 15  5    63.66
  47      2.20544486    -0.84133979-14541.26747572     0.00009549    -0.00000985  0.21D-05  0.50D-05 15 12    65.00
  48      2.20209006    -0.84162393-14541.26775985    -0.00028413    -0.00000905  0.24D-05  0.42D-05 15 11    66.32
  49      2.20299695    -0.84162621-14541.26776213    -0.00000228    -0.00000894  0.23D-05  0.42D-05 15  1    67.64
  50      2.20670861    -0.84148565-14541.26762158     0.00014056    -0.00000915  0.27D-05  0.41D-05 15  7    68.95
  51      2.20675262    -0.84152619-14541.26766211    -0.00004054    -0.00000867  0.25D-05  0.39D-05 15 12    71.52
  52      2.19650281    -0.84206396-14541.26819988    -0.00053777    -0.00000532  0.56D-06  0.30D-05 15 13    72.85
  53      2.19801507    -0.84211654-14541.26825247    -0.00005259    -0.00000485  0.22D-06  0.30D-05 15 15    74.17
  54      2.19592118    -0.84216151-14541.26829743    -0.00004496    -0.00000498  0.20D-06  0.31D-05 15  8    75.49
  55      2.19857783    -0.84210447-14541.26824039     0.00005703    -0.00000465  0.15D-06  0.29D-05 15 11    76.83
  56      2.19734798    -0.84216764-14541.26830356    -0.00006317    -0.00000414  0.14D-06  0.26D-05 15 12    78.16
  57      2.19773719    -0.84217263-14541.26830855    -0.00000499    -0.00000412  0.16D-06  0.26D-05 15  4    79.53
  58      2.19642805    -0.84215152-14541.26828744     0.00002111    -0.00000392  0.13D-06  0.25D-05 15  1    80.88
  59      2.19420970    -0.84221553-14541.26835145    -0.00006401    -0.00000382  0.16D-06  0.24D-05 15  6    82.24
  60      2.19572555    -0.84215836-14541.26829429     0.00005717    -0.00000363  0.20D-06  0.22D-05 15  7    83.61
  61      2.19643634    -0.84213973-14541.26827565     0.00001864    -0.00000361  0.22D-06  0.22D-05 15 13    84.97
  62      2.19582030    -0.84215383-14541.26828975    -0.00001410    -0.00000359  0.20D-06  0.22D-05 15  2    86.31
  63      2.19633656    -0.84213644-14541.26827237     0.00001738    -0.00000340  0.19D-06  0.21D-05 15  5    87.64
  64      2.19674670    -0.84211444-14541.26825037     0.00002200    -0.00000337  0.22D-06  0.21D-05 15  9    88.98
  65      2.19724650    -0.84210489-14541.26824082     0.00000955    -0.00000325  0.17D-06  0.20D-05 15 14    90.32
  66      2.19877681    -0.84204574-14541.26818167     0.00005915    -0.00000303  0.13D-06  0.19D-05 15 11    91.66
  67      2.19878403    -0.84203892-14541.26817484     0.00000683    -0.00000306  0.14D-06  0.19D-05 15  3    93.06
  68      2.19927067    -0.84203858-14541.26817450     0.00000034    -0.00000300  0.14D-06  0.19D-05 15 10    95.71
  69      2.20058125    -0.84198973-14541.26812565     0.00004885    -0.00000289  0.14D-06  0.18D-05 15 15    97.04
  70      2.20044911    -0.84199556-14541.26813148    -0.00000583    -0.00000290  0.15D-06  0.18D-05 15  9    98.35
  71      2.20186628    -0.84193947-14541.26807539     0.00005608    -0.00000283  0.10D-06  0.18D-05 15 11    99.74
  72      2.20269671    -0.84189940-14541.26803533     0.00004007    -0.00000278  0.79D-07  0.18D-05 15 14   101.10
  73      2.20255727    -0.84189561-14541.26803153     0.00000379    -0.00000278  0.88D-07  0.18D-05 15  5   102.43
  74      2.20311257    -0.84188045-14541.26801637     0.00001516    -0.00000278  0.81D-07  0.18D-05 15  8   103.72
  75      2.20400203    -0.84186088-14541.26799681     0.00001957    -0.00000274  0.88D-07  0.18D-05 15 13   105.07
  76      2.20353410    -0.84186880-14541.26800472    -0.00000791    -0.00000274  0.10D-06  0.18D-05 15  6   106.42
  77      2.20364075    -0.84186646-14541.26800238     0.00000234    -0.00000274  0.11D-06  0.18D-05 15 15   107.82
  78      2.20488827    -0.84183917-14541.26797509     0.00002729    -0.00000275  0.13D-06  0.18D-05 15 12   109.19
  79      2.20446481    -0.84184636-14541.26798229    -0.00000720    -0.00000272  0.82D-07  0.18D-05 15  7   111.03
  80      2.20342437    -0.84187785-14541.26801377    -0.00003148    -0.00000268  0.92D-07  0.17D-05 15  2   112.38
  81      2.20427319    -0.84186468-14541.26800061     0.00001316    -0.00000266  0.99D-07  0.17D-05 15 14   113.71
  82      2.20427548    -0.84186541-14541.26800134    -0.00000073    -0.00000266  0.10D-06  0.17D-05 15  7   115.04
  83      2.20418023    -0.84186557-14541.26800150    -0.00000016    -0.00000265  0.86D-07  0.17D-05 15  1   116.36
  84      2.20460545    -0.84185639-14541.26799231     0.00000918    -0.00000260  0.77D-07  0.17D-05 15  4   117.70
  85      2.20562206    -0.84183754-14541.26797347     0.00001885    -0.00000254  0.12D-06  0.16D-05 15 14   119.03
  86      2.20550000    -0.84184025-14541.26797617    -0.00000271    -0.00000254  0.11D-06  0.16D-05 15  6   120.38
  87      2.20570111    -0.84183373-14541.26796965     0.00000652    -0.00000252  0.11D-06  0.16D-05 15  3   121.73
  88      2.20536972    -0.84183949-14541.26797541    -0.00000576    -0.00000251  0.11D-06  0.16D-05 15  5   123.05
  89      2.20534051    -0.84184026-14541.26797618    -0.00000078    -0.00000250  0.99D-07  0.16D-05 15 13   124.37
  90      2.20428731    -0.84187113-14541.26800706    -0.00003087    -0.00000249  0.99D-07  0.16D-05 15 10   125.68
  91      2.20419382    -0.84186950-14541.26800542     0.00000164    -0.00000250  0.91D-07  0.16D-05 15  8   127.03
  92      2.20448641    -0.84186430-14541.26800023     0.00000519    -0.00000249  0.92D-07  0.16D-05 15  1   128.40
  93      2.20450436    -0.84186428-14541.26800020     0.00000002    -0.00000249  0.93D-07  0.16D-05 15  8   131.13
  94      2.20423536    -0.84187252-14541.26800844    -0.00000824    -0.00000248  0.95D-07  0.16D-05 15  1   133.58
  95      2.20413257    -0.84187599-14541.26801192    -0.00000347    -0.00000247  0.96D-07  0.16D-05 15  9   134.98
  96      2.20391518    -0.84188521-14541.26802113    -0.00000921    -0.00000247  0.91D-07  0.16D-05 15 11   137.86
  97      2.20401103    -0.84188012-14541.26801605     0.00000508    -0.00000248  0.95D-07  0.16D-05 15 14   139.79
  98      2.20399731    -0.84187863-14541.26801456     0.00000149    -0.00000248  0.98D-07  0.16D-05 15 11   141.12
  99      2.20379730    -0.84187991-14541.26801584    -0.00000128    -0.00000255  0.69D-07  0.16D-05 15  2   142.44

 Norm of t1 vector:      0.16540534      S-energy:     0.00241507      T1 diagnostic:  0.01811545
                                                                       D1 diagnostic:  0.05208948
 Norm of t2 vector:      1.08463744      P-energy:    -0.84429498
                                         Alpha-Beta:  -0.53252047
                                         Alpha-Alpha: -0.17351682
                                         Beta-Beta:   -0.13825769

 Singles amplitudes (print threshold =  0.500E-01):

         I         SYM. A    A   T(IA) [Beta-Beta]

         3         2         1      0.05811918
         6         3         1      0.09450718
         7         5         1     -0.05998106
         8         5         1      0.07774477

 Doubles amplitudes (print threshold =  0.500E-01):

         I         J         SYM. A    SYM. B    A         B      T(IJ, AB) [Alpha-Alpha]

         7         5         3         5         1         1     -0.13444752
         7         5         5         3         1         1      0.13444752
         8         5         3         5         1         1     -0.09252562
         8         5         5         3         1         1      0.09252562
         8         6         3         5         1         1     -0.05375312
         8         6         5         3         1         1      0.05375312
         9         2         3         5         1         1      0.07034220
         9         2         5         3         1         1     -0.07034220
         9         3         3         5         1         1      0.05440137
         9         3         5         3         1         1     -0.05440137

         I         J         SYM. A    SYM. B    A         B      T(IJ, AB) [Beta-Beta]

         5         2         2         3         1         1     -0.11768337
         5         2         3         2         1         1      0.11768337
         6         3         2         3         1         1     -0.24129338
         6         3         3         2         1         1      0.24129338
         9         8         2         3         1         1     -0.20496775
         9         8         3         2         1         1      0.20496775
         7         2         2         5         1         1     -0.22994568
         7         2         5         2         1         1      0.22994568
         8         2         2         5         1         1      0.09792504
         8         2         5         2         1         1     -0.09792504
         8         3         2         5         1         1     -0.10038978
         8         3         5         2         1         1      0.10038978
         9         5         2         5         1         1      0.18395674
         9         5         5         2         1         1     -0.18395674
         9         6         2         5         1         1     -0.09649846
         9         6         5         2         1         1      0.09649846
         7         5         3         5         1         1     -0.13444752
         7         5         5         3         1         1      0.13444752
         8         5         3         5         1         1     -0.09252562
         8         5         5         3         1         1      0.09252562
         8         6         3         5         1         1     -0.05375312
         8         6         5         3         1         1      0.05375312
         9         2         3         5         1         1      0.07034220
         9         2         5         3         1         1     -0.07034220
         9         3         3         5         1         1      0.05440137
         9         3         5         3         1         1     -0.05440137

         I         J         SYM. A    SYM. B    A         B      T(IJ, AB) [Alpha-Beta]

         1         1         3         3         1         1     -0.05213652
         1         1         5         5         1         1     -0.05175722
         2         2         3         3         1         1     -0.14925530
         3         2         3         3         1         1      0.06989583
         2         3         3         3         1         1      0.06989583
         3         3         5         5         1         1     -0.18086692
         4         2         5         5         1         1      0.14085130
         4         3         3         3         1         1     -0.14594317
         5         5         3         3         1         1      0.08558907
         5         5         5         5         1         1      0.11942777
         6         5         3         3         1         1      0.07470430
         5         6         3         3         1         1      0.07470430
         6         6         5         5         1         1     -0.17618873
         7         7         5         5         1         1      0.11424299
         8         7         3         3         1         1      0.14559063
         7         8         3         3         1         1      0.14559063
         5         2         3         2         1         1      0.19728380
         2         5         3         2         1         1      0.07960043
         5         3         3         2         1         1      0.10850286
         3         5         3         2         1         1      0.07314857
         6         2         3         2         1         1     -0.06556832
         2         6         3         2         1         1     -0.09835144
         6         3         3         2         1         1      0.12091620
         3         6         3         2         1         1     -0.12037718
         4         6         3         2         1         1      0.11955757
         9         7         3         2         1         1     -0.15860524
         7         9         3         2         1         1     -0.19523009
         9         8         3         2         1         1      0.09607155
         8         9         3         2         1         1     -0.10889620
         7         2         5         2         1         1      0.17481059
         2         7         5         2         1         1     -0.05513509
         4         7         5         2         1         1     -0.07602833
         8         2         5         2         1         1      0.06132066
         2         8         5         2         1         1      0.15924571
         8         3         5         2         1         1      0.18796209
         3         8         5         2         1         1      0.08757231
         4         8         5         2         1         1      0.09811118
         5         9         5         2         1         1      0.20628510
         9         6         5         2         1         1      0.18633355
         6         9         5         2         1         1      0.08983509
         7         5         5         3         1         1      0.09850306
         5         7         3         5         1         1      0.09850306
         8         5         3         5         1         1     -0.10743846
         5         8         5         3         1         1     -0.10743846
         8         6         3         5         1         1      0.05101918
         8         6         5         3         1         1      0.10477231
         6         8         3         5         1         1      0.10477231
         6         8         5         3         1         1      0.05101918
         9         2         3         5         1         1      0.09751936
         2         9         5         3         1         1      0.09751936
         9         3         3         5         1         1     -0.05322599
         9         3         5         3         1         1     -0.10762736
         3         9         3         5         1         1     -0.10762736
         3         9         5         3         1         1     -0.05322599
         4         9         3         5         1         1      0.08523402
         4         9         5         3         1         1      0.08560008

 ?CONVERGENCE NOT REACHED AFTER MAX. ITERATIONS

 ?ERROR: NO CONVERGENCE. TRIPLES WILL NOT BE DONE. THIS CAN BE AVOIDED USING THE NOCHECK OPTION.

 Spin contamination <S**2-Sz**2-Sz>     0.00000000


 RESULTS
 =======

  Reference energy                   -14540.4261359227
   --><property name="energy" method="Reference" stateSymmetry="1" stateNumber="1"
     value="-14540.4261359227"/><!--
  RCCSD singles energy                  0.002415065815
   --><property name="energy" method="RCCSD singles" stateSymmetry="1" stateNumber="1"
     value="0.241506581491646E-02"/><!--
  RCCSD pair energy                    -0.844294980110
   --><property name="energy" method="RCCSD pair" stateSymmetry="1" stateNumber="1"
     value="-0.844294980110082"/><!--
  RCCSD correlation energy             -0.841879914295
   --><property name="energy" method="RCCSD correlation" stateSymmetry="1" stateNumber="1"
     value="-0.841879914295166"/><!--

 !RHF-RCCSD energy                   -14541.2680158370
   --><property name="energy" method="RHF-RCCSD" principal="true" stateSymmetry="1"
     stateNumber="1" value="-14541.268015837"/><!--

 Program statistics:

 Available memory in ccsd:              1999999162
 Min. memory needed in ccsd:               3833964
 Max. memory used in ccsd:                 5334639
 Max. memory used in cckext:               4785847 (99 integral passes)
 Max. memory used in cckint:              14189922 ( 1 integral passes)


 ? Error
 ? No convergence. This error exit can be avoided using the NOCHECK option
 ? The problem occurs in ccsd
   --><error type="Error" location="ccsd"
     message="No convergence. This error exit can be avoided using the NOCHECK option"/><!--
  --></jobstep><!--
  -->
  <input>
  <!--
 --></job><!--
--></molpro>
