<?xml version="1.0"?>
<molpro xmlns="http://www.molpro.net/schema/molpro-output"
  xmlns:xsd="http://www.w3.org/1999/XMLSchema"
  xmlns:cml="http://www.xml-cml.org/schema"
  xmlns:stm="http://www.xml-cml.org/schema"
  xmlns:xhtml="http://www.w3.org/1999/xhtml">
 <!--

 Nodes     nprocs
 nid01379    11
 Number of processes for MPI-2 version of Molpro:   nprocs(total)=   12   nprocs(compute)=   11   nprocs(helper)=    1

 Using customized tuning parameters: mindgm=7; mindgv=16; mindgc=1; mindgr=1; noblas=0; minvec=7
 default implementation of scratch files=sf

 --><job>
  <!--

 Variables initialized (889), CPU time= 0.02 sec
 Commands  initialized (702), CPU time= 0.02 sec, 572 directives.
 Default parameters read. Elapsed time= 0.17 sec

 Checking input...
 Passed
1


                                         ***  PROGRAM SYSTEM MOLPRO  ***
                                       Copyright, TTI GmbH Stuttgart, 2015
                                    Version 2015.1 linked Dec 29 2018 15:55:43


 **********************************************************************************************************************************
 LABEL *   Calculation for GdH3 atom, singlet and triplet
  64 bit mpp version                                                                     DATE: 18-Dec-22          TIME: 19:41:15
 **********************************************************************************************************************************

 SHA1:             19cd028119e0e09f93f0674bd8af7968d9b3eff6
 **********************************************************************************************************************************
  -->
  <!--

 THRESHOLDS:

 ZERO    =  1.00D-12  ONEINT  =  1.00D-12  TWOINT  =  1.00D-15  PREFAC  =  1.00D-14  LOCALI  =  1.00D-09  EORDER  =  1.00D-04
 ENERGY  =  0.00D+00  ETEST   =  0.00D+00  EDENS   =  0.00D+00  THRDEDEF=  1.00D-06  GRADIENT=  1.00D-02  STEP    =  1.00D-03
 ORBITAL =  1.00D-05  CIVEC   =  1.00D-05  COEFF   =  1.00D-04  PRINTCI =  5.00D-02  PUNCHCI =  9.90D+01  OPTGRAD =  3.00D-04
 OPTENERG=  1.00D-06  OPTSTEP =  3.00D-04  THRGRAD =  1.00D-10  COMPRESS=  1.00D-11  VARMIN  =  1.00D-07  VARMAX  =  1.00D-03
 THRDOUB =  0.00D+00  THRDIV  =  1.00D-05  THRRED  =  1.00D-07  THRPSP  =  1.00D+00  THRDC   =  1.00D-10  THRCS   =  1.00D-10
 THRNRM  =  1.00D-08  THREQ   =  0.00D+00  THRDE   =  1.00D+00  THRREF  =  1.00D-05  SPARFAC =  1.00D+00  THRDLP  =  1.00D-07
 THRDIA  =  1.00D-10  THRDLS  =  1.00D-07  THRGPS  =  0.00D+00  THRKEX  =  0.00D+00  THRDIS  =  2.00D-01  THRVAR  =  1.00D-10
 THRLOC  =  1.00D-06  THRGAP  =  1.00D-06  THRLOCT = -1.00D+00  THRGAPT = -1.00D+00  THRORB  =  1.00D-06  THRMLTP =  0.00D+00
 THRCPQCI=  1.00D-10  KEXTA   =  0.00D+00  THRCOARS=  0.00D+00  SYMTOL  =  1.00D-06  GRADTOL =  1.00D-06  THROVL  =  1.00D-08
 THRORTH =  1.00D-08  GRID    =  1.00D-06  GRIDMAX =  1.00D-03  DTMAX   =  0.00D+00  THROCCDE=  1.00D-01  THROCCDE=  1.00D-01



 THRESHOLDS:

 ZERO    =  1.00D-12  ONEINT  =  1.00D-12  TWOINT  =  1.00D-15  PREFAC  =  1.00D-14  LOCALI  =  1.00D-09  EORDER  =  1.00D-04
 ENERGY  =  0.00D+00  ETEST   =  0.00D+00  EDENS   =  0.00D+00  THRDEDEF=  1.00D-06  GRADIENT=  1.00D-02  STEP    =  1.00D-03
 ORBITAL =  1.00D-05  CIVEC   =  1.00D-05  COEFF   =  1.00D-04  PRINTCI =  5.00D-02  PUNCHCI =  9.90D+01  OPTGRAD =  3.00D-04
 OPTENERG=  1.00D-06  OPTSTEP =  3.00D-04  THRGRAD =  1.00D-10  COMPRESS=  1.00D-11  VARMIN  =  1.00D-07  VARMAX  =  1.00D-03
 THRDOUB =  0.00D+00  THRDIV  =  1.00D-05  THRRED  =  1.00D-07  THRPSP  =  1.00D+00  THRDC   =  1.00D-10  THRCS   =  1.00D-10
 THRNRM  =  1.00D-08  THREQ   =  0.00D+00  THRDE   =  1.00D+00  THRREF  =  1.00D-05  SPARFAC =  1.00D+00  THRDLP  =  1.00D-07
 THRDIA  =  1.00D-10  THRDLS  =  1.00D-07  THRGPS  =  0.00D+00  THRKEX  =  0.00D+00  THRDIS  =  2.00D-01  THRVAR  =  1.00D-10
 THRLOC  =  1.00D-06  THRGAP  =  1.00D-06  THRLOCT = -1.00D+00  THRGAPT = -1.00D+00  THRORB  =  1.00D-06  THRMLTP =  0.00D+00
 THRCPQCI=  1.00D-10  KEXTA   =  0.00D+00  THRCOARS=  0.00D+00  SYMTOL  =  1.00D-06  GRADTOL =  1.00D-06  THROVL  =  1.00D-15
 THRORTH =  1.00D-08  GRID    =  1.00D-06  GRIDMAX =  1.00D-03  DTMAX   =  0.00D+00  THROCCDE=  1.00D-01  THROCCDE=  1.00D-01



 Variable memory set to 1000000000 words,  buffer space   230000 words

 SETTING BASIS          =    USERDEF
 SETTING GD_CCSD        =      -109.07008920
 SETTING H_CCSD         =        -0.49982987
 SETTING NE             =        21.00000000
 SETTING SYMM           =         1.00000000
 SETTING SS             =         5.00000000
 SETTING A1             =         6.00000000
 SETTING B1             =         3.00000000
 SETTING B2             =         3.00000000
 SETTING A2             =         1.00000000
 ZUNIT=ANG

  --><jobstep command="RKS-SCF" commandset="SCFPRO">
   <!--


 Recomputing integrals since basis changed


 Using spherical harmonics



 PROGRAM * SEWARD (Integral evaluation for generally contracted gaussian basis sets)     Author: Roland Lindh, 1990

 Geometry written to block  1 of record 700

 Orientation using atomic masses
 Molecule type: Symmetric top,     Order of principal axis = 3
 Symmetry elements: Y,Z
 Rotational constants:      63.1881409     63.1881409     31.5940704 GHz  (calculated with average atomic masses)

 Point group  C2v


   --><cml:molecule>
    <cml:symmetry pointGroup="C2v"/>
    <cml:atomArray>
     <cml:atom id="a1" elementType="Gd" x3="-0.550785678440913E-17" y3="0.0" z3="0.0"/>
     <cml:atom id="a2" elementType="H" x3="2.3" y3="0.0" z3="0.0"/>
     <cml:atom id="a3" elementType="H" x3="-1.15" y3="-1.99185842870421" z3="0.0"/>
     <cml:atom id="a4" elementType="H" x3="-1.15" y3="1.99185842870421" z3="0.0"/>
    </cml:atomArray>
    <cml:bondArray>
     <cml:bond atomRefs2="a1 a2"/>
     <cml:bond atomRefs2="a1 a3"/>
     <cml:bond atomRefs2="a1 a4"/>
    </cml:bondArray>
   </cml:molecule><!--

 ATOMIC COORDINATES

 NR  ATOM    CHARGE       X              Y              Z

   1  GD     18.00   -0.000000000    0.000000000    0.000000000
   2  H1      1.00    4.346370086    0.000000000    0.000000000
   3  H2      1.00   -2.173185043   -3.764066909    0.000000000
   4  H3      1.00   -2.173185043    3.764066909    0.000000000

 Bond lengths in Bohr (Angstrom)

 1-2  4.346370086  1-3  4.346370086  1-4  4.346370086
     ( 2.300000000)     ( 2.300000000)     ( 2.300000000)

 Bond angles

  2-1-3  120.00000000   2-1-4  120.00000000   3-1-4  120.00000000

 NUCLEAR CHARGE:                   21
 NUMBER OF PRIMITIVE AOS:         673
 NUMBER OF SYMMETRY AOS:          519
 NUMBER OF CONTRACTIONS:          519   ( 201A1  + 130B1  + 119B2  +  69A2  )
 NUMBER OF CORE ORBITALS:           0   (   0A1  +   0B1  +   0B2  +   0A2  )
 NUMBER OF VALENCE ORBITALS:       20   (   9A1  +   5B1  +   4B2  +   2A2  )


 NUCLEAR REPULSION ENERGY   12.82266574


 Eigenvalues of metric

         1 0.112E-06 0.294E-06 0.609E-06 0.723E-06 0.725E-06 0.737E-06 0.130E-05 0.339E-05
         2 0.609E-06 0.723E-06 0.430E-05 0.132E-04 0.236E-04 0.332E-04 0.652E-04 0.845E-04
         3 0.616E-06 0.727E-06 0.439E-05 0.139E-04 0.238E-04 0.446E-04 0.882E-04 0.148E-03
         4 0.727E-06 0.238E-04 0.148E-03 0.538E-03 0.825E-03 0.913E-03 0.406E-02 0.866E-02


 Contracted 2-electron integrals neglected if value below      1.0D-15
 AO integral compression algorithm  1   Integral accuracy      1.0D-15

     9948.889 MB (compressed) written to integral file ( 52.1%)

     Node minimum: 552.600 MB, node maximum: 1138.229 MB


 NUMBER OF SORTED TWO-ELECTRON INTEGRALS:  209955357.     BUFFER LENGTH:  32768
 NUMBER OF SEGMENTS:   7  SEGMENT LENGTH:   31983120      RECORD LENGTH: 524288

 Memory used in sort:      32.54 MW

 SORT1 READ  2385076976. AND WROTE   118791588. INTEGRALS IN    343 RECORDS. CPU TIME:    47.28 SEC, REAL TIME:    68.99 SEC
 SORT2 READ  1301514724. AND WROTE  2310732286. INTEGRALS IN  33869 RECORDS. CPU TIME:     3.39 SEC, REAL TIME:     7.77 SEC

 Node minimum:   209948383.  Node maximum:   210299431. integrals

 OPERATOR DM      FOR CENTER  0  COORDINATES:    0.000000    0.000000    0.000000


 **********************************************************************************************************************************
 DATASETS  * FILE   NREC   LENGTH (MB)   RECORD NAMES
              1      19       23.13       500      610      700      900      950      970     1000      129      960     1100
                                          VAR    BASINP    GEOM    SYMINP    ZMAT    AOBASIS   BASIS     P2S    ABASIS      S
                                         1400     1410     1420     1200     1210     1080     1600     1650     1700
                                           T        V       ECP      H0       H01     AOSYM     SMH    MOLCAS    OPER

 PROGRAMS   *        TOTAL       INT
 CPU TIMES  *       193.69    193.24
 REAL TIME  *       221.70 SEC
 DISK USED  *        25.58 GB
 GA USED    *         0.00 MB       (max)       0.00 MB       (current)
 **********************************************************************************************************************************

 Density functional group PBE0=PBEX+PBEC
 Functional: PBEX(Automatically generated (new) PBEX)                          Gradient terms: 1
 Functional: PBEC(Automatically generated (new) PBEC)                          Gradient terms: 1
 Use grid at  1800.2


 Exact exchange will be calculated, factor:  0.2500

 Functional: PBEX                      Factor:  0.7500
 Functional: PBEC                      Factor:  1.0000

 Generated new metagrid on record  1800.2 with target accuracy 1.0D-06 and 5593 points in CPU time    0.1
 Computed new grid on record 1800.1 in CPU time    0.1
  414270 words reserved for DFT integration

 PROGRAM * RKS-SCF (Restricted open shell Kohn-Sham)     Authors: W. Meyer, H.-J. Werner, P.J. Knowles, 1993

 NUMBER OF ELECTRONS:      12+    8-    SPACE SYMMETRY=1    SPIN SYMMETRY: Quintet
 CONVERGENCE THRESHOLDS:    1.00E-05 (Density)    1.00E-06 (Energy)
 MAX. NUMBER OF ITERATIONS:      200
 INTERPOLATION TYPE:            DIIS
 INTERPOLATION STEPS:              2 (START)      1 (STEP)
 LEVEL SHIFTS:                 -2.00 (CLOSED) -1.00 (OPEN)

 Number of closed-shell orbitals:    8 (   4   2   2   0 )
 Number of open-shell orbitals:      4 (   1   1   1   1 )


 Use fine grid record 1800.2 for energy threshold  1.0D-06
 Guess basis ATOMIC-GUESS,GD=ECP46_GUESS not found. No density guess!


 Molecular orbital dump at record        2202.2

 ITERATION    DDIFF          GRAD             ENERGY        2-EL.EN.            DIPOLE MOMENTS         DIIS   ORB.
    1      0.000D+00      0.000D+00       -67.51518329    435.650404   -0.00200    0.00000    0.00000    0    start
    2      0.000D+00      0.233D+00       -47.36235783     49.739001   -1.12337    0.00000    0.00000    0    diag,B
    3      0.150D+00      0.821D-01       -72.47921117    423.504230   -0.00666    0.00000    0.00000    1    diag,B
    4      0.130D+00      0.217D+00       -81.90606316    399.261351   -0.01683    0.00000    0.00000    2    diag,B
    5      0.147D-01      0.175D+00       -90.09368952    373.114044   -0.05730    0.00000    0.00000    3    diag,B
    6      0.162D-01      0.138D+00       -96.01821798    348.790537   -0.29830    0.00000    0.00000    4    diag,B
    7      0.111D-01      0.111D+00       -98.63313521    335.673770   -0.89294    0.00000    0.00000    5    diag,B
    8      0.834D-02      0.103D+00       -98.64707867    335.249926   -0.82753    0.00000    0.00000    6    diag,B
    9      0.361D-02      0.101D+00       -98.99932667    332.666476   -1.24226    0.00000    0.00000    7    diag,B
   10      0.349D-02      0.101D+00      -100.33309683    325.416170   -1.27635    0.00000    0.00000    8    orth
   11      0.105D-01      0.942D-01      -100.33426498    325.418729   -1.21538    0.00000    0.00000    9    diag,B
   12      0.112D-02      0.939D-01      -100.73814817    322.978359   -1.08788    0.00000    0.00000   10    diag,B
   13      0.651D-02      0.918D-01      -100.77431177    322.771321   -1.02015    0.00000    0.00000   11    diag,B
   14      0.170D-02      0.912D-01      -101.14561521    320.754335   -0.59276    0.00000    0.00000   12    diag,B
   15      0.481D-02      0.890D-01      -101.19614677    320.340848   -0.52513    0.00000    0.00000   13    diag,B
   16      0.265D-02      0.882D-01      -102.28801957    313.465648    0.08041    0.00000    0.00000   14    diag,B
   17      0.162D-01      0.814D-01      -102.20252056    313.831250    0.02755    0.00000    0.00000   15    diag,B
   18      0.296D-02      0.816D-01      -102.37233262    313.063629   -0.01760    0.00000    0.00000   16    diag,B
   19      0.289D-02      0.808D-01      -103.27434280    307.427626   -0.07040    0.00000    0.00000   17    diag,B
   20      0.239D-01      0.752D-01      -106.82935777    284.998748    0.10528    0.00000    0.00000   18    orth
   21      0.394D-01      0.487D-01      -108.12259756    275.012312    0.37701    0.00000    0.00000   19    diag,B
   22      0.772D-01      0.358D-01      -109.63766168    254.644063    1.63832    0.00000    0.00000   20    diag,B
   23      0.519D-01      0.210D-01      -110.77208427    228.104200    2.50717    0.00000    0.00000   21    diag,B
   24      0.297D-01      0.626D-02      -110.94285868    217.778157    2.07455    0.00000    0.00000   22    diag,B
   25      0.862D-02      0.107D-01      -111.00792597    216.934096    1.79989    0.00000    0.00000   23    diag,B
   26      0.272D-02      0.105D-01      -111.12235458    216.404133    1.40007    0.00000    0.00000   24    diag,B
   27      0.289D-02      0.930D-02      -111.31750241    216.958588    0.85255    0.00000    0.00000   25    diag,B
   28      0.534D-02      0.617D-02      -111.45054254    219.941769    0.18888    0.00000    0.00000   26    diag,B
   29      0.102D-01      0.188D-02      -111.45986841    220.418125    0.07179    0.00000    0.00000   27    diag,B
   30      0.258D-02      0.159D-02      -111.46942614    219.792363    0.08193    0.00000    0.00000   28    orth
   31      0.139D-02      0.101D-02      -111.47899396    219.367964    0.06734    0.00000    0.00000   29    diag,B
   32      0.138D-02      0.605D-03      -111.48205086    219.438434    0.08618    0.00000    0.00000   29    diag,B
   33      0.935D-03      0.481D-03      -111.48452006    219.280090    0.15719    0.00000    0.00000   29    diag,B
   34      0.126D-02      0.279D-03      -111.48538487    219.415679    0.14395    0.00000    0.00000   29    diag,B
   35      0.561D-03      0.243D-03      -111.48574414    219.293764    0.16543    0.00000    0.00000   29    diag,B
   36      0.246D-03      0.133D-03      -111.48608170    219.309463    0.16368    0.00000    0.00000   29    diag,B
   37      0.325D-03      0.954D-04      -111.48626401    219.265479    0.16990    0.00000    0.00000   29    diag,B
   38      0.387D-03      0.749D-04      -111.48639658    219.262324    0.17020    0.00000    0.00000   29    diag,B
   39      0.345D-03      0.598D-04      -111.48651944    219.261195    0.16953    0.00000    0.00000   29    diag,B
   40      0.143D-03      0.489D-04      -111.48663366    219.257678    0.16761    0.00000    0.00000   29    orth
   41      0.377D-03      0.418D-04      -111.48672350    219.264566    0.16469    0.00000    0.00000   29    diag,B
   42      0.363D-03      0.380D-04      -111.48679059    219.269689    0.16377    0.00000    0.00000   29    diag,B
   43      0.126D-03      0.352D-04      -111.48686889    219.279688    0.16266    0.00000    0.00000   29    diag,B
   44      0.383D-03      0.328D-04      -111.48695764    219.304302    0.16195    0.00000    0.00000   29    diag,B
   45      0.417D-03      0.297D-04      -111.48705578    219.340197    0.16191    0.00000    0.00000   29    diag,B
   46      0.181D-03      0.267D-04      -111.48713178    219.376127    0.16272    0.00000    0.00000   29    diag,B
   47      0.383D-03      0.237D-04      -111.48724164    219.427382    0.16413    0.00000    0.00000   29    diag,B
   48      0.345D-03      0.264D-04      -111.48723662    219.425046    0.16415    0.00000    0.00000   29    diag,B
   49      0.120D-04      0.265D-04      -111.48721469    219.417436    0.16436    0.00000    0.00000   29    fixocc
   50      0.884D-04      0.268D-04      -111.48718515    219.406034    0.16484    0.00000    0.00000   29    orth
   51      0.521D-04      0.285D-04      -111.48721041    219.413335    0.16480    0.00000    0.00000   29    diag,B
   52      0.272D-04      0.287D-04      -111.48724410    219.421571    0.16503    0.00000    0.00000   29    diag,B
   53      0.356D-04      0.303D-04      -111.48721969    219.414558    0.16531    0.00000    0.00000   29    diag,B
   54      0.258D-04      0.303D-04      -111.48716139    219.399752    0.16554    0.00000    0.00000   29    diag,B
   55      0.639D-04      0.313D-04      -111.48723368    219.421333    0.16572    0.00000    0.00000   29    diag,B
   56      0.807D-04      0.303D-04      -111.48733920    219.456352    0.16532    0.00000    0.00000   29    diag,B
   57      0.108D-03      0.354D-04      -111.48729890    219.456572    0.16567    0.00000    0.00000   29    diag,B
   58      0.117D-03      0.408D-04      -111.48714881    219.420241    0.16481    0.00000    0.00000   29    diag,B
   59      0.186D-03      0.416D-04      -111.48712065    219.415836    0.16406    0.00000    0.00000   29    diag,B
   60      0.952D-04      0.462D-04      -111.48710805    219.412397    0.16415    0.00000    0.00000   29    orth
   61      0.183D-04      0.456D-04      -111.48711784    219.417255    0.16575    0.00000    0.00000   29    diag,B
   62      0.237D-03      0.533D-04      -111.48711572    219.416644    0.16627    0.00000    0.00000   29    diag,B
   63      0.155D-03      0.572D-04      -111.48709471    219.410921    0.16595    0.00000    0.00000   29    diag,B
   64      0.262D-04      0.574D-04      -111.48708443    219.410812    0.16637    0.00000    0.00000   29    diag,B
   65      0.382D-04      0.634D-04      -111.48708364    219.411671    0.16620    0.00000    0.00000   29    diag,B
   66      0.332D-04      0.644D-04      -111.48710215    219.415456    0.16585    0.00000    0.00000   29    diag,B
   67      0.708D-04      0.626D-04      -111.48710656    219.416857    0.16611    0.00000    0.00000   29    diag,B
   68      0.280D-04      0.618D-04      -111.48710204    219.415196    0.16635    0.00000    0.00000   29    diag,B
   69      0.350D-04      0.621D-04      -111.48707120    219.408616    0.16490    0.00000    0.00000   29    diag,B
   70      0.111D-03      0.675D-04      -111.48706439    219.407175    0.16494    0.00000    0.00000   29    orth
   71      0.746D-05      0.682D-04      -111.48709540    219.411576    0.16458    0.00000    0.00000   29    diag,B
   72      0.434D-04      0.653D-04      -111.48710364    219.415002    0.16488    0.00000    0.00000   29    diag,B
   73      0.318D-04      0.642D-04      -111.48708089    219.407572    0.16463    0.00000    0.00000   29    diag,B
   74      0.320D-04      0.663D-04      -111.48709488    219.415569    0.16546    0.00000    0.00000   29    diag,B
   75      0.136D-03      0.652D-04      -111.48714089    219.428190    0.16613    0.00000    0.00000   29    diag,B
   76      0.823D-04      0.619D-04      -111.48714827    219.429042    0.16607    0.00000    0.00000   29    diag,B
   77      0.154D-04      0.618D-04      -111.48714748    219.429939    0.16636    0.00000    0.00000   29    diag,B
   78      0.254D-04      0.615D-04      -111.48716418    219.435827    0.16716    0.00000    0.00000   29    diag,B
   79      0.595D-04      0.605D-04      -111.48716467    219.436553    0.16716    0.00000    0.00000   29    diag,B
   80      0.482D-04      0.607D-04      -111.48717095    219.436637    0.16716    0.00000    0.00000   29    orth
   81      0.249D-04      0.605D-04      -111.48716316    219.436148    0.16708    0.00000    0.00000   29    diag,B
   82      0.178D-04      0.607D-04      -111.48716360    219.436343    0.16711    0.00000    0.00000   29    diag,B
   83      0.109D-05      0.607D-04      -111.48716073    219.436206    0.16711    0.00000    0.00000   29    diag,B
   84      0.571D-04      0.610D-04      -111.48715965    219.435156    0.16696    0.00000    0.00000   29    diag,B
   85      0.345D-04      0.610D-04      -111.48715857    219.433693    0.16674    0.00000    0.00000   29    diag,B
   86      0.395D-04      0.611D-04      -111.48716646    219.437887    0.16747    0.00000    0.00000   29    diag,B
   87      0.756D-04      0.605D-04      -111.48717462    219.441993    0.16808    0.00000    0.00000   29    diag,B
   88      0.207D-04      0.603D-04      -111.48717938    219.444796    0.16840    0.00000    0.00000   29    diag,B
   89      0.570D-04      0.604D-04      -111.48718678    219.445950    0.16860    0.00000    0.00000   29    diag,B
   90      0.161D-04      0.602D-04      -111.48717823    219.443119    0.16791    0.00000    0.00000   29    orth
   91      0.266D-04      0.608D-04      -111.48718350    219.443988    0.16819    0.00000    0.00000   29    diag,B
   92      0.373D-04      0.603D-04      -111.48718315    219.443774    0.16829    0.00000    0.00000   29    diag,B
   93      0.726D-04      0.604D-04      -111.48718593    219.445635    0.16871    0.00000    0.00000   29    diag,B
   94      0.674D-04      0.599D-04      -111.48717624    219.442858    0.16805    0.00000    0.00000   29    diag,B
   95      0.328D-04      0.607D-04      -111.48717752    219.442782    0.16803    0.00000    0.00000   29    diag,B
   96      0.120D-04      0.608D-04      -111.48715266    219.439328    0.16780    0.00000    0.00000   29    diag,B
   97      0.119D-03      0.625D-04      -111.48716989    219.442239    0.16778    0.00000    0.00000   29    diag,B
   98      0.356D-04      0.617D-04      -111.48716814    219.444074    0.16808    0.00000    0.00000   29    diag,B
   99      0.396D-04      0.615D-04      -111.48716666    219.443616    0.16817    0.00000    0.00000   29    diag,B
  100      0.136D-04      0.614D-04      -111.48716347    219.441110    0.16766    0.00000    0.00000   29    orth
  101      0.250D-04      0.621D-04      -111.48717126    219.443423    0.16810    0.00000    0.00000   29    diag,B
  102      0.340D-04      0.613D-04      -111.48717403    219.441872    0.16789    0.00000    0.00000   29    diag,B
  103      0.357D-04      0.613D-04      -111.48718219    219.444600    0.16844    0.00000    0.00000   29    diag,B
  104      0.332D-04      0.604D-04      -111.48718327    219.443532    0.16833    0.00000    0.00000   29    diag,B
  105      0.527D-04      0.604D-04      -111.48718757    219.445616    0.16874    0.00000    0.00000   29    diag,B
  106      0.213D-04      0.598D-04      -111.48717781    219.443875    0.16844    0.00000    0.00000   29    diag,B
  107      0.628D-04      0.604D-04      -111.48717272    219.442014    0.16798    0.00000    0.00000   29    diag,B
  108      0.294D-04      0.612D-04      -111.48717535    219.443129    0.16821    0.00000    0.00000   29    diag,B
  109      0.200D-04      0.608D-04      -111.48717546    219.443061    0.16815    0.00000    0.00000   29    diag,B
  110      0.173D-05      0.608D-04      -111.48717277    219.441818    0.16811    0.00000    0.00000   29    orth
  111      0.414D-04      0.612D-04      -111.48717457    219.442021    0.16778    0.00000    0.00000   29    diag,B
  112      0.230D-04      0.610D-04      -111.48717500    219.440924    0.16765    0.00000    0.00000   29    diag,B
  113      0.553D-04      0.611D-04      -111.48717725    219.443269    0.16812    0.00000    0.00000   29    diag,B
  114      0.742D-04      0.606D-04      -111.48717772    219.443475    0.16820    0.00000    0.00000   29    diag,B
  115      0.408D-05      0.606D-04      -111.48717301    219.440833    0.16753    0.00000    0.00000   29    diag,B
  116      0.516D-04      0.613D-04      -111.48717874    219.443654    0.16836    0.00000    0.00000   29    diag,B
  117      0.404D-04      0.606D-04      -111.48717829    219.442268    0.16818    0.00000    0.00000   29    diag,B
  118      0.637D-04      0.607D-04      -111.48718204    219.444707    0.16859    0.00000    0.00000   29    diag,B
  119      0.760D-04      0.602D-04      -111.48718416    219.445037    0.16869    0.00000    0.00000   29    diag,B
  120      0.155D-04      0.600D-04      -111.48716326    219.439255    0.16743    0.00000    0.00000   29    orth
  121      0.833D-04      0.618D-04      -111.48716598    219.438867    0.16738    0.00000    0.00000   29    diag,B
  122      0.544D-04      0.618D-04      -111.48716467    219.439541    0.16744    0.00000    0.00000   29    diag,B
  123      0.572D-04      0.616D-04      -111.48716438    219.438385    0.16722    0.00000    0.00000   29    diag,B
  124      0.358D-04      0.615D-04      -111.48716791    219.440786    0.16772    0.00000    0.00000   29    diag,B
  125      0.319D-04      0.616D-04      -111.48716826    219.439590    0.16760    0.00000    0.00000   29    diag,B
  126      0.592D-04      0.616D-04      -111.48717005    219.441530    0.16785    0.00000    0.00000   29    diag,B
  127      0.746D-04      0.612D-04      -111.48716918    219.440931    0.16767    0.00000    0.00000   29    diag,B
  128      0.262D-05      0.613D-04      -111.48716728    219.440276    0.16779    0.00000    0.00000   29    diag,B
  129      0.535D-04      0.617D-04      -111.48716691    219.438943    0.16716    0.00000    0.00000   29    diag,B
  130      0.254D-04      0.616D-04      -111.48717122    219.439769    0.16766    0.00000    0.00000   29    orth
  131      0.733D-04      0.612D-04      -111.48717320    219.440083    0.16737    0.00000    0.00000   29    diag,B
  132      0.606D-04      0.609D-04      -111.48717868    219.441280    0.16787    0.00000    0.00000   29    diag,B
  133      0.611D-04      0.603D-04      -111.48717749    219.442884    0.16806    0.00000    0.00000   29    diag,B
  134      0.103D-03      0.604D-04      -111.48717684    219.442754    0.16807    0.00000    0.00000   29    diag,B
  135      0.394D-05      0.606D-04      -111.48717173    219.440035    0.16737    0.00000    0.00000   29    diag,B
  136      0.278D-04      0.612D-04      -111.48717785    219.442799    0.16822    0.00000    0.00000   29    diag,B
  137      0.179D-04      0.607D-04      -111.48717558    219.440645    0.16777    0.00000    0.00000   29    diag,B
  138      0.614D-04      0.609D-04      -111.48718437    219.445090    0.16888    0.00000    0.00000   29    diag,B
  139      0.465D-04      0.600D-04      -111.48718552    219.444665    0.16889    0.00000    0.00000   29    diag,B
  140      0.551D-04      0.598D-04      -111.48717987    219.443153    0.16817    0.00000    0.00000   29    orth
  141      0.995D-04      0.603D-04      -111.48717669    219.440942    0.16761    0.00000    0.00000   29    diag,B
  142      0.270D-04      0.607D-04      -111.48718176    219.444001    0.16853    0.00000    0.00000   29    diag,B
  143      0.107D-04      0.603D-04      -111.48718020    219.442201    0.16820    0.00000    0.00000   29    diag,B
  144      0.642D-04      0.604D-04      -111.48718597    219.445710    0.16893    0.00000    0.00000   29    diag,B
  145      0.646D-04      0.598D-04      -111.48718790    219.446093    0.16912    0.00000    0.00000   29    diag,B
  146      0.346D-04      0.596D-04      -111.48717650    219.441355    0.16780    0.00000    0.00000   29    diag,B
  147      0.540D-04      0.607D-04      -111.48717776    219.440987    0.16788    0.00000    0.00000   29    diag,B
  148      0.693D-04      0.606D-04      -111.48717910    219.442654    0.16825    0.00000    0.00000   29    diag,B
  149      0.837D-04      0.603D-04      -111.48718013    219.442567    0.16841    0.00000    0.00000   29    diag,B
  150      0.293D-04      0.602D-04      -111.48717876    219.442705    0.16787    0.00000    0.00000   29    orth
  151      0.218D-04      0.605D-04      -111.48717757    219.441307    0.16773    0.00000    0.00000   29    diag,B
  152      0.618D-04      0.607D-04      -111.48718081    219.443574    0.16816    0.00000    0.00000   29    diag,B
  153      0.740D-04      0.602D-04      -111.48718209    219.443578    0.16816    0.00000    0.00000   29    diag,B
  154      0.879D-05      0.601D-04      -111.48716386    219.441434    0.16809    0.00000    0.00000   29    diag,B
  155      0.659D-04      0.614D-04      -111.48716359    219.439533    0.16755    0.00000    0.00000   29    diag,B
  156      0.489D-04      0.617D-04      -111.48716359    219.441977    0.16842    0.00000    0.00000   29    diag,B
  157      0.460D-04      0.613D-04      -111.48716089    219.441157    0.16855    0.00000    0.00000   29    diag,B
  158      0.349D-04      0.613D-04      -111.48716596    219.440911    0.16775    0.00000    0.00000   29    diag,B
  159      0.309D-04      0.615D-04      -111.48716586    219.439654    0.16765    0.00000    0.00000   29    diag,B
  160      0.598D-04      0.615D-04      -111.48717155    219.442263    0.16796    0.00000    0.00000   29    orth
  161      0.776D-04      0.610D-04      -111.48717459    219.442169    0.16784    0.00000    0.00000   29    diag,B
  162      0.170D-04      0.608D-04      -111.48715906    219.440214    0.16797    0.00000    0.00000   29    diag,B
  163      0.415D-04      0.618D-04      -111.48716514    219.439492    0.16761    0.00000    0.00000   29    diag,B
  164      0.537D-04      0.616D-04      -111.48715986    219.440953    0.16849    0.00000    0.00000   29    diag,B
  165      0.429D-04      0.614D-04      -111.48716510    219.440461    0.16841    0.00000    0.00000   29    diag,B
  166      0.584D-04      0.610D-04      -111.48716504    219.442592    0.16868    0.00000    0.00000   29    diag,B
  167      0.974D-04      0.609D-04      -111.48716427    219.442259    0.16851    0.00000    0.00000   29    diag,B
  168      0.809D-05      0.610D-04      -111.48715899    219.439835    0.16794    0.00000    0.00000   29    diag,B
  169      0.505D-04      0.617D-04      -111.48716298    219.442026    0.16853    0.00000    0.00000   29    diag,B
  170      0.452D-04      0.611D-04      -111.48716178    219.441776    0.16869    0.00000    0.00000   29    orth
  171      0.139D-04      0.611D-04      -111.48716312    219.440528    0.16771    0.00000    0.00000   29    diag,B
  172      0.230D-04      0.615D-04      -111.48716081    219.439787    0.16813    0.00000    0.00000   29    diag,B
  173      0.458D-04      0.615D-04      -111.48717316    219.441370    0.16765    0.00000    0.00000   29    diag,B
  174      0.381D-04      0.609D-04      -111.48717427    219.441187    0.16811    0.00000    0.00000   29    diag,B
  175      0.472D-04      0.606D-04      -111.48718235    219.443741    0.16808    0.00000    0.00000   29    diag,B
  176      0.757D-04      0.601D-04      -111.48718589    219.444001    0.16831    0.00000    0.00000   29    diag,B
  177      0.326D-04      0.598D-04      -111.48716373    219.441645    0.16808    0.00000    0.00000   29    diag,B
  178      0.108D-03      0.612D-04      -111.48715774    219.439480    0.16781    0.00000    0.00000   29    diag,B
  179      0.501D-04      0.618D-04      -111.48717775    219.445354    0.16831    0.00000    0.00000   29    diag,B
  180      0.543D-04      0.612D-04      -111.48717996    219.444909    0.16842    0.00000    0.00000   29    orth
  181      0.345D-04      0.612D-04      -111.48717937    219.446028    0.16821    0.00000    0.00000   29    diag,B
  182      0.373D-04      0.608D-04      -111.48717778    219.445448    0.16796    0.00000    0.00000   29    diag,B
  183      0.178D-04      0.612D-04      -111.48717474    219.443277    0.16727    0.00000    0.00000   29    diag,B
  184      0.728D-04      0.625D-04      -111.48717167    219.443574    0.16757    0.00000    0.00000   29    diag,B
  185      0.523D-04      0.622D-04      -111.48717246    219.441712    0.16730    0.00000    0.00000   29    diag,B
  186      0.796D-04      0.625D-04      -111.48717232    219.444105    0.16785    0.00000    0.00000   29    diag,B
  187      0.945D-04      0.620D-04      -111.48717241    219.443222    0.16798    0.00000    0.00000   29    diag,B
  188      0.390D-04      0.619D-04      -111.48717963    219.445417    0.16790    0.00000    0.00000   29    diag,B
  189      0.457D-04      0.616D-04      -111.48718151    219.444744    0.16773    0.00000    0.00000   29    diag,B
  190      0.218D-04      0.617D-04      -111.48717256    219.443506    0.16770    0.00000    0.00000   29    orth
  191      0.134D-04      0.622D-04      -111.48718106    219.443127    0.16755    0.00000    0.00000   29    diag,B
  192      0.399D-04      0.619D-04      -111.48717375    219.442474    0.16778    0.00000    0.00000   29    diag,B
  193      0.182D-04      0.620D-04      -111.48718777    219.443402    0.16785    0.00000    0.00000   29    diag,B
  194      0.289D-04      0.613D-04      -111.48718414    219.443701    0.16829    0.00000    0.00000   29    diag,B
  195      0.255D-04      0.609D-04      -111.48719820    219.445922    0.16844    0.00000    0.00000   29    diag,B
  196      0.305D-04      0.602D-04      -111.48719673    219.446758    0.16891    0.00000    0.00000   29    diag,B
  197      0.249D-04      0.598D-04      -111.48718432    219.445970    0.16797    0.00000    0.00000   29    diag,B
  198      0.130D-03      0.605D-04      -111.48717795    219.444557    0.16764    0.00000    0.00000   29    diag,B
  199      0.136D-04      0.612D-04      -111.48717917    219.444241    0.16757    0.00000    0.00000   29    orth
  200      0.172D-04      0.617D-04      -111.48718646    219.437030    0.16768    0.00000    0.00000    0    orth

 Final alpha occupancy:   5   3   3   1
 Final beta  occupancy:   4   2   2   0

 !RKS STATE 1.1 Energy               -111.487186462170
   --><property name="Energy" method="RKS" principal="true" stateSymmetry="1" stateNumber="1"
     value="-111.48718646217"/><!--
 Nuclear energy                        12.82266574
 One-electron energy                 -224.08447328
 Two-electron energy                  109.71851510
 Density functional                    -9.94389403     PBEX=-12.34752305 PBEC= -0.68325174
 Virial quotient                       -0.79752789
 !RKS STATE 1.1 Dipole moment           0.16767645     0.00000000     0.00000000
 Dipole moment /Debye                   0.42616311     0.00000000     0.00000000
   --><property name="Dipole moment" method="RKS" principal="true" stateSymmetry="1"
     stateNumber="1" value="0.16767644948324 0.0 0.0"/><!--

 ELECTRON ORBITALS
 =================


   Orb  Occ    Energy  Couls-En    Coefficients

                                   1 1s      1 1s      1 1s      1 1s      1 1s      1 1s      1 1s      1 1s      1 1s      1 1s
                                   1 1s      1 1s      1 1s      1 1s      1 1s      1 1s      1 1s      1 1s      1 1s      1 1s
                                   1 1s      1 1s      1 1s      1 1s      1 1s      1 1s      1 1s      1 1s      1 1s      1 1s
                                   1 1s      1 1s      1 2px     1 2px     1 2px     1 2px     1 2px     1 2px     1 2px     1 2px
                                   1 2px     1 2px     1 2px     1 2px     1 2px     1 2px     1 2px     1 2px     1 2px     1 2px
                                   1 2px     1 2px     1 2px     1 2px     1 2px     1 2px     1 2px     1 2px     1 2px     1 2px
                                   1 2px     1 2px     1 3d0     1 3d2+    1 3d0     1 3d2+    1 3d0     1 3d2+    1 3d0     1 3d2+
                                   1 3d0     1 3d2+    1 3d0     1 3d2+    1 3d0     1 3d2+    1 3d0     1 3d2+    1 3d0     1 3d2+
                                   1 3d0     1 3d2+    1 3d0     1 3d2+    1 3d0     1 3d2+    1 3d0     1 3d2+    1 3d0     1 3d2+
                                   1 3d0     1 3d2+    1 3d0     1 3d2+    1 3d0     1 3d2+    1 3d0     1 3d2+    1 3d0     1 3d2+
                                   1 3d0     1 3d2+    1 3d0     1 3d2+    1 3d0     1 3d2+    1 4f1+    1 4f3+    1 4f1+    1 4f3+
                                   1 4f1+    1 4f3+    1 4f1+    1 4f3+    1 4f1+    1 4f3+    1 4f1+    1 4f3+    1 4f1+    1 4f3+
                                   1 4f1+    1 4f3+    1 4f1+    1 4f3+    1 4f1+    1 4f3+    1 4f1+    1 4f3+    1 4f1+    1 4f3+
                                   1 4f1+    1 4f3+    1 4f1+    1 4f3+    1 5g0     1 5g4+    1 5g2+    1 5g0     1 5g4+    1 5g2+
                                   1 5g0     1 5g4+    1 5g2+    1 5g0     1 5g4+    1 5g2+    1 5g0     1 5g4+    1 5g2+    1 5g0
                                   1 5g4+    1 5g2+    1 5g0     1 5g4+    1 5g2+    1 5g0     1 5g4+    1 5g2+    1 5g0     1 5g4+
                                   1 5g2+    1 6h1+    1 6h3+    1 6h5+    1 6h1+    1 6h3+    1 6h5+    1 6h1+    1 6h3+    1 6h5+
                                   2 1s      2 1s      2 1s      2 1s      2 1s      2 1s      2 2px     2 2px     2 2px     2 3d0
                                   2 3d2+    2 3d0     2 3d2+    3 1s      3 1s      3 1s      3 1s      3 1s      3 1s      3 2px
                                   3 2py     3 2px     3 2py     3 2px     3 2py     3 3d0     3 3d2+    3 3d2-    3 3d0     3 3d2+
                                   3 3d2-

   1.1   2    -2.0114  -14.9230  0.000000 -0.000001  0.000003 -0.000064 -0.000282 -0.000882 -0.001907 -0.004580  0.002392 -0.011258
                                -0.065879 -0.894802  0.243064 -0.189901 -0.964170 -0.448413 -0.370843 -0.239664 -0.085588  0.000112
                                 0.000508  0.001521  0.004584  0.193621  1.104423  0.161053  0.165730  0.446939  0.131648  0.004154
                                -0.001475  0.000320  0.000000 -0.000000  0.000000 -0.000000  0.000000 -0.000000  0.000000 -0.000000
                                 0.000000  0.000001  0.000021  0.000035 -0.000806  0.000111 -0.002393 -0.000958 -0.000564  0.000107
                                 0.000094 -0.000005 -0.000040  0.000459  0.000793  0.000439 -0.000617  0.000028 -0.000096 -0.000213
                                -0.000004  0.000001  0.000000 -0.000000 -0.000002  0.000001  0.000010 -0.000003 -0.000055  0.000016
                                 0.000852 -0.000236  0.003926 -0.001984  0.000081  0.002577  0.000967  0.000217  0.004901 -0.001140
                                -0.000053 -0.000299 -0.001766  0.000539 -0.004475  0.003626  0.001449 -0.004505 -0.001347 -0.000552
                                -0.004944 -0.000371 -0.000269 -0.000414 -0.001985  0.000125 -0.001137 -0.000014  0.000677 -0.000017
                                -0.000409 -0.000074  0.000133  0.000018 -0.000036 -0.000005 -0.000000  0.000000  0.000000 -0.000000
                                -0.000005  0.000006 -0.000151  0.000135 -0.000179  0.000073 -0.000248 -0.000072 -0.000203  0.001868
                                -0.000093  0.000128 -0.000128  0.000278  0.000047 -0.001445  0.000004  0.002102 -0.000052  0.000230
                                 0.000021 -0.000119  0.000006  0.000082  0.000081  0.000038  0.000012  0.000411 -0.000297 -0.000168
                                -0.000246 -0.000073 -0.000104 -0.000448  0.000297  0.000216  0.000128 -0.000008 -0.000033 -0.000520
                                 0.000304  0.000140  0.000362 -0.000087  0.000007  0.000065  0.000096 -0.000008 -0.000045 -0.000019
                                -0.000001 -0.000000 -0.000002  0.000001 -0.000001  0.000001  0.000027 -0.000003  0.000005  0.000082
                                -0.000017 -0.000192 -0.000546 -0.001355 -0.003994 -0.000403  0.000142  0.000875  0.001656  0.000063
                                -0.000104  0.000118 -0.000236 -0.000024 -0.000288 -0.000727 -0.002251 -0.005692 -0.001262 -0.000076
                                -0.000144 -0.000714 -0.001295 -0.001275 -0.002160  0.000097  0.000073 -0.000139  0.000204  0.000214
                                -0.000375

   2.1   2    -1.1930  -12.3272  0.000000 -0.000000  0.000000 -0.000000 -0.000002 -0.000006 -0.000013 -0.000030  0.000014 -0.000061
                                 0.000075 -0.001004  0.005280 -0.007978 -0.012985  0.000686 -0.005811 -0.004674  0.000490  0.000001
                                 0.000004  0.000011  0.000031  0.000142  0.000033  0.014195 -0.002367  0.015237  0.000126  0.000011
                                -0.000004  0.000001 -0.000000  0.000000 -0.000000  0.000000 -0.000000  0.000000 -0.000000  0.000000
                                -0.000000  0.000021  0.001320  0.008303  0.298686 -0.151531  0.204389  0.358211  0.084713  0.007118
                                -0.001035 -0.000244 -0.003052 -0.204364 -0.162201  0.175631  0.358922  0.001253  0.001260 -0.005630
                                -0.000290  0.000049 -0.000000  0.000000  0.000000 -0.000001 -0.000000  0.000004  0.000001 -0.000020
                                -0.000024  0.000381 -0.000254  0.003512  0.000462 -0.007364 -0.000114  0.002998 -0.000498  0.010967
                                -0.000606  0.003848  0.000060 -0.000912  0.000496 -0.006737 -0.000709  0.010207  0.000417 -0.007674
                                -0.000338 -0.007775  0.000593 -0.000099 -0.001728  0.001079 -0.000398  0.001001  0.000218 -0.000652
                                -0.000103 -0.001124  0.000035  0.000254 -0.000009 -0.000062 -0.000000  0.000001  0.000004 -0.000009
                                -0.000060  0.000118 -0.001937  0.003172 -0.004189  0.005331 -0.005311  0.005865 -0.000213  0.002914
                                -0.000403  0.001596  0.001037  0.000616 -0.001216 -0.001204  0.000330  0.001244 -0.000716  0.000196
                                 0.000336 -0.000043  0.000105  0.000014  0.000003 -0.000017  0.000002  0.000007  0.000034 -0.000014
                                -0.000000 -0.000208  0.000042  0.000024  0.000553 -0.000178  0.000028 -0.002167  0.000508 -0.000029
                                 0.002198 -0.000996  0.000097 -0.001433  0.000502  0.000155  0.000831 -0.000493 -0.000047 -0.000225
                                 0.000052 -0.000110  0.000063  0.000230  0.000138  0.000362  0.000475  0.000421  0.000133  0.000039
                                 0.000172  0.001895  0.006465  0.014876  0.001107  0.005325 -0.000910 -0.005138 -0.001403 -0.000303
                                 0.000549 -0.000646  0.001061 -0.000129 -0.001444 -0.004911 -0.011770 -0.005778 -0.004084 -0.000235
                                -0.000577 -0.000816 -0.003909 -0.000443 -0.002684  0.000201  0.000351 -0.000210  0.000374  0.001132
                                -0.000115

   3.1   2    -0.5232  -12.5747 -0.000000  0.000000 -0.000001  0.000020  0.000087  0.000271  0.000578  0.001325 -0.000588  0.002417
                                -0.009065  0.023471 -0.121095  0.256664  0.873051 -0.195028  0.039937  0.404867  0.148558 -0.000035
                                -0.000156 -0.000465 -0.001352  0.005738 -0.012938 -0.841888  0.333701 -0.778198 -0.264582 -0.009741
                                 0.003546 -0.000784 -0.000000  0.000000 -0.000000  0.000000 -0.000000  0.000000 -0.000001  0.000003
                                -0.000019  0.000241  0.002146  0.001602  0.001124  0.010600  0.030839  0.026487 -0.041311  0.072755
                                 0.015403 -0.000977 -0.002320 -0.002049 -0.003286 -0.021249 -0.052902 -0.002990 -0.016418  0.002751
                                 0.000911 -0.000172  0.000000  0.000000 -0.000000 -0.000000  0.000001  0.000000 -0.000007 -0.000002
                                 0.000151  0.000025  0.001739  0.000136 -0.002194  0.001413 -0.000483 -0.001701  0.015883  0.005109
                                 0.049833  0.023243 -0.000390 -0.000054 -0.003460 -0.000111  0.004428 -0.000824 -0.008525 -0.001777
                                -0.000459  0.006051 -0.065162 -0.010217  0.127219  0.040730 -0.014659  0.003292  0.012179 -0.002634
                                -0.001397 -0.001645  0.000984  0.000252 -0.000303 -0.000051 -0.000016 -0.000064  0.000134  0.000518
                                -0.001850 -0.006981 -0.046300 -0.174470 -0.076123 -0.280837 -0.089687 -0.326665 -0.058929 -0.215664
                                -0.026555 -0.101219 -0.008900 -0.038040 -0.000186  0.017840 -0.021849 -0.092174  0.001849 -0.002512
                                -0.001996 -0.004114  0.001235  0.000603 -0.000060  0.000005 -0.000011  0.000122 -0.000004  0.000033
                                -0.000478  0.000159 -0.000077  0.001136 -0.000205  0.000200 -0.002710  0.000606 -0.000487  0.004321
                                -0.000304  0.000727 -0.000729 -0.000265 -0.000088 -0.010108  0.006008 -0.003241  0.002910 -0.001233
                                 0.001170  0.000300  0.000137  0.000233  0.000101 -0.000006 -0.000119 -0.000075 -0.000018 -0.000168
                                -0.000477 -0.005525 -0.019602 -0.049577  0.002221  0.019790  0.000162  0.011252 -0.005726  0.000661
                                -0.001358  0.003942 -0.005811 -0.001592 -0.018357 -0.066639 -0.171612  0.007057  0.003827 -0.000469
                                -0.000537 -0.016065 -0.025757  0.008490  0.021458  0.001598  0.001401 -0.002626  0.008235  0.006701
                                -0.011387

   4.1   2    -0.4853   -6.9468 -0.000000  0.000000 -0.000001  0.000017  0.000075  0.000235  0.000506  0.001199 -0.000599  0.002831
                                 0.006358  0.174776 -0.015861  0.000575  0.083275  0.272344 -0.078702  0.073706  0.154462 -0.000030
                                -0.000135 -0.000404 -0.001207 -0.028462 -0.242740  0.132786 -0.239096 -0.047695 -0.204172 -0.003700
                                 0.001250 -0.000266  0.000000 -0.000000  0.000000 -0.000000  0.000000 -0.000000  0.000001 -0.000003
                                 0.000013 -0.000154 -0.001405 -0.000843  0.018820 -0.018850 -0.005804  0.025622  0.011052 -0.073265
                                -0.000992  0.000616  0.001601 -0.011560 -0.009146  0.029507  0.062890 -0.003209 -0.007974  0.019523
                                 0.000586 -0.000085 -0.000000  0.000000  0.000001 -0.000000 -0.000004  0.000000  0.000023 -0.000002
                                -0.000403  0.000023 -0.003259  0.000449  0.011190 -0.005055 -0.008569  0.004480 -0.000075 -0.006589
                                 0.040900 -0.039365  0.000923 -0.000061  0.006254 -0.001308 -0.011978  0.004420  0.001848  0.002765
                                 0.036876 -0.019791  0.074661 -0.025007 -0.012480 -0.034652 -0.005370 -0.001524  0.006665  0.000678
                                -0.002687  0.003827  0.000588 -0.000699 -0.000134  0.000154  0.000008  0.000026 -0.000063 -0.000212
                                 0.000875  0.002845  0.022142  0.070241  0.036837  0.111178  0.043523  0.129159  0.029506  0.081980
                                 0.012472  0.041715  0.003545  0.018080  0.003635 -0.019363  0.017092  0.008537 -0.002153  0.009132
                                 0.001272 -0.002845 -0.001155  0.000855  0.000007 -0.000013 -0.000002 -0.000200  0.000058  0.000045
                                 0.000317 -0.000073  0.000011 -0.000826  0.000102  0.000167  0.001121 -0.000609  0.000076 -0.002966
                                 0.000403  0.000648 -0.002554  0.000065  0.001189  0.003834 -0.004044  0.001953 -0.000872  0.001312
                                -0.000944 -0.000145 -0.000033 -0.000089 -0.000038  0.000053  0.000074  0.000022  0.000150  0.000085
                                -0.002965 -0.033338 -0.131524 -0.311963 -0.276151 -0.031004  0.001479  0.017165  0.028676  0.000142
                                -0.000313  0.000212 -0.000030 -0.001442 -0.016099 -0.064171 -0.146383 -0.187307  0.002284 -0.000427
                                -0.000795 -0.002217 -0.003441 -0.014520 -0.026499 -0.000281 -0.000282  0.000517 -0.001512 -0.001959
                                 0.002931

   5.1   +    -0.6220  -14.5505 -0.000000  0.000000 -0.000000  0.000001  0.000006  0.000019  0.000039  0.000079 -0.000019 -0.000022
                                -0.003123 -0.028730 -0.025561  0.059574  0.189977 -0.098370  0.004137  0.063094 -0.004133 -0.000002
                                -0.000011 -0.000032 -0.000085  0.006593  0.045389 -0.226331  0.135539 -0.150223 -0.012383 -0.001209
                                 0.000448 -0.000100  0.000000 -0.000000  0.000000 -0.000001  0.000001 -0.000002  0.000004 -0.000012
                                 0.000072 -0.000955 -0.009623 -0.007495 -0.020855 -0.033812 -0.110260 -0.110095  0.181557 -0.229011
                                -0.077578  0.004063  0.011004  0.019286  0.025068  0.050414  0.147745  0.019119  0.095332 -0.036931
                                -0.005315  0.000964  0.000000 -0.000000 -0.000000  0.000001  0.000001 -0.000004 -0.000005  0.000021
                                 0.000089 -0.000397  0.000854 -0.003630 -0.002445  0.007037  0.001422 -0.002550  0.003641 -0.015546
                                 0.004358 -0.032865 -0.000213  0.000950 -0.001738  0.006926  0.003040 -0.010171 -0.002341  0.009239
                                -0.006716  0.010340 -0.029240  0.076104  0.033273 -0.127388 -0.002314 -0.018355  0.001910  0.015566
                                 0.000266  0.003595  0.000103 -0.000256 -0.000041  0.000019  0.000068 -0.000023 -0.000552  0.000185
                                 0.007695 -0.002522  0.196669 -0.064263  0.316410 -0.101055  0.364013 -0.113824  0.221492 -0.068266
                                 0.116614 -0.038624  0.046411 -0.017352 -0.016201  0.012946  0.069600 -0.021146 -0.006015 -0.001855
                                 0.006098 -0.000532 -0.004024 -0.000056 -0.000025 -0.000049  0.000047  0.000046  0.000159 -0.000107
                                -0.000215 -0.000477  0.000408  0.000358  0.001014 -0.000799 -0.001038 -0.002376  0.001958  0.001584
                                 0.003467 -0.003345  0.000014  0.003034  0.000031 -0.002994 -0.020741  0.011588  0.000771  0.004946
                                -0.003916  0.000239  0.000148 -0.001156 -0.000302  0.000463 -0.000449  0.000494 -0.000026 -0.000375
                                -0.000160 -0.002191 -0.004525 -0.024407  0.163463 -0.030251 -0.000121  0.015882 -0.048942  0.001108
                                -0.001887  0.005510 -0.009422  0.000347  0.004031  0.014694  0.040188 -0.040913  0.030374  0.000117
                                 0.000118  0.002656  0.005263 -0.004042 -0.018704 -0.000264 -0.000324  0.000197 -0.000905 -0.002502
                                 0.000924

   6.1   0    -0.4281   -6.6593 -0.000000  0.000000 -0.000000  0.000005  0.000022  0.000068  0.000147  0.000358 -0.000196  0.001038
                                 0.003154  0.072585  0.006876 -0.025459 -0.050077  0.132900 -0.025199 -0.011183  0.072722 -0.000009
                                -0.000039 -0.000117 -0.000356 -0.012113 -0.105160  0.144439 -0.146842  0.066646 -0.080018 -0.000690
                                 0.000218 -0.000045  0.000000 -0.000000  0.000000 -0.000000  0.000000 -0.000000  0.000000 -0.000002
                                 0.000011 -0.000175 -0.001822 -0.002268 -0.057428  0.023623 -0.045506 -0.105970  0.048515  0.025552
                                -0.045603  0.000772  0.002086  0.039147  0.037716 -0.038332 -0.072122  0.021415  0.091167 -0.070434
                                -0.005323  0.000927 -0.000000 -0.000000  0.000001  0.000001 -0.000003 -0.000004  0.000013  0.000020
                                -0.000219 -0.000372 -0.001964 -0.004073  0.006312  0.017433 -0.003935 -0.012271 -0.002238  0.003513
                                 0.012960  0.069999  0.000509  0.000920  0.003938  0.008787 -0.007262 -0.018584  0.002607  0.002258
                                 0.016813  0.048752  0.037886  0.080022 -0.022411  0.013876 -0.000492 -0.011210  0.001690  0.015195
                                -0.001734 -0.006343  0.000318  0.001636 -0.000068 -0.000410  0.000015  0.000021 -0.000117 -0.000165
                                 0.001621  0.002230  0.040727  0.055869  0.064970  0.088562  0.075342  0.101454  0.044727  0.063564
                                 0.024397  0.033099  0.010336  0.014009 -0.009847 -0.012041  0.004491  0.015850  0.001744  0.003163
                                -0.000690 -0.000609  0.000241  0.000457  0.000012  0.000017  0.000013 -0.000075  0.000128 -0.000048
                                 0.000209 -0.000046  0.000131 -0.000394  0.000713 -0.000553  0.000806  0.000588  0.000337 -0.001602
                                 0.002914 -0.001859 -0.000474  0.004672 -0.001470  0.002842 -0.001711  0.002128 -0.000731  0.001233
                                -0.000205  0.000169 -0.000025 -0.000256  0.000135  0.000099 -0.000068  0.000236  0.000187  0.000092
                                 0.002125  0.023991  0.094330  0.227891  0.220321  0.014165 -0.000438 -0.012163 -0.021892 -0.000229
                                 0.000610 -0.000776  0.002041 -0.002814 -0.031655 -0.124828 -0.297166 -0.331519 -0.026761 -0.000774
                                -0.000621 -0.009161 -0.007924 -0.026179 -0.033077 -0.000100 -0.000554 -0.000046 -0.001710 -0.002752
                                 0.000711

   7.1   0    -0.2436   -6.7537  0.000000 -0.000000  0.000001 -0.000020 -0.000089 -0.000278 -0.000603 -0.001454  0.000752 -0.003752
                                -0.003854 -0.201468  0.014951 -0.008751 -0.220531 -0.253362 -0.092144  0.297618  0.103990  0.000035
                                 0.000160  0.000480  0.001454  0.028299  0.290373 -0.081101  0.125666  0.523672  0.050314  0.004455
                                -0.001398  0.000302 -0.000000  0.000000 -0.000000  0.000000 -0.000000  0.000000 -0.000000  0.000000
                                -0.000000  0.000000  0.000002 -0.000031 -0.002115  0.000503 -0.004746 -0.006263  0.002068  0.008197
                                 0.012890 -0.000000 -0.000004  0.001387  0.001711 -0.000376 -0.000224 -0.001398 -0.003931  0.001862
                                 0.000449 -0.000087 -0.000000 -0.000000  0.000003  0.000000 -0.000011 -0.000001  0.000057  0.000005
                                -0.001084 -0.000053 -0.012121 -0.000160  0.054726 -0.001102 -0.040678  0.001542  0.017258 -0.002429
                                 0.257800 -0.011696  0.002698  0.000095  0.026403  0.000127 -0.057302  0.000642  0.007814  0.000052
                                 0.156495 -0.006148  0.225715 -0.006758  0.127274 -0.004602  0.087345 -0.002479  0.023684 -0.001216
                                 0.001617 -0.001009 -0.000893  0.000244  0.000303 -0.000063  0.000000  0.000002 -0.000000 -0.000016
                                 0.000004  0.000202  0.000139  0.004720  0.000338  0.006648  0.000449  0.007439  0.000516  0.005815
                                 0.000020  0.003229 -0.000131  0.002431  0.000959 -0.011874  0.001397  0.008388  0.002159  0.015974
                                 0.000287 -0.007500  0.000139  0.002503  0.000010 -0.000017 -0.000000  0.000095 -0.000092 -0.000023
                                -0.000019  0.000030  0.000127  0.000134  0.000069  0.000194  0.001407 -0.000025 -0.000018  0.001464
                                 0.000191 -0.000064  0.004032 -0.000045 -0.000104  0.000931 -0.000694 -0.000257 -0.000940 -0.000428
                                -0.000040  0.000008 -0.000009  0.000001  0.000012  0.000020  0.000005 -0.000035 -0.000062  0.000034
                                -0.000453 -0.005096 -0.020971 -0.057671 -0.103691 -0.014665  0.000337  0.003984  0.010529  0.000485
                                -0.000383  0.002288  0.000294 -0.000666 -0.007501 -0.030678 -0.083645 -0.152564 -0.030745 -0.000104
                                -0.000290 -0.001390 -0.004252 -0.003476 -0.012433  0.000638  0.000231 -0.000346  0.002634  0.000155
                                 0.000982

                                   1 2py     1 2py     1 2py     1 2py     1 2py     1 2py     1 2py     1 2py     1 2py     1 2py
                                   1 2py     1 2py     1 2py     1 2py     1 2py     1 2py     1 2py     1 2py     1 2py     1 2py
                                   1 2py     1 2py     1 2py     1 2py     1 2py     1 2py     1 2py     1 2py     1 2py     1 2py
                                   1 3d2-    1 3d2-    1 3d2-    1 3d2-    1 3d2-    1 3d2-    1 3d2-    1 3d2-    1 3d2-    1 3d2-
                                   1 3d2-    1 3d2-    1 3d2-    1 3d2-    1 3d2-    1 3d2-    1 3d2-    1 3d2-    1 3d2-    1 3d2-
                                   1 3d2-    1 3d2-    1 4f1-    1 4f3-    1 4f1-    1 4f3-    1 4f1-    1 4f3-    1 4f1-    1 4f3-
                                   1 4f1-    1 4f3-    1 4f1-    1 4f3-    1 4f1-    1 4f3-    1 4f1-    1 4f3-    1 4f1-    1 4f3-
                                   1 4f1-    1 4f3-    1 4f1-    1 4f3-    1 4f1-    1 4f3-    1 4f1-    1 4f3-    1 4f1-    1 4f3-
                                   1 5g2-    1 5g4-    1 5g2-    1 5g4-    1 5g2-    1 5g4-    1 5g2-    1 5g4-    1 5g2-    1 5g4-
                                   1 5g2-    1 5g4-    1 5g2-    1 5g4-    1 5g2-    1 5g4-    1 5g2-    1 5g4-    1 6h1-    1 6h3-
                                   1 6h5-    1 6h1-    1 6h3-    1 6h5-    1 6h1-    1 6h3-    1 6h5-    2 2py     2 2py     2 2py
                                   2 3d2-    2 3d2-    3 1s      3 1s      3 1s      3 1s      3 1s      3 1s      3 2py     3 2px
                                   3 2py     3 2px     3 2py     3 2px     3 3d2-    3 3d0     3 3d2+    3 3d2-    3 3d0     3 3d2+


   1.2   2    -1.1867  -12.3219 -0.000000  0.000000 -0.000000  0.000000 -0.000000  0.000000 -0.000000  0.000001 -0.000004  0.000024
                                -0.000848 -0.007481 -0.291264  0.155670 -0.198300 -0.361620 -0.080469 -0.008388  0.001870  0.000065
                                 0.002341  0.198532  0.156149 -0.176536 -0.363612 -0.001817 -0.003270  0.006990  0.000441 -0.000075
                                 0.000000 -0.000001  0.000003 -0.000018  0.000342  0.003144 -0.006669  0.002873  0.010350  0.002907
                                -0.000820 -0.006018  0.009156 -0.006697 -0.009784 -0.005228  0.002261 -0.000289  0.000072 -0.001303
                                 0.000335 -0.000085  0.000001 -0.000000 -0.000007  0.000002  0.000117 -0.000015  0.003538  0.000109
                                 0.006458 -0.000027  0.007325 -0.001432  0.001637 -0.000790  0.001292 -0.000255  0.000103  0.000786
                                 0.000296 -0.001006 -0.000301 -0.000299  0.000971  0.000419 -0.000291 -0.000036 -0.000109  0.000008
                                -0.000003 -0.000001 -0.000003 -0.000039 -0.000027  0.000023 -0.000096 -0.000577  0.000369  0.001629
                                -0.000752 -0.002164  0.000960  0.001228 -0.000686 -0.001082  0.000100  0.000088  0.000098  0.000047
                                 0.000210  0.000156  0.000428  0.000444 -0.000125  0.000480  0.000715 -0.000139 -0.000971 -0.000385
                                 0.000196  0.000480  0.000192  0.002196  0.006953  0.017699  0.003618  0.006433  0.000769  0.000545
                                 0.005852  0.004029  0.003139  0.001174  0.000699 -0.000413 -0.000196  0.001486 -0.000916 -0.000746

   2.2   2    -0.4597   -5.8130 -0.000000  0.000000 -0.000000  0.000000 -0.000000  0.000000 -0.000001  0.000002 -0.000007  0.000070
                                 0.000571 -0.000482 -0.055344  0.031703 -0.020088 -0.081561  0.002846  0.090723 -0.032513 -0.000258
                                -0.000600  0.036471  0.033324 -0.049552 -0.112514  0.019246  0.076440 -0.068884 -0.004665  0.000803
                                 0.000000 -0.000000  0.000002 -0.000011  0.000205  0.002540 -0.016893  0.013922 -0.011802 -0.100055
                                -0.000516 -0.006082  0.016092  0.002297 -0.056257 -0.080681 -0.048748  0.006647 -0.011022  0.007549
                                -0.001750  0.000422 -0.000001  0.000000  0.000006 -0.000002 -0.000087  0.000032 -0.002487  0.000957
                                -0.004882  0.001772 -0.006168  0.001808 -0.007018  0.000991 -0.001112  0.000371  0.000846  0.000003
                                -0.007862  0.001397 -0.013470  0.000806  0.002675 -0.000264 -0.001983  0.000158  0.001232 -0.000057
                                -0.000006  0.000030  0.000065  0.000099 -0.000008  0.000183  0.000584  0.000223  0.000137  0.001548
                                 0.002132  0.001359  0.001340  0.004202  0.000781  0.003916 -0.000843  0.000149  0.000031  0.000016
                                 0.000023  0.000039  0.000100  0.000086  0.000055  0.000056 -0.000035 -0.000192 -0.002672 -0.006585
                                 0.000270  0.001857 -0.003721 -0.042079 -0.163755 -0.398161 -0.358141 -0.038861 -0.001002 -0.000690
                                -0.022135 -0.011616 -0.033810 -0.014097 -0.000795  0.000523  0.000480 -0.002003  0.000923  0.003027

   3.2   +    -0.6093  -14.6250  0.000000 -0.000000  0.000000 -0.000000  0.000001 -0.000001  0.000002 -0.000007  0.000047 -0.000691
                                -0.008061 -0.007138 -0.022337 -0.026023 -0.114386 -0.126390  0.189698 -0.230948 -0.086398  0.003151
                                 0.009846  0.019752  0.022752  0.049664  0.140900  0.022473  0.109669 -0.046958 -0.006169  0.001115
                                 0.000000 -0.000001  0.000005 -0.000025  0.000461  0.004370 -0.010272  0.004915  0.014708  0.020218
                                -0.001112 -0.008524  0.013580 -0.009844 -0.019897 -0.091295  0.127482  0.020186 -0.017703 -0.002966
                                 0.000075  0.000028  0.000072  0.000007 -0.000581 -0.000054  0.008067  0.000851  0.207402  0.024635
                                 0.332906  0.039256  0.381489  0.044133  0.232534  0.025927  0.121655  0.014189  0.047695  0.005353
                                -0.017769 -0.001139  0.071794  0.006000 -0.005929 -0.004170  0.006201  0.002100 -0.004106 -0.000742
                                -0.000033 -0.000047  0.000144  0.000170 -0.000431 -0.000526  0.000991  0.001157 -0.001880 -0.002363
                                 0.003918  0.003970  0.000367  0.003666 -0.012124 -0.021419  0.004026  0.005209  0.000764  0.000202
                                 0.000486  0.000933  0.000400  0.000107  0.001232  0.000403  0.000199 -0.000017 -0.000657  0.004804
                                 0.000129  0.001315 -0.000090 -0.000619 -0.006552 -0.001566 -0.206603  0.040403 -0.000187 -0.000070
                                 0.011913  0.007737 -0.048576 -0.030528  0.001625 -0.001056 -0.000588  0.008619 -0.005158 -0.003094

   4.2   0    -0.2769  -13.8743 -0.000000  0.000000 -0.000000  0.000001 -0.000001  0.000001 -0.000003  0.000011 -0.000063  0.000778
                                 0.006897  0.004212  0.013948  0.012531  0.020159  0.013406 -0.028773  0.031567  0.013052 -0.003135
                                -0.007197 -0.012084 -0.014486 -0.004961 -0.020821 -0.004076 -0.018235  0.007622  0.001177 -0.000220
                                -0.000000  0.000000 -0.000001  0.000007 -0.000126 -0.001183  0.003218 -0.001820 -0.001541  0.004301
                                 0.000299  0.002316 -0.003916  0.001807  0.007476  0.016565 -0.015062 -0.001977  0.003395  0.000685
                                -0.000041 -0.000000 -0.000009  0.000061  0.000071 -0.000506 -0.000945  0.007490 -0.021633  0.191884
                                -0.036597  0.321513 -0.045142  0.388068 -0.031093  0.258071 -0.012918  0.112372 -0.004030  0.033795
                                -0.001810  0.020594 -0.014111  0.092650  0.000269 -0.042171 -0.001278  0.027201  0.000781 -0.009538
                                -0.000003  0.000010 -0.000039  0.000009  0.000004  0.000053 -0.000196 -0.000035  0.000153  0.000447
                                -0.000565 -0.000247 -0.000028  0.000139  0.001705  0.003130 -0.000654 -0.000935 -0.000559  0.000963
                                 0.000139 -0.000363  0.000141  0.000929 -0.000326  0.000442  0.000588  0.000629  0.005311  0.014393
                                -0.001162 -0.005137 -0.000003 -0.000067 -0.000014 -0.001427  0.027005 -0.008284 -0.000328  0.000663
                                -0.004178  0.004992 -0.001546  0.021590  0.000632  0.000102  0.001433  0.002314  0.000715  0.005961

   5.2   0    -0.2082   -6.4037 -0.000000  0.000000 -0.000000  0.000000 -0.000000  0.000000 -0.000000  0.000001 -0.000003  0.000024
                                 0.000111 -0.000684 -0.050122  0.019575 -0.060918 -0.092094 -0.021027  0.193666  0.288951 -0.000066
                                -0.000084  0.032963  0.036275 -0.031278 -0.061141 -0.017600 -0.015974  0.026023  0.006492 -0.001292
                                -0.000000  0.000002 -0.000009  0.000047 -0.000893 -0.010276  0.051524 -0.039684  0.026533  0.266459
                                 0.002231  0.022924 -0.052466  0.001682  0.155080  0.222532  0.150292  0.102590  0.039683  0.026955
                                -0.006674  0.001789  0.000001 -0.000001 -0.000010  0.000010  0.000141 -0.000140  0.003627 -0.003304
                                 0.005951 -0.005153  0.006720 -0.006657  0.001571 -0.004380  0.002036 -0.002209  0.000573 -0.001172
                                 0.001349  0.002486 -0.009745  0.007234 -0.008905  0.001706 -0.001657  0.001465  0.001951 -0.000211
                                 0.000044 -0.000058  0.000069 -0.000160  0.000327 -0.000212 -0.000246  0.000187  0.002008  0.000032
                                -0.000558 -0.001747  0.001905  0.010410  0.003334  0.004628  0.000471 -0.001023  0.000027 -0.000029
                                 0.000016 -0.000005 -0.000031  0.000094  0.000023 -0.000070 -0.000178  0.003654  0.026197  0.061717
                                -0.001331 -0.008307 -0.000526 -0.005981 -0.024488 -0.055657 -0.072006 -0.120260  0.003869 -0.000362
                                 0.023273 -0.007666  0.045685 -0.022037  0.000571 -0.000585 -0.001464  0.001001  0.001313 -0.007692

                                   1 2pz     1 2pz     1 2pz     1 2pz     1 2pz     1 2pz     1 2pz     1 2pz     1 2pz     1 2pz
                                   1 2pz     1 2pz     1 2pz     1 2pz     1 2pz     1 2pz     1 2pz     1 2pz     1 2pz     1 2pz
                                   1 2pz     1 2pz     1 2pz     1 2pz     1 2pz     1 2pz     1 2pz     1 2pz     1 2pz     1 2pz
                                   1 3d1+    1 3d1+    1 3d1+    1 3d1+    1 3d1+    1 3d1+    1 3d1+    1 3d1+    1 3d1+    1 3d1+
                                   1 3d1+    1 3d1+    1 3d1+    1 3d1+    1 3d1+    1 3d1+    1 3d1+    1 3d1+    1 3d1+    1 3d1+
                                   1 3d1+    1 3d1+    1 4f0     1 4f2+    1 4f0     1 4f2+    1 4f0     1 4f2+    1 4f0     1 4f2+
                                   1 4f0     1 4f2+    1 4f0     1 4f2+    1 4f0     1 4f2+    1 4f0     1 4f2+    1 4f0     1 4f2+
                                   1 4f0     1 4f2+    1 4f0     1 4f2+    1 4f0     1 4f2+    1 4f0     1 4f2+    1 4f0     1 4f2+
                                   1 5g1+    1 5g3+    1 5g1+    1 5g3+    1 5g1+    1 5g3+    1 5g1+    1 5g3+    1 5g1+    1 5g3+
                                   1 5g1+    1 5g3+    1 5g1+    1 5g3+    1 5g1+    1 5g3+    1 5g1+    1 5g3+    1 6h2+    1 6h4+
                                   1 6h0     1 6h2+    1 6h4+    1 6h0     1 6h2+    1 6h4+    1 6h0     2 2pz     2 2pz     2 2pz
                                   2 3d1+    2 3d1+    3 2pz     3 2pz     3 2pz     3 3d1+    3 3d1-    3 3d1+    3 3d1-

   1.3   2    -1.1900  -12.3118 -0.000000  0.000000 -0.000000  0.000001 -0.000001  0.000001 -0.000002  0.000006 -0.000028  0.000268
                                 0.001960 -0.004534 -0.289194  0.157761 -0.169233 -0.351413 -0.092092 -0.003220 -0.000115 -0.000973
                                -0.001457  0.194667  0.155723 -0.182384 -0.396037  0.000347  0.001074 -0.000895 -0.000095  0.000019
                                -0.000000  0.000000 -0.000000  0.000000  0.000004  0.000050  0.000071 -0.000030 -0.000322 -0.000923
                                -0.000012 -0.000057 -0.000044  0.000309 -0.000745 -0.000471  0.000043 -0.000034  0.000037 -0.000016
                                 0.000007 -0.000002  0.000002 -0.000001 -0.000017  0.000005  0.000234 -0.000063  0.005905 -0.001628
                                 0.010340 -0.002725  0.010585 -0.003273  0.002867 -0.001504  0.003078 -0.000897  0.001143 -0.000312
                                -0.000717  0.000174  0.000335 -0.000351 -0.000978  0.000277  0.000217 -0.000141 -0.000081  0.000048
                                 0.000001  0.000006  0.000007 -0.000027 -0.000021  0.000090  0.000039 -0.000369  0.000010  0.001241
                                 0.000020 -0.000989  0.000043  0.000663 -0.000016  0.000059 -0.000001  0.000225 -0.000022 -0.000093
                                 0.000059 -0.000331 -0.000465 -0.000134  0.000041 -0.000053 -0.000463 -0.000080 -0.001058 -0.001350
                                 0.000196  0.000884 -0.000102 -0.001502 -0.001795 -0.000141 -0.000233 -0.000578 -0.001053

   2.3   2    -0.5034  -14.3883 -0.000000  0.000000 -0.000000  0.000000 -0.000000  0.000000 -0.000001  0.000003 -0.000014  0.000154
                                 0.001571  0.001254  0.003662  0.004355 -0.000258 -0.003310 -0.002904 -0.001544 -0.000466 -0.000627
                                -0.001934 -0.003310 -0.003898  0.001285 -0.000510  0.000224  0.000549 -0.000540 -0.000066  0.000013
                                 0.000000 -0.000000  0.000001 -0.000007  0.000140  0.001316 -0.002727  0.001010  0.004196  0.003229
                                -0.000337 -0.002555  0.003863 -0.002721 -0.002439 -0.001937  0.000662 -0.001865 -0.000435  0.000353
                                -0.000181  0.000055  0.000005  0.000073 -0.000041 -0.000590  0.000600  0.008078  0.015686  0.204440
                                 0.027101  0.334745  0.031872  0.388975  0.020734  0.242931  0.008656  0.115743  0.002648  0.037129
                                 0.000792  0.002851  0.006176  0.069081 -0.003247 -0.038025  0.001925  0.022149 -0.000688 -0.007916
                                -0.000004  0.000005 -0.000008  0.000020 -0.000020 -0.000047 -0.000164  0.000044  0.000349  0.000120
                                -0.000721  0.000034  0.001418  0.000223 -0.000616 -0.000058  0.000806  0.000090 -0.000041  0.000600
                                -0.000375  0.000251  0.000680 -0.000422  0.000445  0.000340 -0.000022  0.000204  0.001742  0.004775
                                -0.000745 -0.002617 -0.000188 -0.001600 -0.004146 -0.000466 -0.000488 -0.001090 -0.001972

   3.3   +    -0.6133  -14.6222  0.000000 -0.000000  0.000000 -0.000001  0.000001 -0.000001  0.000003 -0.000011  0.000055 -0.000654
                                -0.006524 -0.005296 -0.001919 -0.005408 -0.008112 -0.000286 -0.000577 -0.004197  0.002760  0.002712
                                 0.007769  0.005084 -0.003258  0.018287  0.028573  0.000342 -0.000310 -0.000464 -0.000121  0.000025
                                 0.000000 -0.000000  0.000000  0.000000 -0.000004 -0.000032 -0.000087  0.000102 -0.000394 -0.001131
                                 0.000010  0.000049  0.000012  0.000130 -0.000675 -0.000427 -0.000371  0.000113 -0.000017 -0.000002
                                 0.000003 -0.000001  0.000071 -0.000006 -0.000575  0.000047  0.008058 -0.000670  0.207360 -0.017589
                                 0.336105 -0.027407  0.385060 -0.030354  0.229256 -0.016426  0.121217 -0.010475  0.044890 -0.004479
                                -0.006060  0.001545  0.057535 -0.003499 -0.035411  0.002543  0.019701 -0.001350 -0.006979  0.000470
                                 0.000009 -0.000004  0.000017 -0.000017 -0.000009 -0.000037  0.000077 -0.000153  0.000101  0.000568
                                 0.000148 -0.000725  0.000079  0.001660  0.000062 -0.000870 -0.000035  0.000963 -0.000111  0.000198
                                 0.000383 -0.000270  0.000767  0.000519 -0.000105  0.000502  0.001011 -0.000141 -0.001130 -0.003390
                                 0.000624  0.002014 -0.000163 -0.001493 -0.004463 -0.000385 -0.000660 -0.001299 -0.002263

   4.3   0    -0.2245   -7.2592 -0.000000  0.000000 -0.000000  0.000000 -0.000000  0.000000 -0.000000  0.000000 -0.000002  0.000017
                                 0.000175  0.000190 -0.002375  0.003853  0.000002 -0.007408  0.002207  0.013922  0.019798 -0.000066
                                -0.000250  0.001349  0.000816 -0.005275 -0.008854 -0.002111 -0.002438  0.006290  0.000619 -0.000117
                                -0.000001  0.000005 -0.000019  0.000100 -0.001818 -0.018853  0.076034 -0.053591  0.015169  0.322426
                                 0.004417  0.039951 -0.082072  0.015334  0.203764  0.263139  0.198030  0.144632  0.028328  0.013525
                                -0.004505  0.001323  0.000000 -0.000001 -0.000002  0.000008  0.000031 -0.000098  0.000713 -0.002161
                                 0.000971 -0.002807  0.001119 -0.003366  0.000327 -0.002753  0.000518 -0.001651  0.000407 -0.001490
                                -0.000951  0.002357 -0.002159  0.006649 -0.000758 -0.002035 -0.000687  0.002047  0.000023  0.000675
                                 0.000035 -0.000005 -0.000055 -0.000015  0.000373 -0.000074 -0.000341 -0.000288  0.002309 -0.000310
                                 0.000871 -0.000522  0.000717 -0.000287  0.001129 -0.000616  0.001386 -0.000295 -0.000003 -0.000019
                                 0.000003 -0.000017  0.000049  0.000003 -0.000022 -0.000179  0.000044  0.002865  0.024274  0.053937
                                -0.001440 -0.009922 -0.001824 -0.015061 -0.032182 -0.000227 -0.000987  0.001172 -0.007811

   5.3   0    -0.1748   -4.6267 -0.000000  0.000000 -0.000000  0.000001 -0.000001  0.000001 -0.000002  0.000006 -0.000027  0.000253
                                 0.002491  0.001713 -0.066922  0.052407 -0.017554 -0.131246 -0.017767  0.319064  0.524569 -0.000988
                                -0.003301  0.041576  0.041922 -0.086623 -0.186286 -0.026515  0.071942  0.162601  0.010472 -0.001999
                                 0.000000 -0.000000  0.000001 -0.000005  0.000081  0.000840 -0.003469  0.002471 -0.001170 -0.016726
                                -0.000197 -0.001784  0.003709 -0.000444 -0.009420 -0.011252 -0.007348  0.000988  0.001717  0.000469
                                -0.000012  0.000003  0.000001  0.000000 -0.000009 -0.000002  0.000129  0.000026  0.003390  0.000672
                                 0.005596  0.001161  0.005955  0.001290  0.001030  0.000959  0.001856  0.000351  0.000495  0.000030
                                 0.002518  0.000159  0.002759  0.001685 -0.012261 -0.001510 -0.008047  0.000028 -0.001100 -0.000201
                                -0.000000  0.000005  0.000006 -0.000007 -0.000013  0.000042  0.000055 -0.000078 -0.000140  0.000853
                                 0.000192 -0.001340 -0.001139  0.003734  0.000276  0.005902 -0.000288  0.004732  0.000004  0.000008
                                 0.000014  0.000019  0.000124 -0.000005  0.000045  0.000164 -0.000018  0.001983  0.015346  0.038417
                                -0.000321 -0.003579  0.002834  0.022686  0.056636  0.000309  0.000447  0.003130  0.005772

                                   1 3d1-    1 3d1-    1 3d1-    1 3d1-    1 3d1-    1 3d1-    1 3d1-    1 3d1-    1 3d1-    1 3d1-
                                   1 3d1-    1 3d1-    1 3d1-    1 3d1-    1 3d1-    1 3d1-    1 3d1-    1 3d1-    1 3d1-    1 3d1-
                                   1 3d1-    1 3d1-    1 4f2-    1 4f2-    1 4f2-    1 4f2-    1 4f2-    1 4f2-    1 4f2-    1 4f2-
                                   1 4f2-    1 4f2-    1 4f2-    1 4f2-    1 4f2-    1 4f2-    1 5g1-    1 5g3-    1 5g1-    1 5g3-
                                   1 5g1-    1 5g3-    1 5g1-    1 5g3-    1 5g1-    1 5g3-    1 5g1-    1 5g3-    1 5g1-    1 5g3-
                                   1 5g1-    1 5g3-    1 5g1-    1 5g3-    1 6h4-    1 6h2-    1 6h4-    1 6h2-    1 6h4-    1 6h2-
                                   2 3d1-    2 3d1-    3 2pz     3 2pz     3 2pz     3 3d1-    3 3d1+    3 3d1-    3 3d1+

   1.4   +    -0.6096  -14.6331 -0.000000  0.000000 -0.000002  0.000009 -0.000155 -0.001398  0.002936 -0.001201 -0.003650 -0.001022
                                 0.000369  0.002656 -0.004014  0.002433  0.003887  0.003138 -0.000089  0.001779  0.000295 -0.000246
                                 0.000123 -0.000038  0.000071 -0.000574  0.008083  0.208541  0.337298  0.386183  0.228805  0.122067
                                 0.045739 -0.006678  0.058309 -0.035476  0.019896 -0.007048 -0.000003  0.000011 -0.000006  0.000017
                                 0.000015  0.000021  0.000022  0.000072 -0.000394  0.000194  0.000520  0.000144 -0.001440  0.000163
                                 0.000576  0.000008 -0.000691  0.000002 -0.000269  0.000576  0.000160  0.000164  0.000017  0.000675
                                 0.000101 -0.000130  0.000173  0.001537  0.005042  0.000799  0.000385  0.002508  0.001561

   2.4   0    -0.2237   -7.2574 -0.000001  0.000005 -0.000019  0.000101 -0.001825 -0.018706  0.075671 -0.053418  0.015173  0.323951
                                 0.004412  0.039623 -0.081569  0.014968  0.203135  0.261689  0.198620  0.146313  0.028880  0.013705
                                -0.004549  0.001336  0.000000 -0.000002  0.000026  0.000466  0.000311  0.000399  0.001268  0.000525
                                 0.000784 -0.000361 -0.001587  0.005476 -0.000890 -0.000773  0.000040  0.000019 -0.000002  0.000065
                                 0.000345  0.000143  0.000068  0.000699  0.002307  0.000215  0.001478  0.000797  0.001633  0.001068
                                 0.001049  0.000023  0.001446  0.000016 -0.000010 -0.000002  0.000045  0.000015 -0.000123 -0.000045
                                 0.000276  0.004313 -0.003224 -0.028103 -0.062083 -0.001382 -0.001061 -0.008717 -0.008774

   3.4   0    -0.0655   -2.8077 -0.000000  0.000002 -0.000009  0.000047 -0.000842 -0.008494  0.032559 -0.022744  0.003870  0.135833
                                 0.002033  0.017776 -0.035626  0.008408  0.086761  0.118264  0.081587  0.021297 -0.360289 -0.465431
                                -0.246376 -0.013625 -0.000000  0.000004 -0.000050 -0.001279 -0.002004 -0.002156  0.000110 -0.000753
                                -0.000348  0.002646  0.002572 -0.003604  0.050044  0.022292  0.000028  0.000009 -0.000038  0.000022
                                 0.000256  0.000073 -0.000214  0.000254  0.001788  0.000148 -0.000667  0.000240  0.003110  0.000179
                                -0.012221 -0.000282  0.024269  0.001875 -0.000003 -0.000005  0.000018  0.000006 -0.000068 -0.000038
                                 0.000126 -0.001860  0.001859  0.008581  0.088140 -0.000806 -0.000579 -0.002584  0.000469

 HOMO      3.2    -0.609289 =     -16.5796eV
 LUMO      6.1    -0.428137 =     -11.6502eV
 LUMO-HOMO         0.181152 =       4.9294eV

 No convergence



[...]
  165      0.128D-02      0.222D-02      -109.19643816    208.320416    0.08948    0.00000    0.00000    9    diag,B
  166      0.137D-03      0.227D-02      -109.19580282    208.353017    0.05203    0.00000    0.00000    9    diag,B
  167      0.532D-03      0.228D-02      -109.19818258    208.184977    0.08997    0.00000    0.00000    9    diag,B
  168      0.611D-03      0.225D-02      -109.19679334    208.237576    0.09664    0.00000    0.00000    9    orth
  169      0.343D-03      0.229D-02      -109.20001222    207.995600    0.10688    0.00000    0.00000    9    diag,B
  170      0.700D-03      0.226D-02      -109.19952454    208.023010    0.11632    0.00000    0.00000    9    diag,B
  171      0.330D-03      0.228D-02      -109.20094888    208.011703    0.09573    0.00000    0.00000    9    diag,B
  172      0.316D-03      0.223D-02      -109.19982645    208.025469    0.08631    0.00000    0.00000    9    diag,B
  173      0.178D-03      0.228D-02      -109.19844735    208.112973    0.10671    0.00000    0.00000    9    diag,B
  174      0.480D-03      0.228D-02      -109.19945787    208.052843    0.10125    0.00000    0.00000    9    diag,B
  175      0.212D-03      0.228D-02      -109.19980814    208.032391    0.10913    0.00000    0.00000    9    diag,B
  176      0.993D-04      0.227D-02      -109.19942785    208.145683    0.09298    0.00000    0.00000    9    diag,B
  177      0.164D-03      0.222D-02      -109.19404636    208.327652    0.07360    0.00000    0.00000    9    diag,B
  178      0.780D-03      0.238D-02      -109.19641762    208.278392    0.09434    0.00000    0.00000    9    orth
  179      0.412D-03      0.227D-02      -109.19747908    208.222020    0.07976    0.00000    0.00000    9    diag,B
  180      0.258D-03      0.229D-02      -109.19946702    208.081573    0.09324    0.00000    0.00000    9    diag,B
  181      0.406D-03      0.226D-02      -109.19739239    208.196364    0.10972    0.00000    0.00000    9    diag,B
  182      0.539D-03      0.227D-02      -109.20029911    208.001262    0.09943    0.00000    0.00000    9    diag,B
  183      0.753D-03      0.227D-02      -109.19987783    208.021805    0.10996    0.00000    0.00000    9    diag,B
  184      0.240D-03      0.227D-02      -109.20074139    208.036832    0.08749    0.00000    0.00000    9    diag,B
  185      0.306D-03      0.224D-02      -109.19941946    208.096575    0.08027    0.00000    0.00000    9    diag,B
  186      0.205D-03      0.228D-02      -109.19744807    208.246166    0.09221    0.00000    0.00000    9    diag,B
  187      0.621D-03      0.225D-02      -109.19787453    208.081322    0.11717    0.00000    0.00000    9    diag,B
  188      0.283D-03      0.232D-02      -109.19605170    208.364615    0.07137    0.00000    0.00000    9    orth
  189      0.663D-03      0.226D-02      -109.19482694    208.367925    0.06691    0.00000    0.00000    9    diag,B
  190      0.203D-03      0.234D-02      -109.18797386    207.333845    0.23250    0.00000    0.00000    9    diag,B
  191      0.171D-02      0.312D-02      -109.19655575    208.334230    0.09349    0.00000    0.00000    9    diag,B
  192      0.153D-02      0.224D-02      -109.19898096    208.169085    0.10410    0.00000    0.00000    9    diag,B
  193      0.393D-03      0.223D-02      -109.19898829    208.219696    0.09465    0.00000    0.00000    9    diag,B
  194      0.731D-04      0.220D-02      -109.19522732    208.351748    0.07910    0.00000    0.00000    9    diag,B
  195      0.578D-03      0.231D-02      -109.19779184    208.239698    0.08999    0.00000    0.00000    9    diag,B
  196      0.411D-03      0.224D-02      -109.19699561    208.235757    0.09856    0.00000    0.00000    9    diag,B
  197      0.165D-03      0.228D-02      -109.19892558    208.079219    0.08377    0.00000    0.00000    9    diag,B
  198      0.870D-03      0.228D-02      -109.19965179    208.024271    0.10312    0.00000    0.00000    9    orth
  199      0.328D-03      0.228D-02      -109.19424027    208.436058    0.06136    0.00000    0.00000    9    orth
     Orbital  4.1 strongly deviates from fixed occupation: 1.75541  (now: 2.00)
     Orbital  5.1 strongly deviates from fixed occupation: 1.26795  (now: 1.00)
     Note:  Use {hf,nitord=N} to fix occupations at iteration N
            Use {gthresh,occdev=1.0} to suppress deviation warnings
  200      0.867D-03      0.235D-02      -109.01763555    215.144663    0.92428    0.00000    0.00000    0    orth

 Final alpha occupancy:   6   3   3   1
 Final beta  occupancy:   4   2   2   0

 !RHF STATE 1.1 Energy               -109.017635551618
   --><property name="Energy" method="RHF" principal="true" stateSymmetry="1" stateNumber="1"
     value="-109.017635551618"/><!--
 Nuclear energy                        12.82266574
 One-electron energy                 -229.41263275
 Two-electron energy                  107.57233146
 Virial quotient                       -0.77553764
 !RHF STATE 1.1 Dipole moment           0.92427945     0.00000000     0.00000000
 Dipole moment /Debye                   2.34913016     0.00000000     0.00000000
   --><property name="Dipole moment" method="RHF" principal="true" stateSymmetry="1"
     stateNumber="1" value="0.924279448823204 0.0 0.0"/><!--

 ELECTRON ORBITALS
 =================


   Orb  Occ    Energy  Couls-En    Coefficients

                                   1 1s      1 1s      1 1s      1 1s      1 1s      1 1s      1 1s      1 1s      1 1s      1 1s
                                   1 1s      1 1s      1 1s      1 1s      1 1s      1 1s      1 1s      1 1s      1 1s      1 1s
                                   1 1s      1 1s      1 1s      1 1s      1 1s      1 1s      1 1s      1 1s      1 1s      1 1s
                                   1 1s      1 1s      1 2px     1 2px     1 2px     1 2px     1 2px     1 2px     1 2px     1 2px
                                   1 2px     1 2px     1 2px     1 2px     1 2px     1 2px     1 2px     1 2px     1 2px     1 2px
                                   1 2px     1 2px     1 2px     1 2px     1 2px     1 2px     1 2px     1 2px     1 2px     1 2px
                                   1 2px     1 2px     1 3d0     1 3d2+    1 3d0     1 3d2+    1 3d0     1 3d2+    1 3d0     1 3d2+
                                   1 3d0     1 3d2+    1 3d0     1 3d2+    1 3d0     1 3d2+    1 3d0     1 3d2+    1 3d0     1 3d2+
                                   1 3d0     1 3d2+    1 3d0     1 3d2+    1 3d0     1 3d2+    1 3d0     1 3d2+    1 3d0     1 3d2+
                                   1 3d0     1 3d2+    1 3d0     1 3d2+    1 3d0     1 3d2+    1 3d0     1 3d2+    1 3d0     1 3d2+
                                   1 3d0     1 3d2+    1 3d0     1 3d2+    1 3d0     1 3d2+    1 4f1+    1 4f3+    1 4f1+    1 4f3+
                                   1 4f1+    1 4f3+    1 4f1+    1 4f3+    1 4f1+    1 4f3+    1 4f1+    1 4f3+    1 4f1+    1 4f3+
                                   1 4f1+    1 4f3+    1 4f1+    1 4f3+    1 4f1+    1 4f3+    1 4f1+    1 4f3+    1 4f1+    1 4f3+
                                   1 4f1+    1 4f3+    1 4f1+    1 4f3+    1 5g0     1 5g4+    1 5g2+    1 5g0     1 5g4+    1 5g2+
                                   1 5g0     1 5g4+    1 5g2+    1 5g0     1 5g4+    1 5g2+    1 5g0     1 5g4+    1 5g2+    1 5g0
                                   1 5g4+    1 5g2+    1 5g0     1 5g4+    1 5g2+    1 5g0     1 5g4+    1 5g2+    1 5g0     1 5g4+
                                   1 5g2+    1 6h1+    1 6h3+    1 6h5+    1 6h1+    1 6h3+    1 6h5+    1 6h1+    1 6h3+    1 6h5+
                                   2 1s      2 1s      2 1s      2 1s      2 1s      2 1s      2 2px     2 2px     2 2px     2 3d0
                                   2 3d2+    2 3d0     2 3d2+    3 1s      3 1s      3 1s      3 1s      3 1s      3 1s      3 2px
                                   3 2py     3 2px     3 2py     3 2px     3 2py     3 3d0     3 3d2+    3 3d2-    3 3d0     3 3d2+
                                   3 3d2-

   1.1   2    -2.1827  -15.0718  0.000000 -0.000001  0.000003 -0.000064 -0.000283 -0.000893 -0.001960 -0.004808  0.002505 -0.011754
                                -0.052791 -0.857405  0.250300 -0.221273 -1.042002 -0.457628 -0.375523 -0.242400 -0.091569  0.000112
                                 0.000512  0.001548  0.004788  0.170934  1.070145  0.277847  0.169002  0.449601  0.136902  0.004179
                                -0.001498  0.000324 -0.000000  0.000000 -0.000000  0.000000 -0.000000  0.000000 -0.000000  0.000000
                                -0.000000  0.000002  0.000022 -0.000022 -0.002626  0.001545 -0.002813  0.001954  0.001425 -0.001630
                                 0.000035 -0.000009 -0.000024  0.001693  0.001723 -0.002642 -0.004434  0.000039  0.000100 -0.000109
                                -0.000001  0.000000  0.000000 -0.000000 -0.000000  0.000000  0.000001 -0.000000 -0.000008  0.000002
                                 0.000145 -0.000043  0.001418 -0.000451 -0.003153  0.000829  0.000136  0.000819  0.004120 -0.002123
                                -0.000760  0.002748 -0.000351  0.000105 -0.002831  0.000913  0.004437 -0.001334  0.000818 -0.001420
                                -0.001121 -0.001953 -0.000340  0.001248 -0.001635 -0.000979 -0.001138 -0.000039  0.000666 -0.000033
                                -0.000225 -0.000053  0.000086  0.000010 -0.000024 -0.000002 -0.000000  0.000000  0.000000 -0.000000
                                -0.000002  0.000002  0.000014  0.000093  0.000181  0.000260  0.000329  0.000270 -0.000283  0.001136
                                -0.000091 -0.000008 -0.000303 -0.000137 -0.000721 -0.000552  0.000430  0.001590 -0.000016  0.000414
                                 0.000037 -0.000195 -0.000006  0.000049  0.000018 -0.000049  0.000010  0.000070 -0.000136  0.000044
                                -0.000163 -0.000122 -0.000156 -0.000280  0.000030 -0.000266  0.000044 -0.000050 -0.000104 -0.000368
                                 0.000002 -0.000225  0.000189 -0.000392 -0.000032  0.000094 -0.000080  0.000029 -0.000054 -0.000001
                                -0.000016  0.000005  0.000005 -0.000011  0.000011  0.000008 -0.000051  0.000061  0.000067 -0.000166
                                -0.000018 -0.000173 -0.000597 -0.001354 -0.002433  0.000134  0.000155  0.000771  0.001085  0.000050
                                -0.000089  0.000149 -0.000214 -0.000031 -0.000311 -0.001076 -0.002758 -0.005379 -0.000179 -0.000164
                                -0.000228 -0.000766 -0.001214 -0.001081 -0.001941  0.000099  0.000069 -0.000153  0.000209  0.000201
                                -0.000236

   2.1   2    -1.2359  -12.4422 -0.000000  0.000000 -0.000000  0.000000  0.000001  0.000002  0.000005  0.000010 -0.000003  0.000008
                                -0.000330 -0.001983 -0.001656  0.002519  0.021094 -0.002663  0.015377  0.003912  0.008718 -0.000000
                                -0.000001 -0.000004 -0.000011  0.000622  0.002855 -0.016851 -0.022237  0.001449 -0.009254 -0.000369
                                 0.000122 -0.000055 -0.000000  0.000000 -0.000000  0.000000 -0.000000  0.000000 -0.000001  0.000002
                                -0.000011  0.000116  0.001789  0.007629  0.295174 -0.139054  0.167118  0.345690  0.069158  0.015389
                                 0.003293 -0.000548 -0.003183 -0.199199 -0.178813  0.202762  0.395649 -0.000298 -0.004255 -0.000907
                                 0.000110 -0.000010  0.000000  0.000000 -0.000000 -0.000000  0.000000  0.000002 -0.000001 -0.000009
                                 0.000011  0.000163  0.000095  0.001512 -0.000262 -0.003212  0.000273  0.001165 -0.000034  0.004301
                                 0.002811 -0.002223 -0.000025 -0.000391 -0.000189 -0.002889  0.000323  0.004385 -0.000264 -0.003075
                                -0.001064 -0.003094  0.002773 -0.003577 -0.004097  0.004555  0.000210  0.001426 -0.000039 -0.001767
                                -0.000189 -0.000743  0.000037  0.000077 -0.000003  0.000014 -0.000002  0.000001  0.000015 -0.000005
                                -0.000207  0.000077 -0.005233  0.002167 -0.009309  0.004321 -0.012335  0.006022 -0.005739  0.003356
                                -0.002500  0.000845 -0.000009 -0.000575  0.001953 -0.004117 -0.001716  0.003462 -0.000307  0.000427
                                 0.000232  0.000122  0.000142  0.000054 -0.000009  0.000037 -0.000004 -0.000027  0.000098 -0.000003
                                -0.000058  0.000198 -0.000008  0.000058  0.000644 -0.000276 -0.000059 -0.000295  0.000104 -0.000617
                                 0.001458 -0.000101  0.000319 -0.001216  0.000025  0.000270  0.000994 -0.000624 -0.000075 -0.000498
                                 0.000172  0.000011  0.000027 -0.000158  0.000127  0.000224 -0.000628  0.000251  0.000662 -0.001622
                                 0.000162  0.001654  0.006215  0.013691 -0.004271  0.004063 -0.000956 -0.003213  0.002355 -0.000228
                                 0.000406 -0.000284  0.000521 -0.000111 -0.001158 -0.004230 -0.010141 -0.002287 -0.004659 -0.000265
                                -0.000662 -0.000400 -0.003223  0.000552 -0.001515  0.000193  0.000342 -0.000196  0.000161  0.001118
                                 0.000253

   3.1   2    -0.4023   -5.8545 -0.000000  0.000000 -0.000001  0.000019  0.000084  0.000263  0.000571  0.001363 -0.000662  0.003027
                                 0.000193  0.137504 -0.054073  0.103678  0.398275  0.143592 -0.015643  0.296341  0.335330 -0.000033
                                -0.000151 -0.000454 -0.001371 -0.016970 -0.187022 -0.247640 -0.055436 -0.303557 -0.450135 -0.008904
                                 0.004994 -0.001828 -0.000000  0.000000 -0.000000  0.000000 -0.000000  0.000000 -0.000000  0.000001
                                -0.000004  0.000031  0.000322  0.000142 -0.016100  0.012379  0.011904 -0.012770 -0.018787  0.030426
                                -0.032331 -0.000123 -0.000441  0.010270  0.009280 -0.022962 -0.055602  0.008697  0.038525 -0.033792
                                -0.002525  0.000597 -0.000000  0.000000  0.000000 -0.000000 -0.000001  0.000001  0.000004 -0.000003
                                -0.000080  0.000046 -0.001142  0.000226  0.008161  0.002630 -0.006790 -0.003282  0.008117  0.006566
                                 0.052471  0.029711  0.000209 -0.000101  0.002812 -0.000108 -0.007649 -0.001665 -0.001761 -0.001868
                                 0.024998  0.012215  0.036771  0.013797  0.027112  0.025481 -0.018328 -0.016475  0.019755  0.006648
                                -0.006367 -0.003522  0.001779  0.000409 -0.000496  0.000267 -0.000012 -0.000000  0.000095  0.000003
                                -0.001262 -0.000052 -0.029689 -0.001805 -0.048207 -0.004495 -0.055848 -0.006261 -0.034347 -0.008323
                                -0.016781 -0.000324 -0.006705  0.001787 -0.000869 -0.014306 -0.011425 -0.019865  0.005892  0.012367
                                -0.002738 -0.007081  0.001155  0.002166 -0.000002  0.000032 -0.000002  0.000012  0.000027  0.000024
                                 0.000029  0.000180  0.000012 -0.000128  0.000272  0.000179 -0.000668  0.001097 -0.000378 -0.001565
                                 0.001215 -0.000375 -0.001214 -0.001986 -0.000847  0.000285  0.001019 -0.000869  0.000343 -0.000863
                                 0.000969  0.000046 -0.000012 -0.000014  0.000085 -0.000083 -0.000030  0.000052  0.000162 -0.000156
                                -0.000734 -0.007946 -0.030622 -0.068466 -0.091483 -0.003586  0.000696  0.003573  0.011128  0.000067
                                -0.000146  0.000581  0.000234 -0.003373 -0.037033 -0.145021 -0.361851 -0.380300 -0.033647 -0.001274
                                -0.001804 -0.014325 -0.018493 -0.028712 -0.021111  0.000734  0.000636 -0.001215  0.001701  0.001972
                                -0.004185

   4.1   2    -0.3360   -7.6450 -0.000000  0.000000 -0.000000  0.000006  0.000027  0.000085  0.000186  0.000447 -0.000222  0.001037
                                 0.000624  0.052812 -0.011536  0.023061  0.106233  0.068943 -0.014773 -0.025207  0.093105 -0.000011
                                -0.000049 -0.000148 -0.000449 -0.006981 -0.074064 -0.045392 -0.020284 -0.066404 -0.134641  0.000193
                                 0.000245  0.000136 -0.000000  0.000000 -0.000000  0.000000 -0.000000  0.000000 -0.000001  0.000002
                                -0.000007  0.000063  0.000768  0.001859  0.052797 -0.009478  0.055029  0.125919 -0.091015  0.029141
                                 0.030282 -0.000267 -0.001199 -0.035624 -0.041330  0.024952  0.039717 -0.033902 -0.142647  0.102453
                                 0.008837 -0.001763 -0.000000  0.000000  0.000000 -0.000001 -0.000000  0.000003  0.000000 -0.000016
                                -0.000006  0.000316 -0.000135  0.003483  0.001368 -0.015549 -0.001076  0.011656  0.001334 -0.004026
                                 0.010374 -0.059706  0.000018 -0.000784  0.000403 -0.007564 -0.001279  0.016311 -0.001112 -0.002948
                                 0.003719 -0.043195  0.012872 -0.100877  0.009018  0.019718  0.009750  0.001570  0.006193 -0.028201
                                -0.001409  0.008935  0.000695 -0.001125 -0.000396 -0.000410 -0.000041  0.000003  0.000330 -0.000024
                                -0.004375  0.000308 -0.102279  0.007045 -0.164559  0.010868 -0.190784  0.012499 -0.113604  0.005737
                                -0.058467  0.004274 -0.025325  0.002466  0.018363 -0.007328 -0.025314 -0.004977  0.003932 -0.003937
                                 0.000763 -0.003334  0.000169  0.000526  0.000018  0.000068 -0.000064  0.000027  0.000015 -0.000022
                                 0.000140  0.000468 -0.000403  0.000164 -0.000473  0.000337  0.000055  0.000901 -0.000911 -0.000871
                                -0.003972  0.003829 -0.000394 -0.001394  0.001090 -0.000072  0.009247 -0.005175 -0.000666 -0.003294
                                 0.002240  0.000152 -0.000063 -0.000090  0.000383 -0.000138 -0.000220 -0.000123  0.000101 -0.000605
                                -0.002665 -0.028982 -0.111731 -0.257048 -0.373931 -0.042318  0.001857  0.009895  0.046501  0.000063
                                -0.000164 -0.000748  0.001786  0.001130  0.012335  0.049533  0.121893  0.194402  0.016569  0.000480
                                 0.000243  0.003256  0.000776  0.017118  0.020274  0.000096  0.000330  0.000110  0.001230  0.001719
                                -0.000038

   5.1   +    -0.6418  -12.3815 -0.000000  0.000000 -0.000000  0.000006  0.000029  0.000090  0.000195  0.000464 -0.000225  0.001021
                                 0.000103  0.046780 -0.019877  0.036606  0.147954  0.048546  0.006294  0.062188  0.106295 -0.000011
                                -0.000052 -0.000155 -0.000467 -0.005832 -0.062826 -0.096072  0.011717 -0.165247 -0.152315 -0.001516
                                 0.001013 -0.000219  0.000000 -0.000000  0.000000 -0.000000  0.000001 -0.000001  0.000002 -0.000005
                                 0.000021 -0.000192 -0.002078 -0.002423  0.012013 -0.037418 -0.083811 -0.056033  0.157746 -0.241665
                                -0.090065  0.000770  0.002978 -0.005523  0.001560  0.062820  0.166693  0.010363  0.056752 -0.009115
                                -0.003114  0.000492 -0.000000 -0.000000  0.000000  0.000001 -0.000000 -0.000003  0.000002  0.000015
                                -0.000035 -0.000279 -0.000485 -0.002324  0.003292  0.001313 -0.002810  0.001740  0.003330 -0.016356
                                 0.019733 -0.053475  0.000091  0.000657  0.001140  0.004108 -0.003020 -0.004156  0.000310  0.007356
