<?xml version="1.0"?>
<molpro xmlns="http://www.molpro.net/schema/molpro-output"
  xmlns:xsd="http://www.w3.org/1999/XMLSchema"
  xmlns:cml="http://www.xml-cml.org/schema"
  xmlns:stm="http://www.xml-cml.org/schema"
  xmlns:xhtml="http://www.w3.org/1999/xhtml">
 <!--

 Nodes     nprocs
 nid00012    11
 Number of processes for MPI-2 version of Molpro:   nprocs(total)=   12   nprocs(compute)=   11   nprocs(helper)=    1

 Using customized tuning parameters: mindgm=7; mindgv=16; mindgc=1; mindgr=1; noblas=0; minvec=7
 default implementation of scratch files=sf

 --><job>
  <!--

 Variables initialized (889), CPU time= 0.03 sec
 Commands  initialized (702), CPU time= 0.01 sec, 572 directives.
 Default parameters read. Elapsed time= 0.15 sec

 Checking input...
 Passed
1


                                         ***  PROGRAM SYSTEM MOLPRO  ***
                                       Copyright, TTI GmbH Stuttgart, 2015
                                    Version 2015.1 linked Dec 29 2018 15:55:43


 **********************************************************************************************************************************
 LABEL *   Calculation for GdH3 atom, singlet and triplet
  64 bit mpp version                                                                     DATE: 16-Dec-22          TIME: 15:35:22
 **********************************************************************************************************************************

 SHA1:             19cd028119e0e09f93f0674bd8af7968d9b3eff6
 **********************************************************************************************************************************
  -->
  <!--

 THRESHOLDS:

 ZERO    =  1.00D-12  ONEINT  =  1.00D-12  TWOINT  =  1.00D-15  PREFAC  =  1.00D-14  LOCALI  =  1.00D-09  EORDER  =  1.00D-04
 ENERGY  =  0.00D+00  ETEST   =  0.00D+00  EDENS   =  0.00D+00  THRDEDEF=  1.00D-06  GRADIENT=  1.00D-02  STEP    =  1.00D-03
 ORBITAL =  1.00D-05  CIVEC   =  1.00D-05  COEFF   =  1.00D-04  PRINTCI =  5.00D-02  PUNCHCI =  9.90D+01  OPTGRAD =  3.00D-04
 OPTENERG=  1.00D-06  OPTSTEP =  3.00D-04  THRGRAD =  1.00D-10  COMPRESS=  1.00D-11  VARMIN  =  1.00D-07  VARMAX  =  1.00D-03
 THRDOUB =  0.00D+00  THRDIV  =  1.00D-05  THRRED  =  1.00D-07  THRPSP  =  1.00D+00  THRDC   =  1.00D-10  THRCS   =  1.00D-10
 THRNRM  =  1.00D-08  THREQ   =  0.00D+00  THRDE   =  1.00D+00  THRREF  =  1.00D-05  SPARFAC =  1.00D+00  THRDLP  =  1.00D-07
 THRDIA  =  1.00D-10  THRDLS  =  1.00D-07  THRGPS  =  0.00D+00  THRKEX  =  0.00D+00  THRDIS  =  2.00D-01  THRVAR  =  1.00D-10
 THRLOC  =  1.00D-06  THRGAP  =  1.00D-06  THRLOCT = -1.00D+00  THRGAPT = -1.00D+00  THRORB  =  1.00D-06  THRMLTP =  0.00D+00
 THRCPQCI=  1.00D-10  KEXTA   =  0.00D+00  THRCOARS=  0.00D+00  SYMTOL  =  1.00D-06  GRADTOL =  1.00D-06  THROVL  =  1.00D-08
 THRORTH =  1.00D-08  GRID    =  1.00D-06  GRIDMAX =  1.00D-03  DTMAX   =  0.00D+00  THROCCDE=  1.00D-01  THROCCDE=  1.00D-01



 THRESHOLDS:

 ZERO    =  1.00D-12  ONEINT  =  1.00D-12  TWOINT  =  1.00D-15  PREFAC  =  1.00D-14  LOCALI  =  1.00D-09  EORDER  =  1.00D-04
 ENERGY  =  0.00D+00  ETEST   =  0.00D+00  EDENS   =  0.00D+00  THRDEDEF=  1.00D-06  GRADIENT=  1.00D-02  STEP    =  1.00D-03
 ORBITAL =  1.00D-05  CIVEC   =  1.00D-05  COEFF   =  1.00D-04  PRINTCI =  5.00D-02  PUNCHCI =  9.90D+01  OPTGRAD =  3.00D-04
 OPTENERG=  1.00D-06  OPTSTEP =  3.00D-04  THRGRAD =  1.00D-10  COMPRESS=  1.00D-11  VARMIN  =  1.00D-07  VARMAX  =  1.00D-03
 THRDOUB =  0.00D+00  THRDIV  =  1.00D-05  THRRED  =  1.00D-07  THRPSP  =  1.00D+00  THRDC   =  1.00D-10  THRCS   =  1.00D-10
 THRNRM  =  1.00D-08  THREQ   =  0.00D+00  THRDE   =  1.00D+00  THRREF  =  1.00D-05  SPARFAC =  1.00D+00  THRDLP  =  1.00D-07
 THRDIA  =  1.00D-10  THRDLS  =  1.00D-07  THRGPS  =  0.00D+00  THRKEX  =  0.00D+00  THRDIS  =  2.00D-01  THRVAR  =  1.00D-10
 THRLOC  =  1.00D-06  THRGAP  =  1.00D-06  THRLOCT = -1.00D+00  THRGAPT = -1.00D+00  THRORB  =  1.00D-06  THRMLTP =  0.00D+00
 THRCPQCI=  1.00D-10  KEXTA   =  0.00D+00  THRCOARS=  0.00D+00  SYMTOL  =  1.00D-06  GRADTOL =  1.00D-06  THROVL  =  1.00D-15
 THRORTH =  1.00D-08  GRID    =  1.00D-06  GRIDMAX =  1.00D-03  DTMAX   =  0.00D+00  THROCCDE=  1.00D-01  THROCCDE=  1.00D-01



 Variable memory set to 1000000000 words,  buffer space   230000 words

 SETTING BASIS          =    USERDEF
 SETTING GD_CCSD        =      -109.29937150
 SETTING H_CCSD         =        -0.49982987
 SETTING NE             =        21.00000000
 SETTING SYMM           =         1.00000000
 SETTING SS             =         5.00000000
 SETTING A1             =         6.00000000
 SETTING B1             =         3.00000000
 SETTING B2             =         3.00000000
 SETTING A2             =         1.00000000
 ZUNIT=ANG

  --><jobstep command="RKS-SCF" commandset="SCFPRO">
   <!--


 Recomputing integrals since basis changed


 Using spherical harmonics



 PROGRAM * SEWARD (Integral evaluation for generally contracted gaussian basis sets)     Author: Roland Lindh, 1990

 Geometry written to block  1 of record 700

 Orientation using atomic masses
 Molecule type: Symmetric top,     Order of principal axis = 3
 Symmetry elements: Y,Z
 Rotational constants:     148.5623401    148.5623401     74.2811700 GHz  (calculated with average atomic masses)

 Point group  C2v


   --><cml:molecule>
    <cml:symmetry pointGroup="C2v"/>
    <cml:atomArray>
     <cml:atom id="a1" elementType="Gd" x3="-0.367190452293942E-17" y3="0.0" z3="0.0"/>
     <cml:atom id="a2" elementType="H" x3="1.5" y3="0.0" z3="0.0"/>
     <cml:atom id="a3" elementType="H" x3="-0.75" y3="-1.29903810567666" z3="0.0"/>
     <cml:atom id="a4" elementType="H" x3="-0.75" y3="1.29903810567666" z3="0.0"/>
    </cml:atomArray>
    <cml:bondArray>
     <cml:bond atomRefs2="a1 a2"/>
     <cml:bond atomRefs2="a1 a3"/>
     <cml:bond atomRefs2="a1 a4"/>
    </cml:bondArray>
   </cml:molecule><!--

 ATOMIC COORDINATES

 NR  ATOM    CHARGE       X              Y              Z

   1  GD     18.00   -0.000000000    0.000000000    0.000000000
   2  H1      1.00    2.834589187    0.000000000    0.000000000
   3  H2      1.00   -1.417294593   -2.454826245    0.000000000
   4  H3      1.00   -1.417294593    2.454826245    0.000000000

 Bond lengths in Bohr (Angstrom)

 1-2  2.834589187  1-3  2.834589187  1-4  2.834589187
     ( 1.500000000)     ( 1.500000000)     ( 1.500000000)

 Bond angles

  2-1-3  120.00000000   2-1-4  120.00000000   3-1-4  120.00000000

 NUCLEAR CHARGE:                   21
 NUMBER OF PRIMITIVE AOS:         673
 NUMBER OF SYMMETRY AOS:          519
 NUMBER OF CONTRACTIONS:          519   ( 201A1  + 130B1  + 119B2  +  69A2  )
 NUMBER OF CORE ORBITALS:           0   (   0A1  +   0B1  +   0B2  +   0A2  )
 NUMBER OF VALENCE ORBITALS:       20   (   9A1  +   5B1  +   4B2  +   2A2  )


 NUCLEAR REPULSION ENERGY   19.66142080


 Eigenvalues of metric

         1 0.113E-06 0.277E-06 0.596E-06 0.709E-06 0.713E-06 0.724E-06 0.854E-06 0.126E-05
         2 0.596E-06 0.713E-06 0.193E-05 0.411E-05 0.529E-05 0.115E-04 0.232E-04 0.388E-04
         3 0.615E-06 0.726E-06 0.438E-05 0.138E-04 0.238E-04 0.438E-04 0.862E-04 0.147E-03
         4 0.726E-06 0.238E-04 0.147E-03 0.532E-03 0.798E-03 0.845E-03 0.118E-02 0.444E-02


 Contracted 2-electron integrals neglected if value below      1.0D-15
 AO integral compression algorithm  1   Integral accuracy      1.0D-15

     11072.700 MB (compressed) written to integral file ( 58.0%)

     Node minimum: 552.600 MB, node maximum: 1190.920 MB


 NUMBER OF SORTED TWO-ELECTRON INTEGRALS:  210071991.     BUFFER LENGTH:  32768
 NUMBER OF SEGMENTS:   7  SEGMENT LENGTH:   31990431      RECORD LENGTH: 524288

 Memory used in sort:      32.55 MW

 SORT1 READ  2385076976. AND WROTE   124791609. INTEGRALS IN    361 RECORDS. CPU TIME:    49.62 SEC, REAL TIME:    70.56 SEC
 SORT2 READ  1378226138. AND WROTE  2310732286. INTEGRALS IN  41437 RECORDS. CPU TIME:     4.13 SEC, REAL TIME:     6.59 SEC

 Node minimum:   209948383.  Node maximum:   210299431. integrals

 OPERATOR DM      FOR CENTER  0  COORDINATES:    0.000000    0.000000    0.000000


 **********************************************************************************************************************************
 DATASETS  * FILE   NREC   LENGTH (MB)   RECORD NAMES
              1      19       23.13       500      610      700      900      950      970     1000      129      960     1100
                                          VAR    BASINP    GEOM    SYMINP    ZMAT    AOBASIS   BASIS     P2S    ABASIS      S
                                         1400     1410     1420     1200     1210     1080     1600     1650     1700
                                           T        V       ECP      H0       H01     AOSYM     SMH    MOLCAS    OPER

 PROGRAMS   *        TOTAL       INT
 CPU TIMES  *       204.72    204.38
 REAL TIME  *       230.63 SEC
 DISK USED  *        27.74 GB
 GA USED    *         0.00 MB       (max)       0.00 MB       (current)
 **********************************************************************************************************************************

 Density functional group PBE0=PBEX+PBEC
 Functional: PBEX(Automatically generated (new) PBEX)                          Gradient terms: 1
 Functional: PBEC(Automatically generated (new) PBEC)                          Gradient terms: 1
 Use grid at  1800.2


 Exact exchange will be calculated, factor:  0.2500

 Functional: PBEX                      Factor:  0.7500
 Functional: PBEC                      Factor:  1.0000

 Generated new metagrid on record  1800.2 with target accuracy 1.0D-06 and 6313 points in CPU time    0.1
 Computed new grid on record 1800.1 in CPU time    0.1
  414270 words reserved for DFT integration

 PROGRAM * RKS-SCF (Restricted open shell Kohn-Sham)     Authors: W. Meyer, H.-J. Werner, P.J. Knowles, 1993

 NUMBER OF ELECTRONS:      12+    8-    SPACE SYMMETRY=1    SPIN SYMMETRY: Quintet
 CONVERGENCE THRESHOLDS:    1.00E-05 (Density)    1.00E-06 (Energy)
 MAX. NUMBER OF ITERATIONS:      200
 INTERPOLATION TYPE:            DIIS
 INTERPOLATION STEPS:              2 (START)      1 (STEP)
 LEVEL SHIFTS:                 -3.00 (CLOSED) -1.50 (OPEN)

 Number of closed-shell orbitals:    8 (   4   2   2   0 )
 Number of open-shell orbitals:      4 (   1   1   1   1 )


 Use fine grid record 1800.2 for energy threshold  1.0D-06
 Guess basis ATOMIC-GUESS,GD=ECP46_GUESS not found. No density guess!


 Molecular orbital dump at record        2202.2

 ITERATION    DDIFF          GRAD             ENERGY        2-EL.EN.            DIPOLE MOMENTS         DIIS   ORB.
    1      0.000D+00      0.000D+00       -69.30137551    435.124623   -0.01262    0.00000    0.00000    0    start
    2      0.000D+00      0.230D+00       -71.67057701     77.361710   -3.73169    0.00000    0.00000    0    diag,B
    3      0.811D-01      0.919D-01       -81.24561874    400.049670   -0.35650    0.00000    0.00000    1    diag,B
    4      0.577D-01      0.198D+00       -99.05675651    337.752821   -0.18706    0.00000    0.00000    2    diag,B
    5      0.150D-01      0.115D+00      -103.47730853    317.817414   -0.30675    0.00000    0.00000    3    diag,B
    6      0.405D-01      0.858D-01      -107.53984510    291.384093   -0.38405    0.00000    0.00000    4    diag,B
    7      0.953D-01      0.518D-01      -110.18587720    260.768662   -0.70122    0.00000    0.00000    5    diag,B
    8      0.501D-01      0.218D-01      -111.02301242    242.112686   -1.04090    0.00000    0.00000    6    diag,B
    9      0.462D-01      0.704D-02      -111.22162787    235.054945   -1.17872    0.00000    0.00000    7    diag,B
   10      0.365D-01      0.590D-02      -111.29098166    234.230552   -1.16621    0.00000    0.00000    8    orth
   11      0.311D-01      0.557D-02      -111.39084095    234.290076   -1.07042    0.00000    0.00000    9    diag,B
   12      0.405D-01      0.365D-02      -111.45177309    233.836488   -0.93433    0.00000    0.00000   10    diag,B
   13      0.542D-01      0.254D-02      -111.51228548    232.762310   -0.73779    0.00000    0.00000   11    diag,B
   14      0.852D-01      0.184D-02      -111.54737703    232.204191   -0.61044    0.00000    0.00000   12    diag,B
   15      0.285D-01      0.139D-02      -111.57142310    231.459650   -0.50917    0.00000    0.00000   13    diag,B
   16      0.853D-02      0.109D-02      -111.58614580    230.870720   -0.44687    0.00000    0.00000   14    diag,B
   17      0.266D-01      0.965D-03      -111.59456216    230.789832   -0.41189    0.00000    0.00000   15    diag,B
   18      0.674D-02      0.726D-03      -111.60027266    230.984160   -0.39086    0.00000    0.00000   16    diag,B
   19      0.895D-02      0.391D-03      -111.60213550    230.991543   -0.37326    0.00000    0.00000   17    diag,B
   20      0.927D-02      0.253D-03      -111.60272013    230.993623   -0.37125    0.00000    0.00000   18    orth
   21      0.587D-02      0.179D-03      -111.60299130    230.972824   -0.36760    0.00000    0.00000   19    diag,B
   22      0.229D-02      0.139D-03      -111.60323027    230.973878   -0.36742    0.00000    0.00000   20    diag,B
   23      0.415D-02      0.937D-04      -111.60333722    230.975012   -0.36363    0.00000    0.00000   21    diag,B
   24      0.216D-02      0.692D-04      -111.60338280    230.972100   -0.36034    0.00000    0.00000   22    diag,B
   25      0.134D-02      0.611D-04      -111.60341841    230.977127   -0.35630    0.00000    0.00000   23    diag,B
   26      0.194D-02      0.543D-04      -111.60345851    230.978045   -0.34977    0.00000    0.00000   24    diag,B
   27      0.552D-03      0.459D-04      -111.60348380    230.982616   -0.34497    0.00000    0.00000   25    diag,B
   28      0.585D-03      0.398D-04      -111.60352149    230.982357   -0.33654    0.00000    0.00000   26    diag,B
   29      0.155D-02      0.322D-04      -111.60355341    230.976941   -0.32753    0.00000    0.00000   27    diag,B
   30      0.110D-02      0.262D-04      -111.60356838    230.972802   -0.32109    0.00000    0.00000   28    orth
   31      0.906D-03      0.210D-04      -111.60357784    230.967057   -0.31582    0.00000    0.00000   29    diag,B
   32      0.642D-03      0.185D-04      -111.60358450    230.965933   -0.31138    0.00000    0.00000   29    diag,B
   33      0.765D-03      0.151D-04      -111.60358868    230.965354   -0.30815    0.00000    0.00000   29    diag,B
   34      0.463D-03      0.108D-04      -111.60359117    230.965163   -0.30613    0.00000    0.00000   29    diag,B
   35      0.385D-03      0.769D-05      -111.60359257    230.964504   -0.30502    0.00000    0.00000   29    diag,B
   36      0.406D-03      0.574D-05      -111.60359342    230.964373   -0.30410    0.00000    0.00000   29    diag,B
   37      0.250D-03      0.384D-05      -111.60359364    230.964045   -0.30409    0.00000    0.00000   29    diag,B
   38      0.279D-03      0.296D-05      -111.60359377    230.964354   -0.30390    0.00000    0.00000   29    diag,B
   39      0.140D-03      0.230D-05      -111.60359385    230.964138   -0.30400    0.00000    0.00000   29    diag,B
   40      0.669D-04      0.187D-05      -111.60359390    230.964115   -0.30417    0.00000    0.00000   29    orth
   41      0.881D-04      0.163D-05      -111.60359394    230.964068   -0.30427    0.00000    0.00000   29    diag,B
   42      0.494D-04      0.148D-05      -111.60359398    230.964010   -0.30437    0.00000    0.00000   29    diag,B
   43      0.631D-04      0.131D-05      -111.60359404    230.963660   -0.30452    0.00000    0.00000   29    diag,B
   44      0.619D-04      0.111D-05      -111.60359408    230.963471   -0.30464    0.00000    0.00000   29    diag,B
   45      0.543D-04      0.931D-06      -111.60359413    230.963271   -0.30483    0.00000    0.00000   29    diag,B
   46      0.622D-04      0.721D-06      -111.60359416    230.963085   -0.30497    0.00000    0.00000   29    diag,B
   47      0.285D-04      0.556D-06      -111.60359417    230.962965   -0.30508    0.00000    0.00000   29    diag,B
   48      0.383D-04      0.452D-06      -111.60359418    230.962816   -0.30515    0.00000    0.00000   29    diag,B
   49      0.236D-04      0.392D-06      -111.60359419    230.962662   -0.30521    0.00000    0.00000   29    fixocc
   50      0.148D-04      0.352D-06      -111.60359419    230.962546   -0.30528    0.00000    0.00000   29    orth
   51      0.122D-04      0.321D-06      -111.60359420    230.962447   -0.30535    0.00000    0.00000   29    diag,B
   52      0.162D-04      0.291D-06      -111.60359421    230.962306   -0.30545    0.00000    0.00000   29    diag,B
   53      0.168D-04      0.254D-06      -111.60359422    230.962166   -0.30557    0.00000    0.00000   29    diag,B
   54      0.142D-04      0.207D-06      -111.60359423    230.962046   -0.30567    0.00000    0.00000   29    diag,B
   55      0.150D-04      0.163D-06      -111.60359423    230.961937   -0.30576    0.00000    0.00000   29    diag,B
   56      0.153D-04      0.113D-06      -111.60359423    230.961895   -0.30580    0.00000    0.00000   29    diag,B
   57      0.858D-05      0.840D-07      -111.60359423    230.961892   -0.30580    0.00000    0.00000    0    orth

 Final alpha occupancy:   5   3   3   1
 Final beta  occupancy:   4   2   2   0

 !RKS STATE 1.1 Energy               -111.603594231611
   --><property name="Energy" method="RKS" principal="true" stateSymmetry="1" stateNumber="1"
     value="-111.603594231611"/><!--
 Nuclear energy                        19.66142080
 One-electron energy                 -236.57177357
 Two-electron energy                  115.48094588
 Density functional                   -10.17418735     PBEX=-12.56477115 PBEC= -0.75060899
 Virial quotient                       -0.77385935
 !RKS STATE 1.1 Dipole moment          -0.30579536     0.00000000     0.00000000
 Dipole moment /Debye                  -0.77720336     0.00000000     0.00000000
   --><property name="Dipole moment" method="RKS" principal="true" stateSymmetry="1"
     stateNumber="1" value="-0.305795357044834 0.0 0.0"/><!--

 ELECTRON ORBITALS
 =================


   Orb  Occ    Energy  Couls-En    Coefficients

                                   1 1s      1 1s      1 1s      1 1s      1 1s      1 1s      1 1s      1 1s      1 1s      1 1s
                                   1 1s      1 1s      1 1s      1 1s      1 1s      1 1s      1 1s      1 1s      1 1s      1 1s
                                   1 1s      1 1s      1 1s      1 1s      1 1s      1 1s      1 1s      1 1s      1 1s      1 1s
                                   1 1s      1 1s      1 2px     1 2px     1 2px     1 2px     1 2px     1 2px     1 2px     1 2px
                                   1 2px     1 2px     1 2px     1 2px     1 2px     1 2px     1 2px     1 2px     1 2px     1 2px
                                   1 2px     1 2px     1 2px     1 2px     1 2px     1 2px     1 2px     1 2px     1 2px     1 2px
                                   1 2px     1 2px     1 3d0     1 3d2+    1 3d0     1 3d2+    1 3d0     1 3d2+    1 3d0     1 3d2+
                                   1 3d0     1 3d2+    1 3d0     1 3d2+    1 3d0     1 3d2+    1 3d0     1 3d2+    1 3d0     1 3d2+
                                   1 3d0     1 3d2+    1 3d0     1 3d2+    1 3d0     1 3d2+    1 3d0     1 3d2+    1 3d0     1 3d2+
                                   1 3d0     1 3d2+    1 3d0     1 3d2+    1 3d0     1 3d2+    1 3d0     1 3d2+    1 3d0     1 3d2+
                                   1 3d0     1 3d2+    1 3d0     1 3d2+    1 3d0     1 3d2+    1 4f1+    1 4f3+    1 4f1+    1 4f3+
                                   1 4f1+    1 4f3+    1 4f1+    1 4f3+    1 4f1+    1 4f3+    1 4f1+    1 4f3+    1 4f1+    1 4f3+
                                   1 4f1+    1 4f3+    1 4f1+    1 4f3+    1 4f1+    1 4f3+    1 4f1+    1 4f3+    1 4f1+    1 4f3+
                                   1 4f1+    1 4f3+    1 4f1+    1 4f3+    1 5g0     1 5g4+    1 5g2+    1 5g0     1 5g4+    1 5g2+
                                   1 5g0     1 5g4+    1 5g2+    1 5g0     1 5g4+    1 5g2+    1 5g0     1 5g4+    1 5g2+    1 5g0
                                   1 5g4+    1 5g2+    1 5g0     1 5g4+    1 5g2+    1 5g0     1 5g4+    1 5g2+    1 5g0     1 5g4+
                                   1 5g2+    1 6h1+    1 6h3+    1 6h5+    1 6h1+    1 6h3+    1 6h5+    1 6h1+    1 6h3+    1 6h5+
                                   2 1s      2 1s      2 1s      2 1s      2 1s      2 1s      2 2px     2 2px     2 2px     2 3d0
                                   2 3d2+    2 3d0     2 3d2+    3 1s      3 1s      3 1s      3 1s      3 1s      3 1s      3 2px
                                   3 2py     3 2px     3 2py     3 2px     3 2py     3 3d0     3 3d2+    3 3d2-    3 3d0     3 3d2+
                                   3 3d2-

   1.1   2    -2.0687  -15.3056 -0.000000  0.000001 -0.000005  0.000095  0.000415  0.001283  0.002685  0.005835 -0.002206  0.006550
                                -0.116710  0.530221 -0.131617  0.146816  0.934761  0.444388  0.497973  0.358952  0.120319 -0.000166
                                -0.000745 -0.002185 -0.006074  0.182586 -1.046769 -0.093713 -0.268322 -0.632209 -0.209261 -0.006307
                                 0.002243 -0.000487 -0.000000  0.000000 -0.000000  0.000000 -0.000000  0.000000 -0.000000  0.000001
                                -0.000004  0.000038  0.000498  0.000730  0.003895 -0.000284  0.003079  0.001433  0.000828  0.007313
                                 0.000099 -0.000168 -0.000754 -0.003126 -0.002570  0.002189 -0.000350 -0.000084 -0.000898  0.000006
                                 0.000028 -0.000005 -0.000000  0.000000  0.000001 -0.000000 -0.000005  0.000000  0.000026  0.000000
                                -0.000455  0.000011 -0.003101  0.000774  0.002577 -0.001040  0.002088  0.000170  0.003856 -0.001029
                                 0.006719 -0.000042  0.001017 -0.000086  0.004975 -0.001595 -0.005099  0.001964 -0.006046 -0.001068
                                -0.004769 -0.001146  0.008439 -0.000385 -0.000491  0.002233  0.000115 -0.000176  0.000209 -0.000114
                                 0.000901 -0.000082 -0.000282  0.000018  0.000076 -0.000004 -0.000000 -0.000000  0.000001  0.000002
                                -0.000022 -0.000034 -0.000428 -0.000693 -0.000834 -0.001226 -0.001116 -0.000071 -0.000627  0.000997
                                 0.000001  0.000100  0.000338  0.000025 -0.000131 -0.007523 -0.000572 -0.003089 -0.000079  0.001891
                                 0.000035 -0.000727  0.000006  0.000007  0.000049 -0.000047  0.000006 -0.000506  0.000489 -0.000228
                                -0.000100 -0.000046 -0.000215  0.000643 -0.000710  0.000093  0.000425  0.000016 -0.000103 -0.000553
                                 0.000734  0.000094 -0.000749  0.000129 -0.000062  0.000342  0.000155 -0.000032  0.000006 -0.000024
                                 0.000028  0.000005 -0.000021  0.000002 -0.000064 -0.000004  0.000046 -0.000067 -0.000352  0.000055
                                 0.000281  0.002719  0.009090  0.021408  0.002969  0.008472 -0.003133 -0.007998 -0.002963 -0.000648
                                 0.001123 -0.000312  0.000790  0.000409  0.003880  0.013609  0.033388  0.020390  0.009400  0.002300
                                 0.004109  0.005706  0.011121  0.003319  0.007107 -0.000937 -0.000995  0.001428 -0.000489 -0.000873
                                 0.000976

   2.1   2    -1.2341  -12.5276  0.000000 -0.000000  0.000000 -0.000002 -0.000010 -0.000032 -0.000067 -0.000149  0.000058 -0.000177
                                 0.001325  0.000731  0.000082 -0.003536 -0.002923 -0.010517 -0.048441  0.000280  0.019911  0.000004
                                 0.000018  0.000054  0.000154 -0.001688  0.000230  0.008854  0.027820 -0.006101  0.003103 -0.000037
                                 0.000005 -0.000000  0.000000 -0.000000  0.000001 -0.000002  0.000003 -0.000004  0.000008 -0.000023
                                 0.000095 -0.000911 -0.010363 -0.013386  0.097575 -0.105665  0.146568  0.312303  0.025381  0.020611
                                 0.001590  0.003768  0.014875 -0.021574 -0.177573  0.173331  0.396143  0.002659 -0.001049 -0.007970
                                -0.000722  0.000131 -0.000000 -0.000000  0.000000  0.000001 -0.000001 -0.000003  0.000006  0.000016
                                -0.000102 -0.000278 -0.000888 -0.002487  0.001440  0.006876 -0.000318 -0.004819 -0.002286 -0.004365
                                -0.000103 -0.002990  0.000243  0.000657  0.001608  0.004852 -0.002159 -0.008302  0.001494  0.005149
                                 0.000646  0.015150 -0.003336 -0.023551  0.006888  0.012100  0.000058  0.001293 -0.000922 -0.000471
                                -0.000711 -0.001410  0.000184  0.000459 -0.000047 -0.000125 -0.000001 -0.000000  0.000009  0.000004
                                -0.000122 -0.000075 -0.001702 -0.001410 -0.002481 -0.002123 -0.004973 -0.003696 -0.005031 -0.002849
                                -0.000728 -0.000263  0.000155  0.000402  0.007659  0.003981  0.002546 -0.001587 -0.004145 -0.000999
                                 0.001475  0.000695 -0.000304  0.000027 -0.000011  0.000048 -0.000026 -0.000026 -0.000088 -0.000032
                                -0.000168  0.000383 -0.000136  0.000119  0.000551 -0.000807 -0.000277  0.001895 -0.001256  0.000184
                                -0.000550  0.000518  0.000141 -0.004445  0.001822 -0.000311  0.002368 -0.001303  0.000113 -0.000164
                                 0.000005 -0.000019  0.000064  0.000062 -0.000218  0.000212  0.000249  0.000571  0.000356 -0.000287
                                 0.001176  0.012232  0.044143  0.093564  0.019867  0.004670 -0.008651 -0.023486 -0.012455 -0.001462
                                 0.002372 -0.000600  0.002101 -0.000865 -0.008985 -0.032982 -0.074983  0.017234 -0.020565 -0.000978
                                -0.006687 -0.004579 -0.019142 -0.001524 -0.002162  0.000986  0.002191 -0.000708  0.000372  0.000901
                                -0.001065

   3.1   2    -0.5697   -9.6139 -0.000000  0.000000 -0.000001  0.000021  0.000093  0.000289  0.000605  0.001310 -0.000491  0.001479
                                -0.033253  0.168249  0.001636 -0.000538  0.430523 -0.013298 -0.800981  0.346011  0.648698 -0.000037
                                -0.000168 -0.000492 -0.001365  0.054546 -0.355605 -0.013962  0.486772 -0.570315 -0.232695 -0.011467
                                 0.004025 -0.000877  0.000000 -0.000000  0.000000 -0.000000  0.000000 -0.000000  0.000001 -0.000002
                                 0.000003  0.000092  0.001765  0.000959 -0.003579  0.002341 -0.008205 -0.009124 -0.027925  0.111060
                                -0.008513 -0.000613 -0.002016  0.001418  0.004706 -0.001859 -0.008802  0.004735 -0.014605 -0.021159
                                -0.001056  0.000175 -0.000001 -0.000000  0.000006  0.000000 -0.000024 -0.000001  0.000127  0.000005
                                -0.002314 -0.000065 -0.020290 -0.000339  0.047372  0.001271 -0.029769 -0.001198 -0.023717 -0.001123
                                 0.109549  0.007367  0.005468  0.000129  0.038241  0.000632 -0.060117 -0.001292  0.025280 -0.000001
                                 0.098677  0.004001 -0.030476 -0.005760  0.171554  0.037890 -0.015029  0.004215 -0.010944 -0.007795
                                -0.018689 -0.003374  0.005313  0.000710 -0.001392 -0.000165 -0.000007 -0.000060  0.000061  0.000487
                                -0.000892 -0.007225 -0.013816 -0.117126 -0.020591 -0.172375 -0.021293 -0.181366 -0.014072 -0.143394
                                -0.003596 -0.028555 -0.001328 -0.011031  0.001933  0.028786 -0.008061 -0.054538 -0.002122 -0.014869
                                 0.001560  0.013889  0.000167  0.000793 -0.000068 -0.000018 -0.000012 -0.000039  0.000059 -0.000079
                                -0.000790 -0.000125 -0.000190  0.000190 -0.000523 -0.000114 -0.005660  0.000941 -0.000634  0.003988
                                -0.002108 -0.000107  0.003942 -0.000889 -0.000088 -0.007495  0.002290 -0.001483  0.003439 -0.000859
                                 0.000558  0.000217 -0.000129  0.000236  0.000324  0.000067  0.000316  0.000074  0.001384  0.000258
                                -0.002024 -0.022489 -0.085646 -0.235593  0.082355 -0.124073  0.002974  0.024546 -0.038564  0.000153
                                -0.000134 -0.003571  0.003551 -0.003257 -0.036189 -0.140728 -0.390183  0.321640 -0.295181 -0.001645
                                -0.003773 -0.016395 -0.033047  0.050528  0.087056 -0.000184  0.000182 -0.000225 -0.005893 -0.002775
                                 0.005065

   4.1   2    -0.4782   -8.2797  0.000000 -0.000000  0.000000 -0.000003 -0.000015 -0.000045 -0.000095 -0.000204  0.000076 -0.000210
                                 0.001787  0.001810  0.008967 -0.012609  0.022861 -0.055379 -0.291756  0.118167  0.213585  0.000006
                                 0.000026  0.000077  0.000213 -0.002487 -0.002905 -0.004259  0.142182 -0.241461 -0.038222 -0.002412
                                 0.000798 -0.000170  0.000000 -0.000000  0.000000 -0.000001  0.000001 -0.000001  0.000003 -0.000007
                                 0.000031 -0.000294 -0.003433 -0.004808  0.038831 -0.025674  0.090335  0.155164  0.136186 -0.094119
                                 0.014505  0.001220  0.005090 -0.008637 -0.082272  0.065041  0.131650 -0.011189 -0.044570  0.029553
                                 0.002969 -0.000530 -0.000000  0.000001  0.000001 -0.000005 -0.000003  0.000022  0.000014 -0.000115
                                -0.000261  0.002104 -0.002273  0.019066  0.004354 -0.052939 -0.001179  0.043139 -0.006007  0.012356
                                -0.001273 -0.201237  0.000615 -0.005005  0.004278 -0.036691 -0.006257  0.062180  0.004313 -0.023540
                                -0.000393 -0.164470 -0.017782 -0.072782  0.052985 -0.102306  0.002095  0.015881 -0.009713 -0.019814
                                -0.005390  0.005899  0.001282 -0.002546 -0.000317  0.000737  0.000009 -0.000016 -0.000072  0.000129
                                 0.001051 -0.001906  0.017701 -0.030757  0.028352 -0.044354  0.030293 -0.046845  0.031818 -0.033457
                                 0.002863 -0.007771 -0.001946 -0.003854 -0.002844  0.005954  0.011322 -0.020052  0.005440 -0.006204
                                -0.001026  0.005421  0.000460  0.000365 -0.000020  0.000003  0.000023  0.000046 -0.000127 -0.000125
                                -0.000180  0.000041  0.000069  0.000600 -0.001328  0.001153 -0.000900 -0.002805  0.002991  0.001503
                                -0.001194 -0.001099 -0.000172  0.006414 -0.003746 -0.001903 -0.008435  0.003677  0.000977  0.000608
                                -0.001312 -0.000021  0.000021  0.000073 -0.000076  0.000070  0.000194 -0.000449  0.000290 -0.001290
                                -0.003107 -0.034521 -0.134113 -0.364017 -0.034592 -0.067482  0.003974  0.029771 -0.021341  0.000180
                                -0.000864 -0.003129  0.001169  0.002193  0.024267  0.096507  0.252240  0.324179 -0.099575  0.006919
                                -0.000839  0.027279  0.004979  0.051383  0.027067 -0.000242  0.002570  0.002809  0.000291  0.005039
                                 0.004170

   5.1   +    -0.7172  -15.2917 -0.000000  0.000000 -0.000000  0.000000  0.000000 -0.000000 -0.000001 -0.000010  0.000007  0.000000
                                -0.001195  0.005017 -0.000930  0.001616  0.021987 -0.009454 -0.098140  0.016621  0.045044 -0.000000
                                -0.000000  0.000001  0.000008  0.002147 -0.011120 -0.008657  0.056651 -0.032970 -0.006383 -0.000467
                                 0.000153 -0.000032 -0.000000  0.000000 -0.000000  0.000001 -0.000002  0.000002 -0.000005  0.000014
                                -0.000046  0.000160 -0.000814  0.000594  0.012015  0.020058  0.040651 -0.082496  0.254886 -1.919359
                                 0.078971  0.000009  0.000768 -0.009747 -0.012685 -0.034984 -0.019573 -0.047826  0.273001  0.246989
                                 0.009896 -0.001576 -0.000000  0.000000  0.000000 -0.000001 -0.000001  0.000004  0.000008 -0.000020
                                -0.000144  0.000388 -0.001170  0.003397  0.002426 -0.004744 -0.001497 -0.001203 -0.001153  0.007187
                                 0.003352  0.005730  0.000333 -0.000925  0.002133 -0.006229 -0.003167  0.008125  0.002080 -0.006112
                                 0.004703  0.020948 -0.004875  0.135356  0.015718 -0.609959 -0.000517 -0.077782 -0.001424  0.123095
                                -0.001384  0.042942  0.000366 -0.008181 -0.000093  0.001816  0.000143 -0.000007 -0.001151  0.000054
                                 0.016513 -0.000813  0.265978 -0.014508  0.380859 -0.020036  0.367746 -0.018819  0.209428 -0.011250
                                 0.065865 -0.003677  0.035037 -0.002316 -0.038653  0.003997  0.126341 -0.005085  0.035356 -0.001458
                                -0.023135  0.001204 -0.002201  0.000068 -0.000027 -0.000150  0.000123 -0.000013  0.000372 -0.000143
                                -0.000173 -0.001577  0.001150 -0.000223  0.003165 -0.001526 -0.000344 -0.007614  0.003838  0.000479
                                 0.011196 -0.005213  0.000221 -0.003543  0.002492 -0.000632 -0.035395  0.021360  0.000272  0.011682
                                -0.007805  0.000202  0.000590  0.000705 -0.000057  0.000097  0.000780  0.000091 -0.000130  0.000386
                                 0.000072  0.000205  0.005252 -0.030154  2.003699 -0.803701 -0.001405  0.006818 -0.397855 -0.000171
                                 0.001059 -0.001582  0.004884 -0.000219 -0.002039 -0.010708 -0.003623 -1.355749  0.536336 -0.001717
                                -0.000278 -0.008583  0.006419 -0.122929 -0.236646  0.000095  0.000143 -0.000916  0.000694 -0.003865
                                -0.005782

   6.1   0    -0.4060  -12.6654  0.000000 -0.000000  0.000001 -0.000025 -0.000108 -0.000335 -0.000703 -0.001537  0.000592 -0.001880
                                 0.031689 -0.070926  0.052969 -0.047232  0.035283 -0.462833 -1.903494  0.960279  1.504900  0.000043
                                 0.000194  0.000571  0.001596 -0.051839  0.176910 -0.186653  0.960970 -1.764148 -0.265277 -0.017216
                                 0.005730 -0.001222  0.000000 -0.000000  0.000000 -0.000001  0.000001 -0.000001  0.000003 -0.000006
                                 0.000011  0.000183  0.003676  0.002923  0.002611  0.008806 -0.007135 -0.015116 -0.032643  0.102855
                                -0.004230 -0.001261 -0.004500 -0.004836  0.000662 -0.004897 -0.013129  0.003004 -0.005020 -0.012342
                                -0.000699  0.000119 -0.000000 -0.000000  0.000001  0.000001 -0.000005 -0.000003  0.000029  0.000015
                                -0.000560 -0.000249 -0.005138 -0.002286  0.006704  0.006347  0.003372 -0.004817 -0.019088 -0.002722
                                -0.041089  0.022623  0.001352  0.000587  0.009628  0.004491 -0.012457 -0.007625  0.013561  0.002782
                                -0.038227  0.017258 -0.123381  0.003413  0.347549  0.045084  0.015226  0.001910 -0.073947 -0.001287
                                -0.036115 -0.002488  0.008238  0.000705 -0.002006 -0.000186 -0.000005 -0.000112  0.000045  0.000909
                                -0.000655 -0.013509 -0.009511 -0.216431 -0.014866 -0.311041 -0.015771 -0.315207 -0.011850 -0.203445
                                -0.002241 -0.057800 -0.000434 -0.034242  0.001559  0.036045 -0.007795 -0.138724 -0.002651 -0.038830
                                 0.001092  0.037673 -0.000008  0.002787 -0.000096 -0.000034 -0.000019  0.000306 -0.000094  0.000022
                                -0.001144 -0.000117 -0.000116  0.002585 -0.000347 -0.000052 -0.005047  0.000201 -0.000525  0.006480
                                 0.000985  0.000742 -0.003421  0.000453  0.000411 -0.012067  0.003129 -0.001358  0.006665 -0.000496
                                 0.000519 -0.000598 -0.000530  0.000191 -0.000438 -0.000027  0.000349 -0.000169  0.000202  0.000356
                                 0.001166  0.012699  0.050461  0.112812  0.975578 -0.459228 -0.001456 -0.005617 -0.204707 -0.001030
                                 0.000360 -0.004698  0.004703  0.000958  0.010178  0.042231  0.074890  1.542920 -0.710712 -0.000303
                                 0.001535 -0.003752  0.002012  0.157477  0.288572 -0.001253 -0.000567  0.000056 -0.007149 -0.004038
                                 0.005905

   7.1   0    -0.2457   -6.9510  0.000000 -0.000000  0.000001 -0.000019 -0.000083 -0.000256 -0.000538 -0.001180  0.000458 -0.001500
                                 0.029461 -0.087413  0.030276 -0.034013 -0.277823 -0.231786  0.196101  0.148971 -0.119097  0.000033
                                 0.000148  0.000437  0.001224 -0.048983  0.208618  0.012275  0.011019  0.663522  0.244334  0.006997
                                -0.002166  0.000459 -0.000000  0.000000 -0.000000  0.000000 -0.000000  0.000000 -0.000000  0.000001
                                -0.000002 -0.000015 -0.000357 -0.000237  0.001008  0.000489  0.008207  0.010929  0.013296 -0.004349
                                -0.013711  0.000121  0.000421 -0.000293 -0.002150 -0.001683 -0.006605  0.000544  0.003006 -0.001883
                                -0.000137  0.000023 -0.000001  0.000000  0.000003 -0.000000 -0.000012  0.000002  0.000063 -0.000010
                                -0.001128  0.000178 -0.010247  0.001440  0.035347 -0.002675 -0.039464  0.000923  0.004520  0.002911
                                 0.247441  0.001563  0.002674 -0.000409  0.019871 -0.002646 -0.037053  0.003791  0.013820 -0.001896
                                 0.165457 -0.003112  0.222507  0.002812  0.078579 -0.002329  0.073776 -0.002271  0.017670 -0.000171
                                 0.005855  0.000357 -0.001734 -0.000137  0.000487  0.000040  0.000000  0.000013 -0.000004 -0.000108
                                 0.000054  0.001601  0.000727  0.025499  0.001159  0.036150  0.001444  0.035615  0.001440  0.016648
                                 0.000198  0.006959 -0.000000  0.004676 -0.003900 -0.011095 -0.002094  0.020574  0.000339  0.018199
                                -0.000599 -0.005889  0.000104  0.001063  0.000008  0.000010  0.000037  0.000112  0.000017  0.000039
                                -0.000117  0.000185  0.000216 -0.000114  0.000603  0.000153 -0.000226 -0.000056  0.000369  0.002028
                                 0.001122 -0.000278  0.004770  0.001256  0.000223  0.000202 -0.000701  0.000362 -0.000050  0.000062
                                 0.000108  0.000068  0.000069 -0.000026  0.000066 -0.000019 -0.000042 -0.000137  0.000359  0.000002
                                -0.000483 -0.005129 -0.023162 -0.048149 -0.158267  0.018245  0.003768  0.004937  0.017528  0.001649
                                -0.000392  0.002579 -0.000037 -0.000631 -0.006628 -0.031423 -0.048546 -0.204936  0.032535 -0.002660
                                -0.005057 -0.001989 -0.001562 -0.008233 -0.014007  0.002437  0.000317 -0.000585  0.004388 -0.000512
                                 0.001011

                                   1 2py     1 2py     1 2py     1 2py     1 2py     1 2py     1 2py     1 2py     1 2py     1 2py
                                   1 2py     1 2py     1 2py     1 2py     1 2py     1 2py     1 2py     1 2py     1 2py     1 2py
                                   1 2py     1 2py     1 2py     1 2py     1 2py     1 2py     1 2py     1 2py     1 2py     1 2py
                                   1 3d2-    1 3d2-    1 3d2-    1 3d2-    1 3d2-    1 3d2-    1 3d2-    1 3d2-    1 3d2-    1 3d2-
                                   1 3d2-    1 3d2-    1 3d2-    1 3d2-    1 3d2-    1 3d2-    1 3d2-    1 3d2-    1 3d2-    1 3d2-
                                   1 3d2-    1 3d2-    1 4f1-    1 4f3-    1 4f1-    1 4f3-    1 4f1-    1 4f3-    1 4f1-    1 4f3-
                                   1 4f1-    1 4f3-    1 4f1-    1 4f3-    1 4f1-    1 4f3-    1 4f1-    1 4f3-    1 4f1-    1 4f3-
                                   1 4f1-    1 4f3-    1 4f1-    1 4f3-    1 4f1-    1 4f3-    1 4f1-    1 4f3-    1 4f1-    1 4f3-
                                   1 5g2-    1 5g4-    1 5g2-    1 5g4-    1 5g2-    1 5g4-    1 5g2-    1 5g4-    1 5g2-    1 5g4-
                                   1 5g2-    1 5g4-    1 5g2-    1 5g4-    1 5g2-    1 5g4-    1 5g2-    1 5g4-    1 6h1-    1 6h3-
                                   1 6h5-    1 6h1-    1 6h3-    1 6h5-    1 6h1-    1 6h3-    1 6h5-    2 2py     2 2py     2 2py
                                   2 3d2-    2 3d2-    3 1s      3 1s      3 1s      3 1s      3 1s      3 1s      3 2py     3 2px
                                   3 2py     3 2px     3 2py     3 2px     3 3d2-    3 3d0     3 3d2+    3 3d2-    3 3d0     3 3d2+


   1.2   2    -1.2445  -12.5441  0.000000 -0.000000  0.000001 -0.000002  0.000003 -0.000004  0.000008 -0.000023  0.000095 -0.000899
                                -0.010105 -0.013396  0.094923 -0.104311  0.150591  0.312716  0.026426  0.005545  0.002535  0.003686
                                 0.014598 -0.019381 -0.178591  0.175118  0.391351  0.002800 -0.005308 -0.009600 -0.000729  0.000130
                                 0.000000 -0.000001  0.000004 -0.000021  0.000370  0.002966 -0.006007  0.003525  0.005620  0.000438
                                -0.000859 -0.005321  0.007840 -0.004120 -0.011879  0.018618 -0.005301 -0.003081  0.002273  0.001656
                                -0.000454  0.000118 -0.000000 -0.000003  0.000001  0.000025 -0.000011 -0.000363 -0.000014 -0.005853
                                -0.000179 -0.008683 -0.003462 -0.008377 -0.004832 -0.004634 -0.000326 -0.001306  0.000804 -0.001097
                                 0.006496 -0.001251  0.003443 -0.001093 -0.003781  0.000463  0.001524 -0.000227 -0.000233  0.000076
                                 0.000018  0.000034  0.000045 -0.000105  0.000180  0.000185  0.000369  0.000534  0.001150  0.001589
                                 0.000094 -0.001019 -0.001951 -0.004272  0.001185  0.002139 -0.000007 -0.000232 -0.000049 -0.000105
                                 0.000065 -0.000020 -0.000232 -0.000164  0.000794 -0.000075 -0.000776  0.001697  0.004960  0.000572
                                -0.001355 -0.000608 -0.001481 -0.015376 -0.056958 -0.117752 -0.023557 -0.025781 -0.008853 -0.006326
                                -0.022761 -0.017267 -0.012123 -0.007845 -0.002941  0.001608  0.000839 -0.002033  0.000855  0.000376

   2.2   2    -0.5181  -10.9020 -0.000000  0.000000 -0.000000  0.000000 -0.000001  0.000001 -0.000001  0.000003 -0.000001 -0.000216
                                -0.004007 -0.004126  0.033555 -0.013004  0.101920  0.073986  0.283557 -1.390410  0.071363  0.001342
                                 0.005284 -0.008058 -0.074115  0.039230  0.105208 -0.044746  0.159807  0.205224  0.009891 -0.001634
                                -0.000001  0.000005 -0.000021  0.000109 -0.001984 -0.017887  0.047230 -0.035760 -0.017180  0.157469
                                 0.004712  0.034354 -0.056987  0.024829  0.126557 -0.041449  0.495432  0.036645 -0.071409 -0.036713
                                 0.008346 -0.002019  0.000082 -0.000009 -0.000665  0.000071  0.009752 -0.000947  0.157896 -0.014010
                                 0.232640 -0.020484  0.238583 -0.019990  0.163902 -0.011484  0.037131 -0.003361  0.013736 -0.001575
                                -0.017391  0.000931  0.100374 -0.003642  0.029763  0.000990 -0.017575 -0.000632 -0.001202  0.000219
                                -0.000081 -0.000112  0.000183  0.000180 -0.000658 -0.000995 -0.000099  0.000461 -0.005434 -0.007741
                                 0.004331  0.006057  0.001664  0.002971 -0.017951 -0.031460  0.006656  0.008882 -0.000229 -0.000724
                                 0.000125 -0.000507 -0.000606  0.000165 -0.000646 -0.000150  0.001129  0.003332  0.006681  0.026506
                                -0.002230 -0.000244  0.003182  0.035718  0.138750  0.403570 -1.470286  0.698424  0.004437 -0.001281
                                 0.033796  0.010188 -0.265509 -0.175368 -0.000606 -0.000083 -0.001496 -0.004294  0.002946  0.001337

   3.2   +    -0.7965  -15.5023 -0.000000  0.000000 -0.000000  0.000000 -0.000000  0.000000 -0.000000  0.000001  0.000001 -0.000113
                                -0.002288 -0.002689 -0.002947 -0.003579  0.006919  0.010305  0.012615 -0.059946  0.003444  0.000715
                                 0.003235  0.005870 -0.007933  0.011897  0.019257 -0.002150  0.005943  0.009327  0.000489 -0.000082
                                -0.000000  0.000000 -0.000001  0.000005 -0.000080 -0.000612  0.001894 -0.002071  0.000505  0.008317
                                 0.000175  0.001160 -0.002049  0.001636  0.008195 -0.001108  0.021096  0.001458 -0.002908 -0.001600
                                 0.000374 -0.000092  0.000002  0.000147 -0.000019 -0.001181  0.000345  0.016805  0.006174  0.269402
                                 0.009335  0.383427  0.009861  0.366320  0.006991  0.200575  0.001957  0.067731  0.000777  0.038007
                                -0.000541 -0.040828  0.004410  0.042798  0.001347 -0.020351 -0.000762  0.010245 -0.000045 -0.003505
                                -0.000014  0.000044  0.000056  0.000126 -0.000041  0.000447 -0.000181  0.000513 -0.000085 -0.000173
                                 0.000277  0.000226  0.000146  0.000051 -0.000788 -0.001455  0.000285  0.000381  0.000046 -0.000433
                                 0.000395 -0.000155 -0.000823  0.000130  0.000019 -0.000635 -0.000134  0.000923  0.016868  0.005429
                                 0.000384 -0.011638  0.000163  0.001844  0.007260  0.022041 -0.058976  0.029575 -0.000426  0.000874
                                -0.009827  0.021215 -0.013430 -0.002293 -0.000293  0.000011 -0.000693  0.008103  0.000067  0.014276

   4.2   0    -0.4105  -12.0219  0.000000 -0.000000  0.000000 -0.000001  0.000001 -0.000002  0.000004 -0.000011  0.000035 -0.000143
                                -0.000768 -0.003032  0.012766 -0.030551  0.019167  0.172545 -0.162892  1.858453 -0.075535  0.000273
                                 0.001938  0.002734 -0.039533  0.071901  0.092212  0.044372 -0.329442 -0.246850 -0.008847  0.001387
                                -0.000000  0.000002 -0.000009  0.000046 -0.000842 -0.007813  0.024502 -0.023872 -0.000808  0.101013
                                 0.002018  0.015133 -0.027014  0.008465  0.106750  0.159934 -0.547229 -0.088371  0.145496  0.043367
                                -0.007523  0.001588 -0.000103 -0.000001  0.000832  0.000006 -0.012332 -0.000118 -0.199289 -0.002183
                                -0.290101 -0.002963 -0.291252 -0.002970 -0.176885 -0.001643 -0.050090 -0.001058 -0.024479 -0.000897
                                 0.020686 -0.000920 -0.125657 -0.001372 -0.033787  0.000500  0.024215 -0.000311  0.002700  0.000092
                                 0.000056  0.000157 -0.000187 -0.000408  0.000630  0.001596 -0.002612 -0.003550  0.001859  0.005571
                                -0.003455 -0.010700  0.004870  0.006989  0.019396  0.030212 -0.007454 -0.011863  0.000384 -0.000300
                                 0.000726  0.000679 -0.000357  0.000616  0.000107 -0.000481  0.000575  0.003841  0.017175  0.005216
                                -0.001747 -0.007298  0.002257  0.024401  0.100224  0.232202  2.565141 -1.047552  0.004317 -0.001425
                                 0.017114 -0.006358  0.423703  0.237618  0.001133 -0.000123 -0.002156  0.002269  0.000026 -0.007082

   5.2   0    -0.1863   -5.7073 -0.000000  0.000000 -0.000000  0.000001 -0.000001  0.000001 -0.000002  0.000006 -0.000027  0.000260
                                 0.003014  0.004282 -0.024454  0.023554 -0.069103 -0.141748 -0.033600  0.215667  0.411082 -0.001082
                                -0.004435  0.001732  0.063971 -0.060003 -0.132150 -0.002112  0.016589  0.042627  0.002330 -0.000469
                                -0.000001  0.000003 -0.000012  0.000061 -0.001106 -0.010000  0.030280 -0.029498  0.000965  0.171798
                                 0.002627  0.019234 -0.033775  0.012930  0.116170  0.122598  0.096307  0.021700  0.037366  0.010342
                                -0.001782  0.000410 -0.000001  0.000001  0.000005 -0.000006 -0.000072  0.000079 -0.001310  0.001221
                                -0.002362  0.001667 -0.001947  0.001401 -0.003552  0.000999 -0.000111  0.000349  0.000471  0.000225
                                -0.001621 -0.002927 -0.006158 -0.005877 -0.007757 -0.002920 -0.002316 -0.001295  0.001272  0.000048
                                 0.000007  0.000050  0.000045  0.000086 -0.000023  0.000349 -0.000122  0.000321 -0.000362  0.001518
                                 0.002031 -0.002512  0.002245  0.010154  0.003978  0.004888  0.001017  0.002422  0.000028  0.000002
                                -0.000028  0.000065 -0.000054 -0.000081  0.000005 -0.000113  0.000271  0.007120  0.031392  0.062555
                                -0.001984 -0.005110 -0.000295 -0.003665 -0.012084 -0.046990 -0.166332 -0.171894  0.011705  0.000449
                                 0.031180 -0.009420  0.020105 -0.043271  0.001204 -0.000969 -0.002424  0.001017  0.002308 -0.005976

                                   1 2pz     1 2pz     1 2pz     1 2pz     1 2pz     1 2pz     1 2pz     1 2pz     1 2pz     1 2pz
                                   1 2pz     1 2pz     1 2pz     1 2pz     1 2pz     1 2pz     1 2pz     1 2pz     1 2pz     1 2pz
                                   1 2pz     1 2pz     1 2pz     1 2pz     1 2pz     1 2pz     1 2pz     1 2pz     1 2pz     1 2pz
                                   1 3d1+    1 3d1+    1 3d1+    1 3d1+    1 3d1+    1 3d1+    1 3d1+    1 3d1+    1 3d1+    1 3d1+
                                   1 3d1+    1 3d1+    1 3d1+    1 3d1+    1 3d1+    1 3d1+    1 3d1+    1 3d1+    1 3d1+    1 3d1+
                                   1 3d1+    1 3d1+    1 4f0     1 4f2+    1 4f0     1 4f2+    1 4f0     1 4f2+    1 4f0     1 4f2+
                                   1 4f0     1 4f2+    1 4f0     1 4f2+    1 4f0     1 4f2+    1 4f0     1 4f2+    1 4f0     1 4f2+
                                   1 4f0     1 4f2+    1 4f0     1 4f2+    1 4f0     1 4f2+    1 4f0     1 4f2+    1 4f0     1 4f2+
                                   1 5g1+    1 5g3+    1 5g1+    1 5g3+    1 5g1+    1 5g3+    1 5g1+    1 5g3+    1 5g1+    1 5g3+
                                   1 5g1+    1 5g3+    1 5g1+    1 5g3+    1 5g1+    1 5g3+    1 5g1+    1 5g3+    1 6h2+    1 6h4+
                                   1 6h0     1 6h2+    1 6h4+    1 6h0     1 6h2+    1 6h4+    1 6h0     2 2pz     2 2pz     2 2pz
                                   2 3d1+    2 3d1+    3 2pz     3 2pz     3 2pz     3 3d1+    3 3d1-    3 3d1+    3 3d1-

   1.3   2    -1.1862  -12.5768  0.000000 -0.000000  0.000001 -0.000002  0.000003 -0.000004  0.000008 -0.000024  0.000103 -0.001003
                                -0.011558 -0.015284  0.094199 -0.107521  0.176828  0.350761  0.080312  0.006144 -0.008817  0.004177
                                 0.016706 -0.015719 -0.185159  0.169800  0.395275  0.002731  0.009928 -0.007130 -0.000733  0.000131
                                 0.000000 -0.000000  0.000001 -0.000006  0.000102  0.000646  0.000064 -0.000474  0.000178 -0.000521
                                -0.000232 -0.000858  0.000386  0.000579  0.000680 -0.000941 -0.000075 -0.000547  0.000257 -0.000087
                                 0.000037 -0.000011 -0.000003 -0.000002  0.000025  0.000014 -0.000352 -0.000210 -0.005660 -0.003652
                                -0.007818 -0.005537 -0.008444 -0.005526 -0.003263 -0.002662 -0.001403 -0.000643 -0.001794 -0.000442
                                 0.005207  0.000401  0.000454 -0.000462  0.000956  0.000125 -0.000077 -0.000134  0.000004  0.000050
                                 0.000000  0.000022 -0.000016 -0.000147 -0.000078  0.000122 -0.000412 -0.000175 -0.000320  0.000410
                                -0.000059 -0.001734  0.000083 -0.000718  0.000083  0.000188  0.000007 -0.000332 -0.000016  0.000171
                                -0.000056 -0.000317  0.000279 -0.000121  0.000033 -0.000168  0.000787  0.002048  0.006429  0.004092
                                -0.001673 -0.002046  0.003111  0.008770  0.004334  0.001135  0.002039  0.001563  0.002206

   2.3   2    -0.6175  -15.1580 -0.000000  0.000000 -0.000000  0.000001 -0.000001  0.000001 -0.000003  0.000007 -0.000025  0.000062
                                -0.002508 -0.002892 -0.003953 -0.006635 -0.000038  0.007129  0.001801  0.005210 -0.001414  0.000393
                                 0.004061  0.004982  0.003437 -0.001559  0.003735  0.000583  0.001946 -0.001465 -0.000161  0.000029
                                -0.000000  0.000001 -0.000004  0.000019 -0.000358 -0.003353  0.007840 -0.003849 -0.006785  0.003971
                                 0.000859  0.006503 -0.010314  0.007238  0.006233 -0.031584  0.032461 -0.018279  0.010156 -0.003745
                                 0.001641 -0.000478 -0.000008  0.000142  0.000064 -0.001140 -0.000840  0.016373 -0.012368  0.262630
                                -0.018960  0.383170 -0.019844  0.377787 -0.013187  0.218130 -0.002560  0.061406 -0.000727  0.024374
                                 0.000125 -0.013357 -0.003946  0.052560  0.001440 -0.027545 -0.000932  0.015837  0.000337 -0.005592
                                -0.000081  0.000044  0.000141  0.000111 -0.000805  0.000322  0.000889  0.000322 -0.003069  0.000383
                                 0.003688 -0.000306  0.001124 -0.000246 -0.004411  0.000609  0.001599 -0.000165  0.000061  0.000012
                                 0.000070 -0.000265  0.000095  0.000140 -0.000389 -0.000108 -0.000106  0.001194  0.016753  0.001782
                                 0.000565 -0.011045 -0.000626 -0.009807 -0.002099 -0.000438  0.000740 -0.005687 -0.004415

   3.3   +    -0.7388  -15.3864 -0.000000  0.000000 -0.000000  0.000000 -0.000000  0.000000 -0.000001  0.000002  0.000000 -0.000111
                                -0.001824 -0.001679  0.003326  0.004478  0.025608  0.001447  0.052164 -0.050007  0.020375  0.000631
                                 0.002387  0.000026 -0.010399 -0.008930 -0.001946 -0.007390 -0.025374  0.018851  0.002012 -0.000364
                                -0.000000  0.000000 -0.000000  0.000001 -0.000015 -0.000084 -0.000269  0.000333 -0.000589 -0.001042
                                 0.000037  0.000049  0.000192 -0.000374 -0.001475 -0.000984  0.000646 -0.000286  0.000136 -0.000038
                                 0.000012 -0.000003  0.000144  0.000009 -0.001154 -0.000075  0.016573  0.000987  0.267192  0.015910
                                 0.385978  0.020862  0.372138  0.017227  0.203767  0.005913  0.065214  0.003606  0.031125  0.002664
                                -0.022166 -0.002452  0.048363  0.000136 -0.020747 -0.000540  0.012777  0.000228 -0.004534 -0.000070
                                 0.000020 -0.000117  0.000098  0.000173  0.000262 -0.001016  0.000316  0.001455 -0.000104 -0.003842
                                -0.000085  0.004557 -0.000055  0.002385 -0.000093 -0.008275  0.000020  0.002014  0.000248  0.000479
                                 0.000176  0.000256  0.000831 -0.000056  0.000039  0.000590  0.000169 -0.000508 -0.010519  0.007703
                                -0.000546  0.007001 -0.000709 -0.015275  0.011225  0.000463  0.000747 -0.005213 -0.008895

   4.3   0    -0.2233   -7.5814  0.000000 -0.000000  0.000000 -0.000000  0.000000 -0.000000  0.000000 -0.000001  0.000003 -0.000028
                                -0.000264 -0.000411 -0.000318 -0.003375  0.002791  0.010322 -0.003504 -0.012133 -0.014584  0.000102
                                 0.000393  0.001160 -0.001414  0.004610  0.007212 -0.000229 -0.004788 -0.000648  0.000050 -0.000009
                                -0.000001  0.000005 -0.000023  0.000124 -0.002229 -0.019962  0.058785 -0.054510 -0.001152  0.315920
                                 0.005269  0.038347 -0.066506  0.024673  0.215007  0.249522  0.188672  0.109648  0.041753  0.004211
                                -0.000372  0.000073  0.000000 -0.000003 -0.000003  0.000024  0.000046 -0.000341  0.000683 -0.005271
                                 0.000848 -0.006977  0.000821 -0.006176  0.000418 -0.001084  0.000261 -0.001542  0.000339 -0.001563
                                -0.000210 -0.003884  0.002028  0.001402  0.000337 -0.011651  0.001001  0.005136 -0.000134 -0.001269
                                -0.000028 -0.000024  0.000110  0.000004 -0.000310 -0.000212  0.000047 -0.000655 -0.000881 -0.000690
                                 0.003909  0.001236  0.002159  0.000292  0.001030  0.000669  0.001049  0.000012 -0.000000  0.000018
                                 0.000009  0.000031  0.000022  0.000006 -0.000355  0.000278  0.000116  0.009643  0.038412  0.062780
                                -0.003700 -0.006099 -0.007585 -0.031909 -0.055762  0.000420 -0.003604  0.003804 -0.007428

   5.3   0    -0.1628   -4.6987 -0.000000  0.000000 -0.000000  0.000001 -0.000001  0.000001 -0.000003  0.000008 -0.000035  0.000346
                                 0.004026  0.005677 -0.017358  0.031551 -0.065699 -0.161730 -0.028717  0.322764  0.483161 -0.001445
                                -0.005898 -0.004553  0.058163 -0.064896 -0.142393 -0.004083  0.127264  0.137720  0.005273 -0.000980
                                -0.000000  0.000000 -0.000001  0.000006 -0.000110 -0.000958  0.002770 -0.002580  0.000198  0.017785
                                 0.000259  0.001815 -0.003120  0.000911  0.010215  0.011618  0.007322  0.001515 -0.002244 -0.001230
                                 0.000157 -0.000052  0.000001 -0.000001 -0.000008  0.000007  0.000123 -0.000099  0.001997 -0.001579
                                 0.002903 -0.002307  0.002663 -0.002155 -0.002353 -0.001069  0.000448 -0.000377  0.000204 -0.000229
                                 0.007005  0.000018  0.001189  0.000593 -0.009931 -0.000580 -0.002469  0.000169 -0.000480 -0.000056
                                 0.000002 -0.000001 -0.000000  0.000036  0.000017 -0.000050  0.000048  0.000132  0.000176  0.000570
                                -0.000220 -0.003064  0.000374  0.003174  0.001066  0.006559  0.000159  0.003119 -0.000010  0.000001
                                -0.000003 -0.000166  0.000140 -0.000145 -0.000182  0.000249 -0.000328  0.002879  0.017527  0.031893
                                -0.000316 -0.002575  0.003403  0.022136  0.045134  0.000020  0.000019  0.001927  0.001710

                                   1 3d1-    1 3d1-    1 3d1-    1 3d1-    1 3d1-    1 3d1-    1 3d1-    1 3d1-    1 3d1-    1 3d1-
                                   1 3d1-    1 3d1-    1 3d1-    1 3d1-    1 3d1-    1 3d1-    1 3d1-    1 3d1-    1 3d1-    1 3d1-
                                   1 3d1-    1 3d1-    1 4f2-    1 4f2-    1 4f2-    1 4f2-    1 4f2-    1 4f2-    1 4f2-    1 4f2-
                                   1 4f2-    1 4f2-    1 4f2-    1 4f2-    1 4f2-    1 4f2-    1 5g1-    1 5g3-    1 5g1-    1 5g3-
                                   1 5g1-    1 5g3-    1 5g1-    1 5g3-    1 5g1-    1 5g3-    1 5g1-    1 5g3-    1 5g1-    1 5g3-
                                   1 5g1-    1 5g3-    1 5g1-    1 5g3-    1 6h4-    1 6h2-    1 6h4-    1 6h2-    1 6h4-    1 6h2-
                                   2 3d1-    2 3d1-    3 2pz     3 2pz     3 2pz     3 3d1-    3 3d1+    3 3d1-    3 3d1+

   1.4   +    -0.7347  -15.3968  0.000000 -0.000001  0.000003 -0.000018  0.000382  0.003672 -0.007101  0.002719  0.007043 -0.001232
                                -0.000952 -0.006802  0.009914 -0.005643 -0.002623  0.030293 -0.029482  0.016571 -0.009100  0.003314
                                -0.001438  0.000417  0.000142 -0.001139  0.016492  0.267252  0.386241  0.373566  0.203109  0.065528
                                 0.031403 -0.021122  0.044424 -0.025220  0.014171 -0.004964  0.000068  0.000014 -0.000179  0.000129
                                 0.000544  0.000306 -0.001258  0.000385  0.002813  0.000076 -0.003423 -0.000077 -0.001017 -0.000066
                                 0.004013 -0.000015 -0.001423  0.000004  0.000420 -0.000781  0.000391 -0.001143  0.000044 -0.000687
                                 0.000483  0.001901  0.000917  0.017028  0.001821 -0.000503 -0.000750  0.010916  0.004731

   2.4   0    -0.2227   -7.5652 -0.000001  0.000005 -0.000022  0.000118 -0.002142 -0.019457  0.058175 -0.054350 -0.001155  0.313991
                                 0.005087  0.037544 -0.065581  0.024179  0.213974  0.250324  0.185379  0.108884  0.042865  0.004122
                                -0.000310  0.000054  0.000002 -0.000015  0.000214  0.003319  0.004343  0.003828  0.000543  0.000998
                                 0.001036  0.001702 -0.007577  0.009586 -0.007041  0.001522 -0.000094  0.000008  0.000012  0.000006
                                -0.000789  0.000138 -0.000777  0.000331 -0.001543  0.000605  0.003259 -0.000769  0.001562 -0.000469
                                 0.001313 -0.000415  0.000936 -0.000000  0.000001 -0.000007  0.000030 -0.000016  0.000269  0.000076
                                 0.001573  0.005208 -0.012854 -0.051582 -0.090533 -0.003657 -0.003237 -0.004576 -0.006547

   3.4   0    -0.0589   -2.4889 -0.000000  0.000001 -0.000006  0.000033 -0.000590 -0.005340  0.016710 -0.016871  0.001939  0.107057
                                 0.001398  0.010302 -0.018350  0.006575  0.068247  0.095117  0.083830 -0.015828 -0.239095 -0.478423
                                -0.342510 -0.039711 -0.000000  0.000000 -0.000001  0.000072  0.000292  0.000209 -0.000358 -0.000097
                                -0.000253  0.001567 -0.010837  0.004056  0.024081  0.033342 -0.000028  0.000002  0.000002  0.000006
                                -0.000235  0.000031 -0.000239  0.000144 -0.000316  0.000113  0.000588 -0.000037 -0.002380  0.000002
                                -0.001541  0.000465  0.002445 -0.000115 -0.000000  0.000001  0.000003 -0.000004  0.000097  0.000024
                                 0.000428 -0.000449 -0.002639 -0.006297  0.061361 -0.001522 -0.001181 -0.000149 -0.000225

 HOMO      5.1    -0.717214 =     -19.5164eV
 LUMO      4.2    -0.410527 =     -11.1710eV
 LUMO-HOMO         0.306686 =       8.3454eV


 **********************************************************************************************************************************
 DATASETS  * FILE   NREC   LENGTH (MB)   RECORD NAMES
              1      20       23.20       500      610      700      900      950      970     1000      129      960     1100
                                          VAR    BASINP    GEOM    SYMINP    ZMAT    AOBASIS   BASIS     P2S    ABASIS      S
                                         1400     1410     1420     1200     1210     1080     1600     1650     1700     1800
                                           T        V       ECP      H0       H01     AOSYM     SMH    MOLCAS    OPER     GRID

              2       5        5.00       700     1000      520     1800     2202
                                         GEOM     BASIS   MCVARS    GRID      RKS

 PROGRAMS   *        TOTAL       RKS       INT
 CPU TIMES  *       271.52     66.80    204.38
 REAL TIME  *       306.55 SEC
 DISK USED  *        28.44 GB
 SF USED    *         0.31 MB
 GA USED    *         0.27 MB       (max)       0.27 MB       (current)
 **********************************************************************************************************************************
   -->
   <time start="15:35:22" end="15:40:28" cpu="271.52" system="31.65" real="306.55"/>
   <storage units="megabyte" memory="8001.84" sf="0.31" df="703.32" eaf="27737.61"
     ga="0.27"/>
  </jobstep><!--
  --><jobstep command="RHF-SCF" commandset="SCFPRO">
   <!--


 PROGRAM * RHF-SCF (OPEN SHELL)       Authors: W. Meyer, H.-J. Werner


 NUMBER OF ELECTRONS:      12+    8-    SPACE SYMMETRY=1    SPIN SYMMETRY: Quintet
 CONVERGENCE THRESHOLDS:    1.00E-05 (Density)    1.00E-07 (Energy)
 MAX. NUMBER OF ITERATIONS:      200
 INTERPOLATION TYPE:            DIIS
 INTERPOLATION STEPS:              2 (START)      1 (STEP)
 LEVEL SHIFTS:                 -0.60 (CLOSED) -0.30 (OPEN)

 Number of closed-shell orbitals:    8 (   4   2   2   0 )
 Number of open-shell orbitals:      4 (   1   1   1   1 )


 Molecular orbitals read from record     2202.2  Type=RKS/CANONICAL (state 1.1)

 Molecular orbital dump at record        3202.2

 ITERATION    DDIFF          GRAD             ENERGY        2-EL.EN.            DIPOLE MOMENTS         DIIS   ORB.
    1      0.000D+00      0.000D+00      -109.19495076    215.430804   -0.30580    0.00000    0.00000    0    start
    2      0.000D+00      0.780D-02      -109.27419127    207.630662   -0.18966    0.00000    0.00000    1    diag,B
    3      0.923D-02      0.625D-02      -109.31208609    209.925039   -0.20153    0.00000    0.00000    2    diag,B
    4      0.899D-02      0.244D-02      -109.34568504    208.885004   -0.15867    0.00000    0.00000    3    diag,B
    5      0.970D-02      0.151D-02      -109.36827478    207.956353   -0.10122    0.00000    0.00000    4    diag,B
    6      0.124D-01      0.690D-03      -109.37483894    207.294119   -0.06966    0.00000    0.00000    5    diag,B
    7      0.586D-02      0.514D-03      -109.37833631    207.234988   -0.05183    0.00000    0.00000    6    diag,B
    8      0.272D-02      0.429D-03      -109.38267232    207.169972   -0.03862    0.00000    0.00000    7    orth
    9      0.218D-02      0.384D-03      -109.38756318    207.158582   -0.02911    0.00000    0.00000    8    diag,B
   10      0.199D-02      0.357D-03      -109.39144998    207.168866   -0.02884    0.00000    0.00000    9    diag,B
   11      0.999D-03      0.342D-03      -109.39748951    207.079265   -0.03206    0.00000    0.00000    9    diag,B
   12      0.103D-02      0.317D-03      -109.40568247    207.105033   -0.04448    0.00000    0.00000    9    diag,B
   13      0.247D-02      0.356D-03      -109.40466129    207.081723   -0.04254    0.00000    0.00000    9    diag,B
   14      0.621D-03      0.241D-03      -109.40795901    207.032486   -0.05522    0.00000    0.00000    9    diag,B
   15      0.176D-02      0.205D-03      -109.40804157    207.064012   -0.05577    0.00000    0.00000    9    diag,B
   16      0.347D-03      0.129D-03      -109.40845065    207.051336   -0.05812    0.00000    0.00000    9    diag,B
   17      0.650D-03      0.166D-03      -109.40883694    207.055540   -0.06015    0.00000    0.00000    9    diag,B
   18      0.619D-03      0.193D-03      -109.40939649    207.033408   -0.06205    0.00000    0.00000    9    orth
   19      0.986D-03      0.118D-03      -109.40983976    207.017724   -0.06378    0.00000    0.00000    9    diag,B
   20      0.114D-02      0.113D-03      -109.41002628    207.007066   -0.06475    0.00000    0.00000    9    diag,B
   21      0.538D-03      0.744D-04      -109.41029720    207.000108   -0.06777    0.00000    0.00000    9    diag,B
   22      0.903D-03      0.586D-04      -109.41059997    206.987680   -0.07375    0.00000    0.00000    9    diag,B
   23      0.128D-02      0.506D-04      -109.41069865    206.990573   -0.07616    0.00000    0.00000    9    diag,B
   24      0.496D-03      0.421D-04      -109.41083568    206.983254   -0.08072    0.00000    0.00000    9    diag,B
   25      0.856D-03      0.362D-04      -109.41095271    206.978314   -0.08561    0.00000    0.00000    9    diag,B
   26      0.934D-03      0.263D-04      -109.41104020    206.963047   -0.09107    0.00000    0.00000    9    diag,B
   27      0.116D-02      0.178D-04      -109.41105679    206.961703   -0.09243    0.00000    0.00000    9    diag,B
   28      0.446D-03      0.875D-05      -109.41106166    206.957975   -0.09293    0.00000    0.00000    9    orth
   29      0.281D-03      0.540D-05      -109.41106252    206.957918   -0.09288    0.00000    0.00000    9    diag,B
   30      0.910D-04      0.398D-05      -109.41106301    206.956786   -0.09272    0.00000    0.00000    9    diag,B
   31      0.463D-04      0.299D-05      -109.41106340    206.956015   -0.09253    0.00000    0.00000    9    diag,B
   32      0.336D-04      0.222D-05      -109.41106376    206.954831   -0.09248    0.00000    0.00000    9    diag,B
   33      0.578D-04      0.166D-05      -109.41106392    206.954268   -0.09245    0.00000    0.00000    9    diag,B
   34      0.475D-04      0.104D-05      -109.41106396    206.953975   -0.09247    0.00000    0.00000    9    diag,B
   35      0.280D-04      0.700D-06      -109.41106397    206.953822   -0.09249    0.00000    0.00000    9    diag,B
   36      0.191D-04      0.431D-06      -109.41106398    206.953924   -0.09247    0.00000    0.00000    9    diag,B
   37      0.251D-05      0.234D-06      -109.41106398    206.953928   -0.09247    0.00000    0.00000    0    orth

 Final alpha occupancy:   5   3   3   1
 Final beta  occupancy:   4   2   2   0

 !RHF STATE 1.1 Energy               -109.411063976487
   --><property name="Energy" method="RHF" principal="true" stateSymmetry="1" stateNumber="1"
     value="-109.411063976487"/><!--
 Nuclear energy                        19.66142080
 One-electron energy                 -232.54944891
 Two-electron energy                  103.47696413
 Virial quotient                       -0.82267817
 !RHF STATE 1.1 Dipole moment          -0.09247291     0.00000000     0.00000000
 Dipole moment /Debye                  -0.23502730     0.00000000     0.00000000
   --><property name="Dipole moment" method="RHF" principal="true" stateSymmetry="1"
     stateNumber="1" value="-0.924729102979143E-01 0.0 0.0"/><!--

 ELECTRON ORBITALS
 =================


   Orb  Occ    Energy  Couls-En    Coefficients

                                   1 1s      1 1s      1 1s      1 1s      1 1s      1 1s      1 1s      1 1s      1 1s      1 1s
                                   1 1s      1 1s      1 1s      1 1s      1 1s      1 1s      1 1s      1 1s      1 1s      1 1s
                                   1 1s      1 1s      1 1s      1 1s      1 1s      1 1s      1 1s      1 1s      1 1s      1 1s
                                   1 1s      1 1s      1 2px     1 2px     1 2px     1 2px     1 2px     1 2px     1 2px     1 2px
                                   1 2px     1 2px     1 2px     1 2px     1 2px     1 2px     1 2px     1 2px     1 2px     1 2px
                                   1 2px     1 2px     1 2px     1 2px     1 2px     1 2px     1 2px     1 2px     1 2px     1 2px
                                   1 2px     1 2px     1 3d0     1 3d2+    1 3d0     1 3d2+    1 3d0     1 3d2+    1 3d0     1 3d2+
                                   1 3d0     1 3d2+    1 3d0     1 3d2+    1 3d0     1 3d2+    1 3d0     1 3d2+    1 3d0     1 3d2+
                                   1 3d0     1 3d2+    1 3d0     1 3d2+    1 3d0     1 3d2+    1 3d0     1 3d2+    1 3d0     1 3d2+
                                   1 3d0     1 3d2+    1 3d0     1 3d2+    1 3d0     1 3d2+    1 3d0     1 3d2+    1 3d0     1 3d2+
                                   1 3d0     1 3d2+    1 3d0     1 3d2+    1 3d0     1 3d2+    1 4f1+    1 4f3+    1 4f1+    1 4f3+
                                   1 4f1+    1 4f3+    1 4f1+    1 4f3+    1 4f1+    1 4f3+    1 4f1+    1 4f3+    1 4f1+    1 4f3+
                                   1 4f1+    1 4f3+    1 4f1+    1 4f3+    1 4f1+    1 4f3+    1 4f1+    1 4f3+    1 4f1+    1 4f3+
                                   1 4f1+    1 4f3+    1 4f1+    1 4f3+    1 5g0     1 5g4+    1 5g2+    1 5g0     1 5g4+    1 5g2+
                                   1 5g0     1 5g4+    1 5g2+    1 5g0     1 5g4+    1 5g2+    1 5g0     1 5g4+    1 5g2+    1 5g0
                                   1 5g4+    1 5g2+    1 5g0     1 5g4+    1 5g2+    1 5g0     1 5g4+    1 5g2+    1 5g0     1 5g4+
                                   1 5g2+    1 6h1+    1 6h3+    1 6h5+    1 6h1+    1 6h3+    1 6h5+    1 6h1+    1 6h3+    1 6h5+
                                   2 1s      2 1s      2 1s      2 1s      2 1s      2 1s      2 2px     2 2px     2 2px     2 3d0
                                   2 3d2+    2 3d0     2 3d2+    3 1s      3 1s      3 1s      3 1s      3 1s      3 1s      3 2px
                                   3 2py     3 2px     3 2py     3 2px     3 2py     3 3d0     3 3d2+    3 3d2-    3 3d0     3 3d2+
                                   3 3d2-

   1.1   2    -2.5708  -15.8754 -0.000000  0.000001 -0.000005  0.000086  0.000379  0.001175  0.002475  0.005462 -0.002120  0.006913
                                -0.130277  0.508226 -0.123983  0.164655  0.954852  0.421318  0.463473  0.336575  0.111349 -0.000151
                                -0.000681 -0.002006 -0.005657  0.207136 -1.054729 -0.093097 -0.261464 -0.605308 -0.192865 -0.005737
                                 0.002031 -0.000440  0.000000 -0.000000  0.000000 -0.000000  0.000000 -0.000000  0.000000 -0.000000
                                 0.000000 -0.000003 -0.000038 -0.000058  0.001733 -0.000178  0.005589  0.002595  0.001248 -0.000566
                                 0.000072  0.000013  0.000059 -0.000669 -0.003249  0.001667  0.000678 -0.000036 -0.000453 -0.000024
                                 0.000013 -0.000003 -0.000000  0.000000  0.000000 -0.000000 -0.000001  0.000000  0.000008 -0.000001
                                -0.000150  0.000027 -0.001473  0.000227  0.003871 -0.000377 -0.000969  0.000355  0.000883  0.000725
                                 0.010238  0.000309  0.000364 -0.000063  0.002913 -0.000416 -0.004870  0.000565 -0.001314 -0.000860
                                 0.002687 -0.001277  0.006134  0.000847  0.003457 -0.000580 -0.000171  0.000108  0.000493 -0.000169
                                 0.000653 -0.000005 -0.000184 -0.000007  0.000047  0.000003 -0.000000 -0.000002  0.000002  0.000012
                                -0.000032 -0.000172 -0.000477 -0.002630 -0.000682 -0.003922 -0.000477 -0.003608  0.000023 -0.003376
                                -0.000122 -0.000602 -0.000082 -0.000186 -0.000301 -0.007726 -0.000041 -0.004006  0.000079  0.001065
                                -0.000011 -0.000514  0.000010 -0.000025 -0.000047  0.000031 -0.000019 -0.000078  0.000098 -0.000058
                                -0.000052 -0.000159  0.000070  0.000177 -0.000192  0.000083  0.000597 -0.000050  0.000010 -0.000460
                                 0.000255 -0.000134 -0.000559  0.000087 -0.000031  0.000118 -0.000030  0.000022  0.000024 -0.000002
                                 0.000007 -0.000010 -0.000027 -0.000006 -0.000044 -0.000054 -0.000034 -0.000121 -0.000556 -0.000088
                                 0.000262  0.002448  0.009149  0.020758  0.016959  0.007055 -0.003054 -0.006771 -0.004798 -0.000605
                                 0.001044 -0.000135  0.000526  0.000367  0.003432  0.012899  0.032228  0.023227  0.008572  0.002171
                                 0.003740  0.005241  0.009331  0.003475  0.006210 -0.000837 -0.000753  0.001276 -0.000258 -0.000471
                                 0.000749

   2.1   2    -1.5787  -13.0319  0.000000 -0.000000  0.000000 -0.000001 -0.000003 -0.000009 -0.000020 -0.000044  0.000017 -0.000056
                                 0.001064 -0.003427  0.000603 -0.002421 -0.004601 -0.006507 -0.009691 -0.001434  0.003828  0.000001
                                 0.000005  0.000016  0.000045 -0.001731  0.007824  0.001235  0.005966  0.001913  0.001539  0.000016
                                -0.000008  0.000002  0.000000 -0.000000  0.000001 -0.000002  0.000002 -0.000003  0.000007 -0.000019
                                 0.000080 -0.000751 -0.008663 -0.012377  0.100648 -0.078122  0.172429  0.294747  0.014577  0.014138
                                -0.004311  0.003103  0.012814 -0.020170 -0.216668  0.194247  0.396595  0.003008  0.008400 -0.007535
                                -0.000828  0.000150 -0.000000 -0.000000  0.000000  0.000000 -0.000000 -0.000001  0.000001  0.000003
                                -0.000014 -0.000063 -0.000129 -0.000583  0.000171  0.001616  0.000107 -0.000762 -0.000551 -0.002585
                                -0.000414 -0.006877  0.000033  0.000151  0.000237  0.001145 -0.000299 -0.001967  0.000309 -0.000043
                                -0.000576  0.006261 -0.000854 -0.016820  0.001035  0.008013 -0.000004 -0.000925 -0.000203  0.001116
                                -0.000157 -0.000575  0.000040  0.000236 -0.000010 -0.000067  0.000002  0.000000 -0.000016 -0.000000
                                 0.000215 -0.000002  0.003073 -0.000074  0.003898 -0.000193  0.002437 -0.000787  0.000125 -0.001077
                                 0.000992  0.000092  0.001166  0.000238  0.005369  0.000609  0.001443 -0.000071 -0.002737 -0.000195
                                 0.000869  0.000153 -0.000251  0.000006 -0.000017 -0.000008 -0.000031 -0.000022 -0.000037 -0.000112
                                -0.000154 -0.000014 -0.000142 -0.000256  0.001113 -0.001155 -0.000324  0.001166 -0.001635 -0.000106
                                -0.001492  0.000063  0.000005 -0.002839  0.001132 -0.000051  0.001491 -0.000864  0.000021  0.000018
                                 0.000007 -0.000018 -0.000049 -0.000028 -0.000014 -0.000058 -0.000325  0.000267  0.000095 -0.000024
                                 0.001088  0.011068  0.041556  0.088163  0.016771 -0.000658 -0.008186 -0.019991 -0.008150 -0.001313
                                 0.002336 -0.000367  0.001430 -0.000784 -0.007966 -0.030062 -0.064748 -0.006604 -0.003340 -0.001383
                                -0.006042 -0.005169 -0.014102 -0.003743 -0.003343  0.000947  0.001631 -0.000999  0.000227  0.000152
                                -0.001066

   3.1   2    -0.7082   -8.8392 -0.000000  0.000000 -0.000001  0.000027  0.000116  0.000362  0.000764  0.001693 -0.000663  0.002241
                                -0.044307  0.146418 -0.032192  0.074213  0.523392  0.074977 -0.551659  0.273992  0.416532 -0.000046
                                -0.000209 -0.000618 -0.001750  0.072826 -0.339545 -0.131516  0.247044 -0.446572 -0.202490 -0.008941
                                 0.003161 -0.000688 -0.000000  0.000000 -0.000000  0.000000 -0.000000  0.000000 -0.000000  0.000000
                                -0.000000  0.000004  0.000044  0.000055 -0.001484 -0.000101 -0.001974  0.001815 -0.023368  0.164058
                                -0.007862 -0.000016 -0.000061  0.000527  0.003146 -0.001748 -0.005405  0.004130 -0.021622 -0.020993
                                -0.000858  0.000137 -0.000001 -0.000000  0.000004  0.000000 -0.000019 -0.000001  0.000099  0.000004
                                -0.001834 -0.000083 -0.016815 -0.000757  0.044312  0.002088 -0.035127 -0.001844 -0.013064 -0.000078
                                 0.151140  0.008981  0.004381  0.000198  0.032274  0.001453 -0.053253 -0.002445  0.025707  0.001171
[...]
                                -0.208157 -0.039276 -0.254513 -0.393812 -0.066187 -0.166245  0.007171  0.024020 -0.000507 -0.000004
                                 0.001145 -0.005667 -0.000021  0.013485 -0.161723 -0.000849  0.381653 -0.019890 -0.374635  0.073349
                                -0.029119  0.069595 -0.002704 -0.039077 -0.445911 -0.375025-13.406975  2.925413 -0.003922  0.013462
                                 0.463910  0.570769 -1.921628 -1.170215  0.056764 -0.047261 -0.056688  0.120445 -0.196789 -0.012147

   4.2   0   -14.2023  -29.5686  0.000000 -0.000000  0.000000 -0.000000  0.000000 -0.000000  0.000000 -0.000000  0.000000 -0.000002
                                -0.000019 -0.000026 -0.000250 -0.000386 -0.000898  0.000005 -0.000174  0.002047  0.000443  0.000007
                                 0.000027  0.000167  0.000470  0.000237  0.000584 -0.001953 -0.001047  0.002367  0.001724 -0.000393
                                 0.000000 -0.000000  0.000000 -0.000001  0.000013  0.000120 -0.000252  0.000076  0.000287 -0.000009
                                -0.000031 -0.000232  0.000356 -0.000140 -0.000039  0.000170 -0.000704 -0.000015 -0.000025 -0.000099
                                 0.000083 -0.000056  0.000004  0.000228 -0.000033 -0.001830  0.000452  0.025019  0.006278  0.347244
                                 0.007119  0.393384  0.003271  0.181417 -0.000051 -0.001678  0.002139  0.118732  0.002357  0.131558
                                 0.000105  0.005473 -0.000140 -0.001907 -0.000027  0.001970 -0.000001 -0.000703 -0.000003  0.000213
                                 0.000000  0.000003 -0.000004  0.000002  0.000000  0.000020 -0.000020 -0.000022  0.000026  0.000043
                                -0.000017 -0.000034  0.000009  0.000012  0.000020  0.000037 -0.000003 -0.000008 -0.000000 -0.000014
                                 0.000003 -0.000010 -0.000325  0.000006 -0.000008 -0.000373 -0.000002  0.000227 -0.001055 -0.001533
                                -0.000464  0.001112  0.000001 -0.000005  0.000012  0.000018  0.002705  0.001030 -0.000134  0.000292
                                 0.000819 -0.001288  0.001539 -0.001572  0.000353 -0.000015  0.000560 -0.000778 -0.000011 -0.001391

   5.2   0   -14.1891  -29.5395 -0.000000  0.000000 -0.000000  0.000000 -0.000000  0.000000 -0.000001  0.000003 -0.000011  0.000101
                                 0.001102  0.001517  0.012404  0.020441  0.047490 -0.002288  0.015569 -0.141652  0.002851 -0.000409
                                -0.001577 -0.008898 -0.021749 -0.016791 -0.033303  0.012618  0.021020 -0.005768 -0.012649  0.002877
                                -0.000000  0.000002 -0.000007  0.000039 -0.000720 -0.006568  0.013563 -0.004856 -0.013830  0.002942
                                 0.001721  0.012553 -0.018915  0.010505  0.006081 -0.009035  0.047595  0.004685 -0.006493 -0.001060
                                -0.000562  0.000716 -0.000229  0.000004  0.001833 -0.000033 -0.025059  0.000452 -0.347837  0.006272
                                -0.394225  0.007102 -0.180498  0.003265  0.003566 -0.000040 -0.118691  0.002147 -0.130974  0.002382
                                -0.006111  0.000101  0.009008 -0.000034  0.002134  0.000041 -0.001239 -0.000011 -0.000064  0.000006
                                -0.000022 -0.000043  0.000126  0.000215 -0.000168 -0.000403  0.001027  0.001605 -0.001510 -0.002531
                                 0.001030  0.002070 -0.000547 -0.000759 -0.001380 -0.002103  0.000451  0.000726  0.000023 -0.000001
                                 0.000016  0.000560 -0.000008 -0.000067  0.000409 -0.000008  0.000224  0.000070 -0.000744 -0.000354
                                -0.000180  0.000683 -0.000036  0.000343 -0.000355  0.000145 -0.180173  0.040420 -0.001268 -0.000779
                                -0.002880 -0.001103 -0.032658 -0.018633 -0.001223  0.000805  0.000580 -0.000809  0.000634  0.000974

                                   1 2pz     1 2pz     1 2pz     1 2pz     1 2pz     1 2pz     1 2pz     1 2pz     1 2pz     1 2pz
                                   1 2pz     1 2pz     1 2pz     1 2pz     1 2pz     1 2pz     1 2pz     1 2pz     1 2pz     1 2pz
                                   1 2pz     1 2pz     1 2pz     1 2pz     1 2pz     1 2pz     1 2pz     1 2pz     1 2pz     1 2pz
                                   1 3d1+    1 3d1+    1 3d1+    1 3d1+    1 3d1+    1 3d1+    1 3d1+    1 3d1+    1 3d1+    1 3d1+
                                   1 3d1+    1 3d1+    1 3d1+    1 3d1+    1 3d1+    1 3d1+    1 3d1+    1 3d1+    1 3d1+    1 3d1+
                                   1 3d1+    1 3d1+    1 4f0     1 4f2+    1 4f0     1 4f2+    1 4f0     1 4f2+    1 4f0     1 4f2+
                                   1 4f0     1 4f2+    1 4f0     1 4f2+    1 4f0     1 4f2+    1 4f0     1 4f2+    1 4f0     1 4f2+
                                   1 4f0     1 4f2+    1 4f0     1 4f2+    1 4f0     1 4f2+    1 4f0     1 4f2+    1 4f0     1 4f2+
                                   1 5g1+    1 5g3+    1 5g1+    1 5g3+    1 5g1+    1 5g3+    1 5g1+    1 5g3+    1 5g1+    1 5g3+
                                   1 5g1+    1 5g3+    1 5g1+    1 5g3+    1 5g1+    1 5g3+    1 5g1+    1 5g3+    1 6h2+    1 6h4+
                                   1 6h0     1 6h2+    1 6h4+    1 6h0     1 6h2+    1 6h4+    1 6h0     2 2pz     2 2pz     2 2pz
                                   2 3d1+    2 3d1+    3 2pz     3 2pz     3 2pz     3 3d1+    3 3d1-    3 3d1+    3 3d1-

   1.3   2    -0.8662   -4.6966 -0.000000  0.000001 -0.000002  0.000007 -0.000009  0.000012 -0.000026  0.000075 -0.000304  0.002749
                                 0.028223  0.030576  0.268593  1.481993 -0.804147  3.461196  0.016310 -0.595501  0.344310 -0.010861
                                -0.038096 -0.119940 -1.584835  2.017872 -3.759927 -0.807496 -0.915780  0.857529  0.460204 -0.526872
                                -0.000002  0.000008 -0.000036  0.000194 -0.003678 -0.035375  0.084535 -0.021118 -0.140697 -0.062017
                                 0.008900  0.070237 -0.114127  0.016161  0.195241 -0.085977  0.056328 -0.027315  0.023545 -0.016370
                                 0.026040 -0.032578  0.000015 -0.000000 -0.000116  0.000002  0.001492 -0.000020  0.015563 -0.000016
                                 0.000205  0.000754 -0.095865  0.001793  0.144413  0.000021  0.009491 -0.000360  0.020040 -0.000922
                                -0.189085 -0.006614 -0.036646  0.003982 -0.042457  0.000988  0.000002  0.000732 -0.006379  0.000086
                                 0.000221  0.000734  0.000326  0.000180  0.003043  0.009753  0.010943  0.024984 -0.008382 -0.030224
                                -0.008375  0.067793  0.001624  0.000403 -0.001054  0.012290  0.000172  0.005848 -0.000031  0.000039
                                -0.000663  0.000007 -0.000014 -0.000118 -0.003553  0.004158 -0.076896 -0.003649 -0.103772 -0.099134
                                 0.016360  0.038100 -0.005734 -0.154912 -0.134793 -0.013892 -0.023895 -0.028398 -0.047375

   2.3   2    -0.1941   -1.2053 -0.000000  0.000000 -0.000000  0.000000 -0.000000  0.000000 -0.000000  0.000000 -0.000000  0.000004
                                 0.000038  0.000032  0.000410  0.004271 -0.003323  0.020573 -0.015169  0.011399 -0.054135 -0.000015
                                -0.000049 -0.000057 -0.004397  0.006500 -0.014005  0.195114  0.146756 -0.210748 -0.165787  0.114379
                                 0.000003 -0.000015  0.000062 -0.000334  0.006369  0.061862 -0.152624  0.039399  0.261264  0.296499
                                -0.015447 -0.123673  0.204033 -0.015946 -0.443561 -0.046680 -0.044982 -0.312431  0.411073 -0.647041
                                 1.063752 -1.564709  0.000000  0.000000 -0.000001 -0.000001  0.000012 -0.000003  0.000136 -0.000353
                                 0.000061 -0.001361 -0.000699  0.000027  0.001308  0.000208  0.000058  0.000460  0.000088  0.001356
                                -0.000968 -0.006659  0.000582 -0.020318  0.000702 -0.017498 -0.000065  0.004079 -0.000665  0.000643
                                -0.000140  0.000004  0.000044  0.000002 -0.001928  0.000058 -0.003137  0.000120  0.004347 -0.000143
                                 0.002752 -0.000259  0.010293 -0.000040  0.007947 -0.000379  0.000863  0.000010  0.000035 -0.000031
                                -0.000001  0.000175 -0.000138 -0.000004  0.007177 -0.006098 -0.000201  0.003259  0.013515  0.076200
                                -0.001180 -0.012801 -0.002224 -0.008897 -0.050108  0.000381 -0.001150 -0.004002 -0.007699

   3.3   +    -0.7945   -3.0261  0.000000 -0.000001  0.000004 -0.000012  0.000016 -0.000021  0.000046 -0.000132  0.000543 -0.005074
                                -0.057804 -0.089057 -0.629079  0.154315 -5.800242  5.410848 -6.251279  3.359253 -0.208295  0.020819
                                 0.085814  0.545293 -0.178851  3.340198  0.754129 -2.641243 -0.947120  2.382842  2.461965 -1.693583
                                -0.000000  0.000001 -0.000003  0.000018 -0.000349 -0.003451  0.009157 -0.002076 -0.014552 -0.044837
                                 0.000850  0.007013 -0.012006 -0.003306  0.038161  0.042775 -0.008093 -0.014156  0.010782 -0.019735
                                 0.029133 -0.044637  0.000011  0.000000 -0.000088 -0.000002  0.001352  0.000034  0.021166  0.000456
                                 0.033082  0.000457 -0.085526 -0.002430  0.233362  0.006141 -0.002847  0.000050 -0.021885 -0.000135
                                -0.325066 -0.007750  0.200447  0.006907 -0.068765 -0.002878  0.030251  0.000581 -0.007017 -0.000371
                                 0.000025  0.000284  0.000013 -0.000548  0.000357  0.004016  0.000740 -0.001630 -0.001449  0.006349
                                -0.000557 -0.030233  0.001441  0.029481  0.001021  0.032065 -0.000174 -0.002528 -0.000000 -0.000000
                                -0.000019 -0.000024  0.000022 -0.000252 -0.000368  0.000322 -0.006187  0.009203 -0.021047 -0.059455
                                -0.010093  0.021766  0.014537 -0.028424 -0.087882  0.007799  0.013344 -0.013473 -0.022762

   4.3   0   -14.1919  -29.5478  0.000000 -0.000000  0.000000 -0.000000  0.000000 -0.000000  0.000000 -0.000000  0.000000 -0.000001
                                -0.000011 -0.000014 -0.000015 -0.000103 -0.000136  0.000034 -0.000180 -0.000037 -0.000330  0.000004
                                 0.000015  0.000041 -0.000038  0.000254  0.000249  0.000243  0.000240 -0.000532 -0.000482 -0.000094
                                -0.000000  0.000000 -0.000001  0.000008 -0.000143 -0.001301  0.002709 -0.000802 -0.002287  0.000055
                                 0.000341  0.002496 -0.003785  0.001370  0.000705 -0.002651  0.001754 -0.001704  0.000816 -0.000259
                                 0.000106 -0.000019  0.000007 -0.000229 -0.000057  0.001834  0.000783 -0.025060  0.010857 -0.347332
                                 0.012255 -0.392195  0.005586 -0.179463 -0.000049  0.001231  0.003734 -0.119401  0.004157 -0.133025
                                 0.000131 -0.004031 -0.000088  0.002097  0.000033 -0.001652 -0.000030  0.000769 -0.000002 -0.000247
                                -0.000006 -0.000002  0.000067 -0.000006 -0.000017 -0.000010  0.000515 -0.000034 -0.000436  0.000020
                                 0.000446 -0.000022  0.000028 -0.000001 -0.000135  0.000012  0.000093 -0.000001  0.000026 -0.000001
                                -0.000002  0.000452 -0.000016 -0.000018  0.000505  0.000011 -0.000018 -0.000213  0.000961  0.001125
                                 0.000402 -0.000976  0.000138 -0.000635 -0.000771  0.000146  0.000220 -0.000436 -0.000486

   5.3   0   -14.1846  -29.5335  0.000000 -0.000000  0.000000 -0.000000  0.000000 -0.000000  0.000000 -0.000001  0.000002 -0.000022
                                -0.000223 -0.000257 -0.002503 -0.006767 -0.005837  0.000067 -0.004206  0.001912 -0.003025  0.000087
                                 0.000299  0.001500  0.007818 -0.000900  0.003867  0.001078  0.003061 -0.002718 -0.000971 -0.000124
                                 0.000000 -0.000000  0.000000 -0.000000  0.000004  0.000038 -0.000074  0.000012  0.000067  0.000016
                                -0.000010 -0.000073  0.000106 -0.000047  0.000002  0.000091 -0.000048  0.000061 -0.000024  0.000019
                                -0.000010  0.000021  0.000229  0.000007 -0.001836 -0.000057  0.025081  0.000783  0.347565  0.010851
                                 0.392338  0.012250  0.178891  0.005607 -0.001519 -0.000040  0.119474  0.003729  0.133010  0.004156
                                 0.004373  0.000126 -0.002364 -0.000063  0.001522  0.000053 -0.000748 -0.000022  0.000222  0.000008
                                 0.000002  0.000006  0.000001 -0.000100  0.000009 -0.000032 -0.000007 -0.000833  0.000014  0.000621
                                -0.000012 -0.000669 -0.000000 -0.000098  0.000005  0.000326 -0.000003 -0.000131  0.000001 -0.000000
                                -0.000037 -0.000012 -0.000000 -0.000546 -0.000015 -0.000000 -0.000572 -0.000158  0.000775  0.000450
                                 0.000291 -0.000740 -0.000238  0.001156  0.000711 -0.000220 -0.000379  0.000558  0.000958

                                   1 3d1-    1 3d1-    1 3d1-    1 3d1-    1 3d1-    1 3d1-    1 3d1-    1 3d1-    1 3d1-    1 3d1-
                                   1 3d1-    1 3d1-    1 3d1-    1 3d1-    1 3d1-    1 3d1-    1 3d1-    1 3d1-    1 3d1-    1 3d1-
                                   1 3d1-    1 3d1-    1 4f2-    1 4f2-    1 4f2-    1 4f2-    1 4f2-    1 4f2-    1 4f2-    1 4f2-
                                   1 4f2-    1 4f2-    1 4f2-    1 4f2-    1 4f2-    1 4f2-    1 5g1-    1 5g3-    1 5g1-    1 5g3-
                                   1 5g1-    1 5g3-    1 5g1-    1 5g3-    1 5g1-    1 5g3-    1 5g1-    1 5g3-    1 5g1-    1 5g3-
                                   1 5g1-    1 5g3-    1 5g1-    1 5g3-    1 6h4-    1 6h2-    1 6h4-    1 6h2-    1 6h4-    1 6h2-
                                   2 3d1-    2 3d1-    3 2pz     3 2pz     3 2pz     3 3d1-    3 3d1+    3 3d1-    3 3d1+

   1.4   +    -0.2126   -1.3529 -0.000002  0.000012 -0.000052  0.000276 -0.005015 -0.042307  0.049026 -0.058604 -0.070440  1.387320
                                 0.011804  0.073367 -0.082255  0.364799 -0.695955 -2.324996  2.008310 -0.884689  0.485592 -0.656279
                                 0.893083 -1.419429  0.000001 -0.000009  0.000172  0.003582  0.008263 -0.010445  0.036269 -0.001770
                                -0.007536 -0.057700  0.079526 -0.013922  0.005590 -0.002380 -0.000644  0.000002 -0.000749  0.000003
                                -0.009882  0.000035 -0.022975  0.000088  0.064030 -0.000243 -0.053499  0.000228  0.002024  0.000032
                                 0.049437 -0.000440  0.000217  0.000360  0.000012  0.000023 -0.000251 -0.000448 -0.003169 -0.005037
                                -0.004210  0.004476 -0.014942  0.031076 -0.182074 -0.016467 -0.006053  0.004595 -0.001007

   2.4   0   -14.1917  -29.5477 -0.000000  0.000000 -0.000001  0.000008 -0.000142 -0.001294  0.002686 -0.000791 -0.002254  0.000044
                                 0.000339  0.002482 -0.003753  0.001400  0.000695 -0.002658  0.001752 -0.001714  0.000822 -0.000275
                                 0.000126 -0.000054  0.000229 -0.001835  0.025072  0.347501  0.392386  0.179553 -0.001231  0.119459
                                 0.133089  0.004033 -0.002097  0.001653 -0.000768  0.000247 -0.000008  0.000002  0.000063  0.000004
                                -0.000026  0.000011  0.000510  0.000011 -0.000436  0.000001  0.000445  0.000001  0.000028 -0.000000
                                -0.000135  0.000000  0.000093 -0.000000  0.000004 -0.000027 -0.000008 -0.000452  0.000014 -0.000506
                                 0.000014 -0.000110  0.000254 -0.001151 -0.001365  0.000421  0.000232 -0.001049 -0.000515

   3.4   0    -9.4217  -20.0010 -0.000002  0.000012 -0.000050  0.000273 -0.005429 -0.058656  0.126974  0.181853 -0.502907 -0.011431
                                 0.013505  0.126521 -0.210658 -0.297529 -0.360529  0.005394 -0.002446  0.001327 -0.000073 -0.000819
                                 0.001700 -0.002620 -0.000002  0.000018 -0.000203 -0.001421  0.002727  0.006860  0.008955 -0.002540
                                -0.006264 -0.005445  0.001583 -0.001170  0.000498 -0.000158  0.000066 -0.000000  0.000251  0.000000
                                 0.000610 -0.000004  0.007577 -0.000013  0.007596 -0.000008 -0.002797  0.000000  0.000778  0.000000
                                -0.000256  0.000000  0.000044  0.000000 -0.000052 -0.000028  0.000146  0.000091 -0.003465 -0.001558
                                -0.000289  0.000090  0.001328  0.003755  0.001378  0.001458  0.001078  0.001434  0.000754

 HOMO      1.4    -0.212570 =      -5.7843eV
 LUMO      7.1   -14.215324 =    -386.8187eV
 LUMO-HOMO       -14.002754 =    -381.0343eV

 No convergence



 **********************************************************************************************************************************
 DATASETS  * FILE   NREC   LENGTH (MB)   RECORD NAMES
              1      20       23.20       500      610      700      900      950      970     1000      129      960     1100
                                          VAR    BASINP    GEOM    SYMINP    ZMAT    AOBASIS   BASIS     P2S    ABASIS      S
                                         1400     1410     1420     1200     1210     1080     1600     1650     1700     1800
                                           T        V       ECP      H0       H01     AOSYM     SMH    MOLCAS    OPER     GRID

              2       7       16.14       700     1000      520     1800     2202     3202     2102
                                         GEOM     BASIS   MCVARS    GRID      RKS      RHF      RHF

 PROGRAMS   *        TOTAL       RHF       RHF       RKS       INT
 CPU TIMES  *       453.26    142.05     39.66     66.80    204.38
 REAL TIME  *       507.75 SEC
 DISK USED  *        28.44 GB
 SF USED    *         0.31 MB
 GA USED    *         0.27 MB       (max)       0.27 MB       (current)
 **********************************************************************************************************************************
   -->
   <time start="15:41:12" end="15:43:50" cpu="142.06" system="14.83" real="157.08"/>
   <storage units="megabyte" memory="8001.84" sf="0.31" df="703.32" eaf="27737.61"
     ga="0.27"/>
  </jobstep><!--
 SETTING SCF            =       -10.18362716  AU
 SETTING _CC_NORM_MAX   =         2.00000000
  --><jobstep command="RCCSD(T)" commandset="CCSD">
   <!--


 PROGRAM * CCSD (Restricted open-shell coupled cluster)     Authors: C. Hampel, H.-J. Werner, 1991, M. Deegan, P.J. Knowles, 1992


 Convergence thresholds:  THRVAR = 1.00D-08  THRDEN = 1.00D-06

 CCSD(T)     terms to be evaluated (factor= 1.000)


 Number of closed-shell orbitals:   8 (   4   2   2   0 )
 Number of active  orbitals:        5 (   2   1   1   1 )
 Number of external orbitals:     506 ( 195 127 116  68 )

 Memory could be reduced to 683.28 Mwords without degradation in triples

 Number of N-1 electron functions:              21
 Number of N-2 electron functions:             210
 Number of singly external CSFs:              3264
 Number of doubly external CSFs:          10447351
 Total number of CSFs:                    10450615

 Molecular orbitals read from record     2102.2  Type=RHF/CANONICAL (state 1.1)

 ?Error: RHF not converged. This error exit can be avoided using the IGNORE_ERROR option on the ORBITAL directive
   --><error/><!--
  --></jobstep><!--
  -->
  <input>
  <!--
 --></job><!--
--></molpro>
