
 Primary working directories    : /global/cscratch1/sd/haihan
 Secondary working directories  : /global/cscratch1/sd/haihan
 Wavefunction directory         : /global/homes/h/haihan/Research/ECP/f_group_element_ecps/Zr/Molpro/molecule/ZrH/AE/wfu/
 Main file repository           : /global/cscratch1/sd/haihan/

 SHA1      : 19cd028119e0e09f93f0674bd8af7968d9b3eff6
 NAME      : 2015.1.36
 ARCHNAME  : linux/x86_64
 FC        : /opt/cray/pe/craype/2.5.14/bin/ftn
 BLASLIB   : -L/opt/intel/compilers_and_libraries_2018.1.163/linux/mkl/lib/intel64 -Wl,-_start-group -lmkl_intel_ilp64 -lmkl_intel_thread -lmkl_core -Wl,-_end-group -liomp5
 id        : lbl

 Nodes     nprocs
 nid00827    11
 Number of processes for MPI-2 version of Molpro:   nprocs(total)=   12   nprocs(compute)=   11   nprocs(helper)=    1

 Using customized tuning parameters: mindgm=7; mindgv=16; mindgc=1; mindgr=1; noblas=0; minvec=7
 default implementation of scratch files=sf  

 ***,Calculation for all-electron YH molecule, SCF and CCSD(T)
 memory,1,g
 gthresh,twoint=1.0E-15
 gthresh,throvl=1.0E-15
 
 set,dkroll=1,dkho=10,dkhp=4
 basis={
 Including file /global/u2/h/haihan/Research/ECP/f_group_element_ecps/Zr/Molpro/molecule/ZrH/AE/r_1.30/../generate/Zr-aug-cc-pwCVTZ.basis
 Including file /global/u2/h/haihan/Research/ECP/f_group_element_ecps/Zr/Molpro/molecule/ZrH/AE/r_1.30/../generate/H-aug-cc-pVTZ.basis
 }
 
 Zr_ccsd=-3597.393660
 H_ccsd=-0.49982785
 
                                                                                 !These are the wf cards parameters
 ne = 41
 symm = 2
 ss= 1
 
                                                                                 !There are irrep cards paramters
 A1=11
 B1=5
 B2=4
 A2=1
 
 
 geometry={
     2
     ZrH molecule
     Zr 0.0 0.0 0.0
     H 0.0 0.0 1.30
 }
 {rhf,nitord=20;
  maxit,200;
  wf,ne,symm,ss
  occ,A1,B1,B2,A2
  closed,A1,B1-1,B2,A2
  print,orbitals=2
 }
 scf=energy
 _CC_NORM_MAX=2.0
 {rccsd(t),shifts=0.5,shiftp=0.5,thrdis=1.0;diis,1,1,15,1;maxit,200;core}
 ccsd=energy
 bind=ccsd-Zr_ccsd-H_ccsd
 
 
 table,1.30,scf,ccsd,bind
 save
 type,csv
 

 Variables initialized (889), CPU time= 0.01 sec
 Commands  initialized (702), CPU time= 0.00 sec, 572 directives.
 Default parameters read. Elapsed time= 0.13 sec

 Checking input...
 Passed
1


                                         ***  PROGRAM SYSTEM MOLPRO  ***
                                       Copyright, TTI GmbH Stuttgart, 2015
                                    Version 2015.1 linked Dec 29 2018 15:55:43


 **********************************************************************************************************************************
 LABEL *   Calculation for all-electron YH molecule, SCF and CCSD(T)                     
  64 bit mpp version                                                                     DATE: 25-Sep-22          TIME: 06:23:25  
 **********************************************************************************************************************************

 SHA1:             19cd028119e0e09f93f0674bd8af7968d9b3eff6
 **********************************************************************************************************************************

 THRESHOLDS:

 ZERO    =  1.00D-12  ONEINT  =  1.00D-12  TWOINT  =  1.00D-15  PREFAC  =  1.00D-14  LOCALI  =  1.00D-09  EORDER  =  1.00D-04
 ENERGY  =  0.00D+00  ETEST   =  0.00D+00  EDENS   =  0.00D+00  THRDEDEF=  1.00D-06  GRADIENT=  1.00D-02  STEP    =  1.00D-03
 ORBITAL =  1.00D-05  CIVEC   =  1.00D-05  COEFF   =  1.00D-04  PRINTCI =  5.00D-02  PUNCHCI =  9.90D+01  OPTGRAD =  3.00D-04
 OPTENERG=  1.00D-06  OPTSTEP =  3.00D-04  THRGRAD =  1.00D-10  COMPRESS=  1.00D-11  VARMIN  =  1.00D-07  VARMAX  =  1.00D-03
 THRDOUB =  0.00D+00  THRDIV  =  1.00D-05  THRRED  =  1.00D-07  THRPSP  =  1.00D+00  THRDC   =  1.00D-10  THRCS   =  1.00D-10
 THRNRM  =  1.00D-08  THREQ   =  0.00D+00  THRDE   =  1.00D+00  THRREF  =  1.00D-05  SPARFAC =  1.00D+00  THRDLP  =  1.00D-07
 THRDIA  =  1.00D-10  THRDLS  =  1.00D-07  THRGPS  =  0.00D+00  THRKEX  =  0.00D+00  THRDIS  =  2.00D-01  THRVAR  =  1.00D-10
 THRLOC  =  1.00D-06  THRGAP  =  1.00D-06  THRLOCT = -1.00D+00  THRGAPT = -1.00D+00  THRORB  =  1.00D-06  THRMLTP =  0.00D+00
 THRCPQCI=  1.00D-10  KEXTA   =  0.00D+00  THRCOARS=  0.00D+00  SYMTOL  =  1.00D-06  GRADTOL =  1.00D-06  THROVL  =  1.00D-08
 THRORTH =  1.00D-08  GRID    =  1.00D-06  GRIDMAX =  1.00D-03  DTMAX   =  0.00D+00  THROCCDE=  1.00D-01  THROCCDE=  1.00D-01



 THRESHOLDS:

 ZERO    =  1.00D-12  ONEINT  =  1.00D-12  TWOINT  =  1.00D-15  PREFAC  =  1.00D-14  LOCALI  =  1.00D-09  EORDER  =  1.00D-04
 ENERGY  =  0.00D+00  ETEST   =  0.00D+00  EDENS   =  0.00D+00  THRDEDEF=  1.00D-06  GRADIENT=  1.00D-02  STEP    =  1.00D-03
 ORBITAL =  1.00D-05  CIVEC   =  1.00D-05  COEFF   =  1.00D-04  PRINTCI =  5.00D-02  PUNCHCI =  9.90D+01  OPTGRAD =  3.00D-04
 OPTENERG=  1.00D-06  OPTSTEP =  3.00D-04  THRGRAD =  1.00D-10  COMPRESS=  1.00D-11  VARMIN  =  1.00D-07  VARMAX  =  1.00D-03
 THRDOUB =  0.00D+00  THRDIV  =  1.00D-05  THRRED  =  1.00D-07  THRPSP  =  1.00D+00  THRDC   =  1.00D-10  THRCS   =  1.00D-10
 THRNRM  =  1.00D-08  THREQ   =  0.00D+00  THRDE   =  1.00D+00  THRREF  =  1.00D-05  SPARFAC =  1.00D+00  THRDLP  =  1.00D-07
 THRDIA  =  1.00D-10  THRDLS  =  1.00D-07  THRGPS  =  0.00D+00  THRKEX  =  0.00D+00  THRDIS  =  2.00D-01  THRVAR  =  1.00D-10
 THRLOC  =  1.00D-06  THRGAP  =  1.00D-06  THRLOCT = -1.00D+00  THRGAPT = -1.00D+00  THRORB  =  1.00D-06  THRMLTP =  0.00D+00
 THRCPQCI=  1.00D-10  KEXTA   =  0.00D+00  THRCOARS=  0.00D+00  SYMTOL  =  1.00D-06  GRADTOL =  1.00D-06  THROVL  =  1.00D-15
 THRORTH =  1.00D-08  GRID    =  1.00D-06  GRIDMAX =  1.00D-03  DTMAX   =  0.00D+00  THROCCDE=  1.00D-01  THROCCDE=  1.00D-01


 SETTING DKROLL         =         1.00000000                                  
 SETTING DKHO           =        10.00000000                                  
 SETTING DKHP           =         4.00000000                                  

 Variable memory set to 1000000000 words,  buffer space   230000 words

 SETTING BASIS          =    USERDEF
 SETTING ZR_CCSD        =     -3597.39366000                                  
 SETTING H_CCSD         =        -0.49982785                                  
 SETTING NE             =        41.00000000                                  
 SETTING SYMM           =         2.00000000                                  
 SETTING SS             =         1.00000000                                  
 SETTING A1             =        11.00000000                                  
 SETTING B1             =         5.00000000                                  
 SETTING B2             =         4.00000000                                  
 SETTING A2             =         1.00000000                                  

Geometry recognized as XYZ



 Recomputing integrals since basis changed


 Using spherical harmonics



 PROGRAM * SEWARD (Integral evaluation for generally contracted gaussian basis sets)     Author: Roland Lindh, 1990

 Geometry written to block  1 of record 700


 Point group  C2v 



 ATOMIC COORDINATES

 NR  ATOM    CHARGE       X              Y              Z

   1  ZR     40.00    0.000000000    0.000000000    0.000000000
   2  H       1.00    0.000000000    0.000000000    2.456643962

 Bond lengths in Bohr (Angstrom)

 1-2  2.456643962
     ( 1.300000000)

 NUCLEAR CHARGE:                   41
 NUMBER OF PRIMITIVE AOS:         347
 NUMBER OF SYMMETRY AOS:          295
 NUMBER OF CONTRACTIONS:          295   ( 129A1  +  67B1  +  67B2  +  32A2  )
 NUMBER OF CORE ORBITALS:          18   (   9A1  +   4B1  +   4B2  +   1A2  )
 NUMBER OF VALENCE ORBITALS:        7   (   4A1  +   1B1  +   1B2  +   1A2  )


 NUCLEAR REPULSION ENERGY   16.28237572

 One-electron integrals computed with SEWARD

 10nd-order Douglas-Kroll-Hess method activated. McWeeny DKH parametrization is used.

 Computing Douglas-Kroll / X2C integrals

 AO integral compression algorithm  1   Integral accuracy      1.0D-15

     1296.564 MB (compressed) written to integral file ( 58.1%)

     Node minimum: 49.021 MB, node maximum: 335.282 MB


 NUMBER OF SORTED TWO-ELECTRON INTEGRALS:   22432752.     BUFFER LENGTH:  32768
 NUMBER OF SEGMENTS:   2  SEGMENT LENGTH:   15996129      RECORD LENGTH: 524288

 Memory used in sort:      16.55 MW

 SORT1 READ   279023068. AND WROTE    10561986. INTEGRALS IN     31 RECORDS. CPU TIME:     6.25 SEC, REAL TIME:     7.38 SEC
 SORT2 READ   115204749. AND WROTE   246753875. INTEGRALS IN   3619 RECORDS. CPU TIME:     0.70 SEC, REAL TIME:     1.08 SEC

 Node minimum:    22405599.  Node maximum:    22490595. integrals

 OPERATOR DM      FOR CENTER  0  COORDINATES:    0.000000    0.000000    0.000000

 EXTRA SYMMETRY OF AOS IN SYMMETRY 1:   1 1 1 1 1 1 1 1 1 1   1 1 1 1 1 1 1 1 1 1   1 1 1 1 1 1 1 1 1 1   1 1 1 1 1 1 1 1 1 1
                                        1 1 1 1 1 1 1 1 1 1   1 1 1 1 1 1 1 1 1 1   2 1 2 1 2 1 2 1 2 1   2 1 2 1 2 1 2 1 2 1
                                        2 1 2 1 2 1 2 1 2 1   2 1 2 1 2 1 2 1 2 1   2 1 2 1 2 1 2 1 3 2   1 3 2 1 3 2 1 1 1 1
                                        1 1 1 1 1 1 2 1 2
 EXTRA SYMMETRY OF AOS IN SYMMETRY 2:   1 1 1 1 1 1 1 1 1 1   1 1 1 1 1 1 1 1 1 1   1 1 1 1 1 1 1 1 1 1   1 1 1 1 1 1 1 1 1 1
                                        1 1 1 1 1 1 1 1 1 2   1 2 1 2 1 2 1 2 1 2   1 2 1 1 1 1 1
 EXTRA SYMMETRY OF AOS IN SYMMETRY 3:   1 1 1 1 1 1 1 1 1 1   1 1 1 1 1 1 1 1 1 1   1 1 1 1 1 1 1 1 1 1   1 1 1 1 1 1 1 1 1 1
                                        1 1 1 1 1 1 1 1 1 2   1 2 1 2 1 2 1 2 1 2   1 2 1 1 1 1 1
 EXTRA SYMMETRY OF AOS IN SYMMETRY 4:   1 1 1 1 1 1 1 1 1 1   1 1 1 1 1 1 1 1 1 1   1 1 1 1 1 2 1 2 1 2   1 1

 Eigenvalues of metric

         1 0.116E-07 0.890E-07 0.978E-07 0.111E-06 0.512E-06 0.100E-05 0.318E-05 0.677E-05
         2 0.122E-07 0.976E-07 0.117E-06 0.104E-05 0.808E-05 0.108E-04 0.358E-04 0.404E-04
         3 0.122E-07 0.976E-07 0.117E-06 0.104E-05 0.808E-05 0.108E-04 0.358E-04 0.404E-04
         4 0.978E-07 0.108E-04 0.404E-04 0.435E-03 0.212E-02 0.595E-02 0.165E-01 0.366E-01


 **********************************************************************************************************************************
 DATASETS  * FILE   NREC   LENGTH (MB)   RECORD NAMES
              1      22       21.76       500      610      700      900      950      970     1000      129      960     1700   
                                          VAR    BASINP    GEOM    SYMINP    ZMAT    AOBASIS   BASIS     P2S    ABASIS    OPER   
                                         1101     1401     1411     1412     1650     1100     1400     1410     1200     1210   
                                          SR      EKINR    POTR     PVPR    MOLCAS      S      EKIN      POT      H0       H01  
                                         1080     1600   
                                         AOSYM     SMH  

 PROGRAMS   *        TOTAL       INT
 CPU TIMES  *        62.16     61.76
 REAL TIME  *        65.80 SEC
 DISK USED  *         2.73 GB      
 GA USED    *         0.00 MB       (max)       0.00 MB       (current)
 **********************************************************************************************************************************


 PROGRAM * RHF-SCF (OPEN SHELL)       Authors: W. Meyer, H.-J. Werner


 NUMBER OF ELECTRONS:      21+   20-    SPACE SYMMETRY=2    SPIN SYMMETRY: Doublet 
 CONVERGENCE THRESHOLDS:    1.00E-05 (Density)    1.00E-07 (Energy)
 MAX. NUMBER OF ITERATIONS:      200
 INTERPOLATION TYPE:            DIIS
 INTERPOLATION STEPS:              2 (START)      1 (STEP)
 LEVEL SHIFTS:                 -0.60 (CLOSED) -0.30 (OPEN) 

 Number of closed-shell orbitals:   20 (  11   4   4   1 )
 Number of open-shell orbitals:      1 (   0   1   0   0 )


 Orbital guess generated from atomic densities. Full valence occupancy:   13   5   5   2

 Molecular orbital dump at record        2100.2

 ITERATION    DDIFF          GRAD             ENERGY        2-EL.EN.            DIPOLE MOMENTS         DIIS   ORB.
    1      0.000D+00      0.000D+00     -3596.02266494   2704.169744    0.00000    0.00000   -0.83895    0    start
    2      0.000D+00      0.105D-01     -3596.60687866   2780.143896    0.00000    0.00000   -0.20788    1    diag,B
    3      0.704D+00      0.682D-02     -3596.64281453   2769.956977    0.00000    0.00000   -0.24939    2    diag,B
    4      0.803D-02      0.195D-02     -3596.65600058   2768.451503    0.00000    0.00000   -0.26274    3    diag,B
    5      0.105D-01      0.101D-02     -3596.66623947   2768.495112    0.00000    0.00000   -0.26947    4    diag,B
    6      0.165D-01      0.651D-03     -3596.67172250   2769.642380    0.00000    0.00000   -0.28299    5    diag,B
    7      0.142D-01      0.378D-03     -3596.67408830   2770.683024    0.00000    0.00000   -0.31396    6    diag,B
    8      0.983D-02      0.153D-03     -3596.67448032   2770.974512    0.00000    0.00000   -0.34489    7    diag,B
    9      0.262D-02      0.878D-04     -3596.67459854   2771.041242    0.00000    0.00000   -0.37055    8    diag,B
   10      0.182D-02      0.529D-04     -3596.67464912   2771.059619    0.00000    0.00000   -0.38451    9    orth
   11      0.203D-02      0.371D-04     -3596.67468964   2771.098340    0.00000    0.00000   -0.39489    9    diag,B
   12      0.167D-02      0.219D-04     -3596.67470579   2771.110450    0.00000    0.00000   -0.39976    9    diag,B
   13      0.135D-02      0.106D-04     -3596.67470836   2771.110006    0.00000    0.00000   -0.39926    9    diag,B
   14      0.622D-03      0.479D-05     -3596.67470877   2771.104655    0.00000    0.00000   -0.39840    9    diag,B
   15      0.324D-03      0.192D-05     -3596.67470883   2771.104574    0.00000    0.00000   -0.39797    9    diag,B
   16      0.240D-03      0.918D-06     -3596.67470884   2771.105031    0.00000    0.00000   -0.39779    9    diag,B
   17      0.530D-04      0.559D-06     -3596.67470885   2771.105009    0.00000    0.00000   -0.39766    9    diag,B
   18      0.445D-04      0.335D-06     -3596.67470885   2771.104650    0.00000    0.00000   -0.39753    9    diag,B
   19      0.197D-04      0.214D-06     -3596.67470885   2771.104383    0.00000    0.00000   -0.39744    9    fixocc
   20      0.761D-05      0.149D-06     -3596.67470885   2771.104399    0.00000    0.00000   -0.39742    0    orth

 Final alpha occupancy:  11   5   4   1
 Final beta  occupancy:  11   4   4   1

 !RHF STATE 1.2 Energy              -3596.674708850981
 Nuclear energy                        16.28237572
 One-electron energy                -4998.50928408
 Two-electron energy                 1385.55219951
 Virial quotient                       -0.91129786
 !RHF STATE 1.2 Dipole moment           0.00000000     0.00000000    -0.39741539
 Dipole moment /Debye                   0.00000000     0.00000000    -1.01006300

 ELECTRON ORBITALS
 =================


   Orb  Occ    Energy  Couls-En    Coefficients

                                   1 1s      1 1s      1 1s      1 1s      1 1s      1 1s      1 1s      1 1s      1 1s      1 1s   
                                   1 1s      1 1s      1 1s      1 1s      1 1s      1 1s      1 1s      1 1s      1 1s      1 1s   
                                   1 1s      1 1s      1 1s      1 1s      1 1s      1 1s      1 1s      1 1s      1 1s      1 1s   
                                   1 1s      1 2pz     1 2pz     1 2pz     1 2pz     1 2pz     1 2pz     1 2pz     1 2pz     1 2pz  
                                   1 2pz     1 2pz     1 2pz     1 2pz     1 2pz     1 2pz     1 2pz     1 2pz     1 2pz     1 2pz  
                                   1 2pz     1 2pz     1 2pz     1 2pz     1 2pz     1 2pz     1 2pz     1 2pz     1 2pz     1 3d0  
                                   1 3d2+    1 3d0     1 3d2+    1 3d0     1 3d2+    1 3d0     1 3d2+    1 3d0     1 3d2+    1 3d0  
                                   1 3d2+    1 3d0     1 3d2+    1 3d0     1 3d2+    1 3d0     1 3d2+    1 3d0     1 3d2+    1 3d0  
                                   1 3d2+    1 3d0     1 3d2+    1 3d0     1 3d2+    1 3d0     1 3d2+    1 3d0     1 3d2+    1 3d0  
                                   1 3d2+    1 3d0     1 3d2+    1 3d0     1 3d2+    1 3d0     1 3d2+    1 3d0     1 3d2+    1 4f0  
                                   1 4f2+    1 4f0     1 4f2+    1 4f0     1 4f2+    1 4f0     1 4f2+    1 5g0     1 5g4+    1 5g2+ 
                                   1 5g0     1 5g4+    1 5g2+    1 5g0     1 5g4+    1 5g2+    2 1s      2 1s      2 1s      2 1s   
                                   2 1s      2 1s      2 2pz     2 2pz     2 2pz     2 3d0     2 3d2+    2 3d0     2 3d2+ 

   1.1   2  -665.0646-1483.0914  0.000042  0.000111  0.000306  0.000707  0.001535  0.003175  0.006516  0.013482  0.028412  0.060272
                                 0.123435  0.225419  0.318990  0.279037 -0.004787  0.105658  0.006280  0.002711 -0.003375  0.004441
                                -0.004754  0.003867 -0.005151  0.003933 -0.000335  0.000142 -0.000089  0.000067 -0.000020  0.000015
                                -0.000001 -0.000000 -0.000000 -0.000000 -0.000000 -0.000000 -0.000000 -0.000000 -0.000000  0.000001
                                 0.000001  0.000002 -0.000027  0.000043 -0.000072  0.000171 -0.000295  0.000306 -0.000246  0.000472
                                -0.000583  0.000307 -0.000102  0.000092 -0.000076  0.000017  0.000002  0.000003  0.000000 -0.000000
                                -0.000000 -0.000000 -0.000000 -0.000001 -0.000000 -0.000000 -0.000000  0.000000  0.000000 -0.000003
                                -0.000000  0.000003  0.000000 -0.000001 -0.000000  0.000002  0.000000 -0.000009 -0.000000  0.000051
                                 0.000000 -0.000137 -0.000001  0.000377  0.000001 -0.000342 -0.000001  0.000063  0.000000 -0.000012
                                -0.000000  0.000006  0.000000  0.000000 -0.000000  0.000000  0.000000  0.000000 -0.000000 -0.000000
                                -0.000000 -0.000000 -0.000000 -0.000001 -0.000000 -0.000000  0.000000 -0.000000  0.000000  0.000000
                                -0.000000  0.000000  0.000000 -0.000000  0.000000  0.000000 -0.000000 -0.000000 -0.000001  0.000005
                                -0.000024 -0.000010 -0.000000  0.000001  0.000010  0.000001  0.000000 -0.000002  0.000000

   2.1   2   -94.7853 -298.4564 -0.000014 -0.000036 -0.000101 -0.000234 -0.000508 -0.001055 -0.002177 -0.004544 -0.009722 -0.021200
                                -0.045700 -0.092288 -0.158110 -0.186361  0.004613 -0.034309  0.360991  0.542730  0.231080  0.018499
                                 0.011072  0.001378 -0.004699  0.004220 -0.000615  0.000234 -0.000186  0.000141 -0.000038  0.000033
                                -0.000002  0.000000  0.000000  0.000000  0.000000  0.000002  0.000006  0.000017  0.000047  0.000104
                                 0.000172  0.000220  0.000124  0.000042 -0.000073  0.000259 -0.000461  0.000490 -0.000402  0.000796
                                -0.000995  0.000533 -0.000180  0.000183 -0.000165  0.000038  0.000005  0.000006  0.000001 -0.000000
                                -0.000000 -0.000000 -0.000000 -0.000000 -0.000000 -0.000006 -0.000003 -0.000025 -0.000013 -0.000024
                                -0.000015  0.000009  0.000006 -0.000002 -0.000002  0.000001 -0.000001 -0.000014 -0.000001  0.000072
                                 0.000001 -0.000200 -0.000002  0.000570  0.000003 -0.000523 -0.000002  0.000098  0.000000 -0.000028
                                -0.000000  0.000016  0.000000  0.000001 -0.000000  0.000001  0.000000  0.000001 -0.000000  0.000005
                                 0.000000 -0.000002 -0.000000 -0.000002  0.000000 -0.000000 -0.000000 -0.000001 -0.000000 -0.000002
                                -0.000001  0.000000  0.000000 -0.000001 -0.000000 -0.000000 -0.000000 -0.000000 -0.000001  0.000021
                                -0.000055 -0.000023 -0.000000 -0.000004  0.000020  0.000001 -0.000000 -0.000003 -0.000000

   3.1   2   -84.3143 -284.2475  0.000000  0.000000  0.000000  0.000000  0.000000  0.000001  0.000001  0.000003  0.000006  0.000013
                                 0.000029  0.000058  0.000099  0.000119 -0.000005  0.000021 -0.000246 -0.000311 -0.000153  0.000023
                                -0.000113  0.000133 -0.000352  0.000330 -0.000060  0.000045 -0.000026  0.000213  0.000058 -0.000003
                                 0.000004  0.000014  0.000054  0.000210  0.000776  0.002803  0.009566  0.029702  0.080895  0.181365
                                 0.307738  0.343360  0.167423  0.035845 -0.004828  0.086938 -0.113934  0.095751 -0.053236  0.063846
                                -0.062772  0.024084 -0.004972  0.002244 -0.001603  0.000287  0.000018  0.000004  0.000000  0.000000
                                 0.000000  0.000001  0.000000  0.000003  0.000000  0.000013  0.000000  0.000046  0.000001  0.000044
                                 0.000001 -0.000009 -0.000000 -0.000001  0.000000  0.000009  0.000000 -0.000029 -0.000000  0.000203
                                 0.000000 -0.000523 -0.000000  0.001387  0.000001 -0.001239 -0.000001  0.000226  0.000000 -0.000027
                                 0.000000  0.000042 -0.000000  0.000024  0.000000 -0.000005 -0.000000  0.000001  0.000000 -0.000009
                                -0.000009  0.000005 -0.000001  0.000008 -0.000001  0.000001  0.000000 -0.000000  0.000000 -0.000000
                                 0.000002  0.000000  0.000000  0.000000  0.000000 -0.000000 -0.000000  0.000001 -0.000005 -0.000048
                                -0.000252 -0.000012  0.000001  0.000026  0.000066 -0.000001 -0.000000 -0.000006  0.000000

   4.1   2   -16.6754 -100.0167  0.000006  0.000015  0.000042  0.000097  0.000212  0.000440  0.000908  0.001899  0.004069  0.008914
                                 0.019331  0.039662  0.069679  0.087560 -0.006091  0.020223 -0.235472 -0.479334 -0.253238  0.245597
                                 0.403992  0.490927  0.249901 -0.024460  0.015006 -0.002218  0.000766 -0.001031  0.000336 -0.000026
                                 0.000022 -0.000000 -0.000000 -0.000000 -0.000001 -0.000005 -0.000016 -0.000049 -0.000137 -0.000318
                                -0.000564 -0.000672  0.000024 -0.000187  0.001615 -0.001271  0.004249 -0.002782  0.003864 -0.005643
                                 0.007423 -0.004068  0.001539 -0.001173  0.000117 -0.000221  0.000013  0.000040 -0.000004 -0.000000
                                -0.000000 -0.000001 -0.000000 -0.000006 -0.000002 -0.000022 -0.000008 -0.000059 -0.000019 -0.000103
                                -0.000035 -0.000078 -0.000032 -0.000261 -0.000109 -0.000392 -0.000189 -0.000288 -0.000260 -0.000691
                                 0.000229  0.002200 -0.000410 -0.007288  0.000703  0.007164 -0.000533 -0.001625  0.000073 -0.000266
                                -0.000006  0.000072  0.000008 -0.000003 -0.000001  0.000032  0.000000 -0.000003 -0.000000  0.000126
                                 0.000005 -0.000241 -0.000006 -0.000043  0.000006  0.000026 -0.000001  0.000002 -0.000000 -0.000002
                                -0.000051  0.000001  0.000025  0.000001 -0.000000 -0.000002  0.000002 -0.000001  0.000082  0.000834
                                 0.000339 -0.000058 -0.000048 -0.000465 -0.000246  0.000014  0.000001  0.000119 -0.000007

   5.1   2   -13.1512  -93.4774 -0.000000 -0.000000 -0.000000 -0.000000 -0.000001 -0.000002 -0.000004 -0.000008 -0.000016 -0.000035
                                -0.000077 -0.000157 -0.000277 -0.000343  0.000006 -0.000059  0.000942  0.001928  0.000857 -0.000596
                                -0.002440 -0.001243 -0.002795  0.002167 -0.000509 -0.000767  0.003164 -0.002115 -0.000091 -0.000684
                                -0.000019 -0.000006 -0.000023 -0.000090 -0.000333 -0.001207 -0.004152 -0.013041 -0.036487 -0.084891
                                -0.152474 -0.171677 -0.014145  0.012416  0.284544  0.034103  0.431141  0.031117  0.290300 -0.053100
                                 0.123378 -0.037833  0.011587 -0.006145  0.007029 -0.001445 -0.000357 -0.000222 -0.000013  0.000000
                                -0.000000  0.000001 -0.000000  0.000007 -0.000001  0.000023 -0.000003  0.000057 -0.000008  0.000060
                                -0.000018  0.000128  0.000003  0.000310 -0.000021  0.000719 -0.000008  0.000740  0.000019  0.000671
                                -0.000020 -0.002698  0.000038  0.009577 -0.000056 -0.009341  0.000040  0.002027 -0.000004  0.001189
                                 0.000005 -0.000705 -0.000014 -0.000160  0.000000 -0.000063 -0.000000 -0.000018  0.000000 -0.000476
                                -0.000190  0.000562  0.000180  0.000068 -0.000047 -0.000067  0.000016  0.000054 -0.000000  0.000003
                                 0.000100 -0.000000 -0.000001  0.000012 -0.000000 -0.000007  0.000003  0.000019  0.000024 -0.001920
                                 0.001671  0.000667 -0.000001  0.000984 -0.000134  0.000008 -0.000005 -0.000216  0.000018

   6.1   2    -7.3851  -83.1074  0.000000  0.000000  0.000000  0.000000  0.000000  0.000001  0.000001  0.000003  0.000006  0.000012
                                 0.000027  0.000055  0.000100  0.000117  0.000017  0.000000 -0.000322 -0.000769 -0.000236 -0.000119
                                 0.001881 -0.000304  0.007169 -0.007698  0.000973  0.000190 -0.004029  0.001580 -0.000133  0.000890
                                 0.000014  0.000000  0.000000  0.000000  0.000001  0.000002  0.000007  0.000022  0.000061  0.000145
                                 0.000261  0.000300 -0.000241  0.000313 -0.001292  0.001648 -0.004406  0.004091 -0.004206  0.011590
                                -0.015436  0.009297 -0.002798  0.002926 -0.005536  0.000753  0.000249  0.000298  0.000011  0.000106
                                 0.000126  0.000950  0.001132  0.005588  0.006655  0.022050  0.026261  0.064548  0.076871  0.142080
                                 0.169185 -0.002305 -0.002705  0.210527  0.250813  0.213399  0.254580  0.130315  0.156393 -0.022975
                                -0.027997  0.069189  0.085842 -0.064093 -0.083242  0.046531  0.060202 -0.003614 -0.003685 -0.001534
                                 0.000423  0.000738 -0.000159  0.000053  0.000028  0.000108 -0.000009  0.000017  0.000002  0.000534
                                 0.000237 -0.000787 -0.000087 -0.000171  0.000059  0.000073 -0.000011 -0.000244 -0.000120 -0.000238
                                -0.000126  0.000033  0.000083 -0.000035 -0.000012 -0.000006  0.000011  0.000016  0.000281  0.003436
                                -0.000907 -0.000820 -0.000284 -0.001771 -0.000110  0.000198  0.000005  0.000343 -0.000048

   7.1   2    -7.3766  -83.1079  0.000000  0.000000  0.000000  0.000000  0.000000  0.000000  0.000000  0.000001  0.000002  0.000005
                                 0.000010  0.000020  0.000037  0.000036  0.000024 -0.000020 -0.000094 -0.000297  0.000028 -0.000406
                                 0.001277 -0.001254  0.007370 -0.007478  0.001891 -0.000024 -0.005281  0.002336 -0.000091  0.001097
                                 0.000019  0.000000  0.000000  0.000000  0.000001  0.000002  0.000008  0.000026  0.000072  0.000170
                                 0.000305  0.000353 -0.000319  0.000439 -0.001635  0.002309 -0.005894  0.005680 -0.005892  0.016028
                                -0.021722  0.013146 -0.004094  0.004119 -0.007513  0.001224  0.000390  0.000360  0.000016  0.000127
                                -0.000106  0.001134 -0.000948  0.006668 -0.005575  0.026314 -0.021998  0.077029 -0.064393  0.169550
                                -0.141720 -0.002758  0.002271  0.251242 -0.210108  0.254741 -0.213325  0.155626 -0.131109 -0.027407
                                 0.023530  0.082315 -0.072077 -0.075346  0.070106  0.054501 -0.050745 -0.004308  0.003176 -0.002081
                                -0.000349  0.001073  0.000153  0.000099 -0.000022  0.000136  0.000007  0.000021 -0.000001  0.000667
                                -0.000199 -0.001025  0.000074 -0.000186 -0.000035  0.000096  0.000009 -0.000282  0.000101  0.000054
                                -0.000101 -0.000029  0.000010 -0.000045  0.000010 -0.000004  0.000013  0.000012  0.000353  0.004413
                                -0.001489 -0.001019 -0.000375 -0.002341 -0.000092  0.000273 -0.000004  0.000470  0.000015

   8.1   2    -2.5080  -38.1965 -0.000002 -0.000006 -0.000016 -0.000037 -0.000080 -0.000166 -0.000342 -0.000716 -0.001532 -0.003365
                                -0.007287 -0.015044 -0.026384 -0.034356  0.004898 -0.010672  0.098228  0.203024  0.127864 -0.160868
                                -0.175960 -0.560935 -0.101183 -0.048480  0.776632  0.545619 -0.015612  0.034989 -0.018006  0.012110
                                -0.000776  0.000000  0.000000  0.000001  0.000002  0.000008  0.000028  0.000090  0.000243  0.000597
                                 0.000990  0.001503 -0.006366  0.010417 -0.022591  0.051990 -0.103461  0.111841 -0.105410  0.226397
                                -0.288865  0.162958 -0.042393  0.042931 -0.041778 -0.001362 -0.002030  0.002684  0.000158  0.000000
                                 0.000000  0.000002  0.000002  0.000017  0.000011  0.000051  0.000044  0.000213  0.000128 -0.000349
                                 0.000268  0.000946  0.000024  0.000091  0.000421  0.001446  0.000440 -0.005195  0.000312  0.032564
                                -0.000512 -0.090636 -0.000421  0.230703 -0.000697 -0.201100 -0.000541  0.028887 -0.000349 -0.008083
                                 0.000207 -0.000579 -0.000042 -0.001824 -0.000011  0.000308 -0.000004  0.000307  0.000000  0.000187
                                -0.000014 -0.001955 -0.000008 -0.002778  0.000005 -0.000349 -0.000002  0.000422  0.000004  0.000244
                                 0.000075  0.000024  0.001032 -0.000663  0.000006  0.000136  0.000581  0.003679  0.014383  0.027030
                                -0.000705 -0.007580 -0.005422 -0.006678  0.003775  0.002187  0.000015 -0.000672  0.000024

   9.1   2    -1.5362  -32.9541  0.000000  0.000000  0.000001  0.000001  0.000003  0.000006  0.000013  0.000028  0.000059  0.000129
                                 0.000281  0.000578  0.001023  0.001287 -0.000063  0.000271 -0.003685 -0.008090 -0.004114  0.004014
                                 0.011668  0.015203  0.032871 -0.028330 -0.021981 -0.020010 -0.040805 -0.008753 -0.001577 -0.000806
                                 0.000158  0.000002  0.000008  0.000030  0.000112  0.000405  0.001396  0.004390  0.012341  0.028868
                                 0.052421  0.058942  0.000829 -0.010536 -0.115829 -0.043798 -0.146668 -0.100971 -0.058025 -0.106342
                                 0.349960 -0.027126  0.520312  0.326228 -0.017119  0.031674 -0.004790  0.000980 -0.000280 -0.000001
                                 0.000000 -0.000009  0.000000 -0.000046  0.000002 -0.000201  0.000007 -0.000495  0.000020 -0.002213
                                 0.000051  0.001265 -0.000009 -0.002494  0.000065 -0.000577  0.000042 -0.008391 -0.000029  0.040276
                                -0.000248 -0.095992  0.000488  0.221874 -0.002039 -0.175587  0.001965  0.020960 -0.000746 -0.013233
                                -0.000134 -0.002917 -0.000200 -0.001247 -0.000051 -0.000290  0.000002  0.000065 -0.000001  0.001539
                                 0.000746  0.001223  0.003320 -0.003746  0.002879 -0.000373 -0.000081  0.001646  0.000002  0.000083
                                 0.000009  0.000000  0.000049 -0.001156 -0.000001 -0.000063  0.001889  0.012910  0.051431  0.094009
                                 0.012549  0.000306 -0.011821 -0.021280  0.000930  0.003861 -0.000046  0.001060  0.000174

  10.1   2    -0.4602  -19.9588  0.000000  0.000001  0.000003  0.000006  0.000013  0.000027  0.000056  0.000118  0.000252  0.000554
                                 0.001200  0.002476  0.004353  0.005631 -0.000688  0.001630 -0.016222 -0.034282 -0.020731  0.025293
                                 0.036137  0.096975  0.054717 -0.030471 -0.175594 -0.165004 -0.058668 -0.014835 -0.015922  0.012646
                                -0.004016 -0.000001 -0.000002 -0.000009 -0.000032 -0.000115 -0.000396 -0.001245 -0.003505 -0.008187
                                -0.014935 -0.016575 -0.003908  0.009540  0.020728  0.048252 -0.027395  0.113250 -0.062299  0.201723
                                -0.335626  0.122394 -0.207899 -0.075504 -0.090047 -0.040654 -0.018283  0.009906 -0.002762 -0.000026
                                -0.000001 -0.000232 -0.000013 -0.001350 -0.000079 -0.005416 -0.000315 -0.015719 -0.000917 -0.038525
                                -0.002218  0.004895  0.000248 -0.052965 -0.003069 -0.042241 -0.002495 -0.030131 -0.001587  0.223309
                                 0.012286 -0.516953 -0.027959  1.880861  0.106930 -1.771398 -0.101836  0.592240  0.036010  0.095776
                                 0.008333  0.086704  0.005916  0.030209  0.003600 -0.000602 -0.000214  0.000895  0.000095  0.016741
                                 0.000347  0.023506  0.000268  0.005955  0.000225  0.000261  0.000095  0.001971 -0.000041 -0.000257
                                 0.000559 -0.000072 -0.000362 -0.002446 -0.000020  0.000575  0.005664  0.040752  0.171739  0.433202
                                 0.321443  0.008994 -0.011539 -0.054940 -0.025254  0.004417 -0.000648  0.005172 -0.000826

  11.1   2    -0.2166  -13.5024  0.000001  0.000001  0.000004  0.000009  0.000020  0.000041  0.000085  0.000178  0.000380  0.000835
                                 0.001807  0.003733  0.006548  0.008558 -0.001278  0.002723 -0.024684 -0.051255 -0.032831  0.042079
                                 0.046258  0.161219  0.026636  0.012251 -0.286075 -0.341938 -0.005963  0.274787  0.590815  0.323512
                                 0.003810  0.000000  0.000000  0.000001  0.000002  0.000009  0.000030  0.000093  0.000262  0.000610
                                 0.001125  0.001200  0.000984 -0.001872  0.000442 -0.008351  0.009631 -0.015427  0.008024 -0.010701
                                 0.011671  0.006314  0.002996  0.044737 -0.025799  0.011109 -0.042517 -0.005367  0.001945  0.000013
                                 0.000003  0.000120  0.000029  0.000697  0.000172  0.002802  0.000689  0.008114  0.001999  0.020132
                                 0.004928 -0.002807 -0.000655  0.027498  0.006753  0.021533  0.005335  0.016280  0.003995 -0.124742
                                -0.030907  0.292394  0.074851 -1.056879 -0.276389  1.002862  0.266322 -0.333962 -0.089179 -0.081319
                                -0.019832 -0.080238 -0.024808 -0.077671 -0.021623 -0.014651 -0.004712 -0.000794 -0.000745 -0.001824
                                -0.000196  0.000362 -0.000213  0.004319  0.000222  0.001816  0.000405  0.000689  0.000112  0.000773
                                 0.001849  0.000224  0.000983  0.000664  0.000074  0.000029 -0.000237 -0.001633 -0.007655 -0.009919
                                -0.040792 -0.041720  0.005215  0.010623  0.018981 -0.002262  0.000054 -0.000947  0.000325

  12.1   0     0.0132   -5.4517  0.000000  0.000000  0.000000  0.000000  0.000001  0.000002  0.000004  0.000010  0.000019  0.000048
                                 0.000088  0.000227  0.000256  0.001049 -0.002027  0.002321 -0.003147  0.000871 -0.014459  0.034763
                                -0.066520  0.114117 -0.338905  0.330153 -0.107563  0.101225 -0.296692  0.927422 -0.068815  0.532950
                                -0.576116 -0.000000 -0.000001 -0.000003 -0.000010 -0.000037 -0.000125 -0.000400 -0.001100 -0.002648
                                -0.004585 -0.006091  0.015878 -0.025401  0.060890 -0.127367  0.264415 -0.275803  0.268766 -0.583857
                                 0.747405 -0.442377  0.099971 -0.194360  0.102403  0.236139  0.620467 -0.296589  0.997272  0.000006
                                 0.000002  0.000050  0.000016  0.000294  0.000092  0.001158  0.000367  0.003456  0.001071  0.007242
                                 0.002555  0.000323 -0.000253  0.010702  0.003556  0.010535  0.002951 -0.003074  0.001572  0.013310
                                -0.012422 -0.066118  0.027935  0.123883 -0.110943 -0.118143  0.107148 -0.021474 -0.039897 -0.090441
                                -0.012169  0.098441 -0.010169  0.070434 -0.015249 -0.033957 -0.005628 -0.093820 -0.013895 -0.000550
                                 0.000188  0.000589  0.001223  0.029908  0.003473  0.021692  0.003580  0.000147  0.000041  0.000023
                                 0.005383  0.000076 -0.000062  0.007930  0.000015 -0.000212  0.000029 -0.000005  0.002422 -0.075459
                                -0.824920 -0.006844  0.004165  0.019789  0.144609 -0.002047  0.000027  0.010583  0.000056

  13.1   0     0.0224   -3.7872 -0.000000 -0.000000 -0.000001 -0.000002 -0.000004 -0.000009 -0.000018 -0.000039 -0.000081 -0.000188
                                -0.000376 -0.000866 -0.001237 -0.003038  0.004172 -0.004917  0.009004  0.003974  0.032352 -0.073592
                                 0.126254 -0.242679  0.654646 -0.638243  0.234928 -0.166126  0.332637 -0.165978  1.670683  3.111051
                                 2.915984 -0.000000 -0.000000 -0.000000 -0.000001 -0.000003 -0.000017 -0.000029 -0.000160 -0.000135
                                -0.000997  0.001959 -0.052555  0.087395 -0.165981  0.440761 -0.845219  0.973751 -0.914120  2.124247
                                -2.859780  1.679981 -0.674189  0.961676 -1.001606  0.643585  0.453231  2.060279  0.525774 -0.000001
                                -0.000001 -0.000012 -0.000009 -0.000042 -0.000053 -0.000283 -0.000212 -0.000330 -0.000625 -0.007088
                                -0.001395  0.007236  0.000039 -0.005915 -0.002000  0.005475 -0.001816 -0.048958 -0.000152  0.326116
                                 0.002278 -0.943385 -0.001952  2.872912  0.021355 -2.715450 -0.021694  0.582591  0.014653 -0.243153
                                 0.010930  0.343662  0.002100  0.095973  0.012201  0.339509 -0.000421  0.331824  0.020662 -0.000366
                                 0.000114 -0.001365  0.000324  0.031763  0.000594  0.088763  0.000242 -0.000418 -0.000026 -0.000106
                                 0.001951 -0.000048 -0.000410  0.015634 -0.000015 -0.000479 -0.000130 -0.001264 -0.003443 -0.075749
                                -1.373602 -6.551720 -0.000231  0.012277  0.178711  0.000652  0.000044  0.007557 -0.000041

                                   1 2px     1 2px     1 2px     1 2px     1 2px     1 2px     1 2px     1 2px     1 2px     1 2px  
                                   1 2px     1 2px     1 2px     1 2px     1 2px     1 2px     1 2px     1 2px     1 2px     1 2px  
                                   1 2px     1 2px     1 2px     1 2px     1 2px     1 2px     1 2px     1 2px     1 3d1+    1 3d1+ 
                                   1 3d1+    1 3d1+    1 3d1+    1 3d1+    1 3d1+    1 3d1+    1 3d1+    1 3d1+    1 3d1+    1 3d1+ 
                                   1 3d1+    1 3d1+    1 3d1+    1 3d1+    1 3d1+    1 3d1+    1 3d1+    1 3d1+    1 4f1+    1 4f3+ 
                                   1 4f1+    1 4f3+    1 4f1+    1 4f3+    1 4f1+    1 4f3+    1 5g1+    1 5g3+    1 5g1+    1 5g3+ 
                                   1 5g1+    1 5g3+    2 2px     2 2px     2 2px     2 3d1+    2 3d1+ 

   1.2   2   -84.3166 -284.2488  0.000014  0.000054  0.000210  0.000776  0.002803  0.009566  0.029702  0.080894  0.181362  0.307736
                                 0.343362  0.167548  0.035652 -0.004507  0.086131 -0.112497  0.094214 -0.051955  0.061359 -0.059715
                                 0.022510 -0.004461  0.001783 -0.001223  0.000128 -0.000024  0.000009 -0.000002  0.000000  0.000000
                                 0.000000  0.000004  0.000020  0.000030 -0.000003  0.000012 -0.000001 -0.000002 -0.000004  0.000005
                                -0.000014  0.000012 -0.000002  0.000003 -0.000000  0.000005 -0.000000  0.000000 -0.000006 -0.000001
                                 0.000000  0.000001  0.000001 -0.000000  0.000002  0.000000  0.000001  0.000000  0.000000 -0.000000
                                 0.000001  0.000000  0.000000 -0.000002 -0.000009  0.000000  0.000002

   2.2   2   -13.1599  -93.4679 -0.000006 -0.000023 -0.000090 -0.000333 -0.001207 -0.004151 -0.013037 -0.036477 -0.084867 -0.152430
                                -0.171643 -0.014139  0.012359  0.284592  0.033707  0.431640  0.030301  0.291089 -0.054105  0.125063
                                -0.038669  0.011800 -0.004512  0.003453 -0.000337  0.000095 -0.000028  0.000007  0.000000  0.000002
                                 0.000012  0.000045  0.000124  0.000311 -0.000004  0.000541  0.000535  0.000382 -0.000374  0.001069
                                -0.002652  0.002340 -0.000410  0.000253 -0.000104  0.000019  0.000003 -0.000001 -0.000308 -0.000169
                                 0.000239  0.000085 -0.000012 -0.000032  0.000010  0.000011  0.000015  0.000001  0.000021 -0.000002
                                -0.000011  0.000000 -0.000004 -0.000164 -0.000070  0.000036  0.000109

   3.2   2    -7.3787  -83.1292  0.000000  0.000000  0.000000  0.000001  0.000002  0.000006  0.000020  0.000055  0.000129  0.000231
                                 0.000261 -0.000069  0.000124 -0.000683  0.000604 -0.001938  0.001245 -0.001773  0.002784 -0.003416
                                 0.001754 -0.000338  0.000420 -0.000600 -0.000054 -0.000051  0.000002 -0.000000  0.000165  0.001479
                                 0.008697  0.034321  0.100471  0.221127 -0.003568  0.327696  0.332294  0.203004 -0.035764  0.108850
                                -0.102906  0.074030 -0.004323  0.000264 -0.000087  0.000046 -0.000014  0.000005  0.000613  0.000004
                                -0.000526 -0.000012  0.000035  0.000001 -0.000029 -0.000001 -0.000268 -0.000126  0.000010  0.000080
                                -0.000000 -0.000019  0.000074  0.000299  0.000133 -0.000153 -0.000175

   4.2   2    -1.4905  -33.5696  0.000002  0.000008  0.000031  0.000116  0.000419  0.001446  0.004545  0.012789  0.029876  0.054379
                                 0.060639  0.009521 -0.025309 -0.092879 -0.116268 -0.018309 -0.254835  0.073476 -0.389275  0.714373
                                -0.208676  0.596926  0.294911  0.038728  0.044472 -0.000366  0.001174 -0.000293 -0.000000 -0.000004
                                -0.000026 -0.000103 -0.000300 -0.000706  0.000040 -0.001037 -0.000968 -0.000040  0.000654  0.005292
                                -0.019186  0.023488 -0.003834 -0.000893 -0.001691 -0.000258 -0.000122  0.000015 -0.001000 -0.001578
                                -0.000399 -0.001822  0.000684 -0.000384  0.000113 -0.000044  0.000367  0.000011 -0.000786 -0.000013
                                -0.000014 -0.000000  0.002570  0.003392  0.000278 -0.001402 -0.000634

   5.2   +    -0.2941  -21.9362  0.000000  0.000000  0.000000  0.000000  0.000001  0.000002  0.000007  0.000019  0.000044  0.000086
                                 0.000072  0.000451 -0.000778  0.001308 -0.004201  0.008041 -0.010198  0.010147 -0.027516  0.040509
                                -0.025798  0.014219 -0.007090  0.004374 -0.021335 -0.022815 -0.002078 -0.000068 -0.000038 -0.000348
                                -0.002029 -0.008137 -0.023648 -0.057649  0.006992 -0.079374 -0.063537 -0.041339  0.331313 -0.769414
                                 2.897225 -2.776432  0.965950  0.227045  0.206749  0.158130  0.010471  0.003814  0.002678 -0.000010
                                 0.003962  0.000007 -0.002729 -0.000116 -0.002909 -0.000056 -0.000432  0.000543 -0.001175  0.002343
                                 0.000097  0.001955  0.011285  0.020974  0.013748 -0.003658 -0.002000

   6.2   0     0.0125   -5.3939 -0.000000 -0.000001 -0.000003 -0.000012 -0.000044 -0.000145 -0.000474 -0.001278 -0.003162 -0.005207
                                -0.008070  0.037715 -0.061497  0.132255 -0.309789  0.619190 -0.679039  0.650373 -1.463307  1.922778
                                -1.135792  0.368919 -0.642739  0.571741 -0.130876  0.426234 -0.181610  0.968891 -0.000001 -0.000008
                                -0.000045 -0.000189 -0.000522 -0.001622  0.000554 -0.002013 -0.001038 -0.003564  0.024658 -0.066866
                                 0.212164 -0.199936  0.049914 -0.000302  0.019946  0.022580 -0.000751 -0.049986  0.000503  0.000042
                                 0.001690 -0.000295  0.009148 -0.001443  0.014319 -0.000319 -0.000031  0.000006  0.001086  0.000041
                                 0.003650 -0.000014  0.001782 -0.001916 -0.061738 -0.000018  0.006018

   7.2   0     0.0454   -3.7177  0.000000  0.000000  0.000001  0.000003  0.000009  0.000036  0.000100  0.000327  0.000624  0.001580
                                -0.000045  0.031071 -0.051846  0.095649 -0.260274  0.493219 -0.571601  0.529755 -1.218275  1.630536
                                -0.939898  0.379459 -0.473332  0.474762 -0.154517  0.187592 -0.425948  0.368147  0.000002  0.000029
                                 0.000110  0.000697  0.000931  0.016227 -0.016128  0.013800 -0.011592  0.108267 -0.716783  2.059920
                                -6.241040  5.887381 -1.264017  0.512319 -0.565656  0.466133 -0.623129  1.255042 -0.000157 -0.000011
                                -0.001076  0.000077  0.008627  0.000302  0.007829  0.000152  0.000018 -0.000026  0.000234 -0.000114
                                 0.004381 -0.000077 -0.000448 -0.006822 -0.073264 -0.000030  0.006364

                                   1 2py     1 2py     1 2py     1 2py     1 2py     1 2py     1 2py     1 2py     1 2py     1 2py  
                                   1 2py     1 2py     1 2py     1 2py     1 2py     1 2py     1 2py     1 2py     1 2py     1 2py  
                                   1 2py     1 2py     1 2py     1 2py     1 2py     1 2py     1 2py     1 2py     1 3d1-    1 3d1- 
                                   1 3d1-    1 3d1-    1 3d1-    1 3d1-    1 3d1-    1 3d1-    1 3d1-    1 3d1-    1 3d1-    1 3d1- 
                                   1 3d1-    1 3d1-    1 3d1-    1 3d1-    1 3d1-    1 3d1-    1 3d1-    1 3d1-    1 4f1-    1 4f3- 
                                   1 4f1-    1 4f3-    1 4f1-    1 4f3-    1 4f1-    1 4f3-    1 5g1-    1 5g3-    1 5g1-    1 5g3- 
                                   1 5g1-    1 5g3-    2 2py     2 2py     2 2py     2 3d1-    2 3d1- 

   1.3   2   -84.3189 -284.2511  0.000014  0.000054  0.000210  0.000776  0.002803  0.009566  0.029702  0.080893  0.181360  0.307733
                                 0.343369  0.167565  0.035638 -0.004514  0.086129 -0.112504  0.094219 -0.051957  0.061368 -0.059722
                                 0.022516 -0.004460  0.001787 -0.001226  0.000128 -0.000024  0.000009 -0.000002  0.000000  0.000000
                                 0.000000  0.000003  0.000019  0.000030 -0.000002  0.000013 -0.000001 -0.000003 -0.000001 -0.000003
                                 0.000006 -0.000006  0.000001  0.000001  0.000001  0.000005 -0.000000  0.000000  0.000004 -0.000000
                                 0.000002  0.000001  0.000001 -0.000000  0.000002  0.000000  0.000001  0.000000 -0.000000 -0.000000
                                 0.000001  0.000000  0.000000 -0.000000 -0.000009 -0.000000  0.000001

   2.3   2   -13.1676  -93.4687 -0.000006 -0.000023 -0.000090 -0.000333 -0.001206 -0.004150 -0.013034 -0.036468 -0.084846 -0.152391
                                -0.171608 -0.014193  0.012403  0.284459  0.033768  0.431278  0.030509  0.291078 -0.053468  0.124519
                                -0.038386  0.011652 -0.004442  0.003333 -0.000350  0.000083 -0.000027  0.000007  0.000000  0.000002
                                 0.000012  0.000044  0.000122  0.000309 -0.000005  0.000537  0.000522  0.000336 -0.000251  0.000784
                                -0.001949  0.001741 -0.000312  0.000187 -0.000082  0.000007  0.000003 -0.000001 -0.000323 -0.000166
                                 0.000125  0.000080 -0.000031 -0.000032  0.000006  0.000011  0.000015  0.000001  0.000003 -0.000002
                                -0.000009  0.000000 -0.000003 -0.000118 -0.000038  0.000027  0.000083

   3.3   2    -7.3753  -83.0776  0.000000  0.000000  0.000000  0.000000  0.000002  0.000006  0.000019  0.000053  0.000125  0.000224
                                 0.000253 -0.000065  0.000120 -0.000656  0.000586 -0.001868  0.001198 -0.001740  0.002665 -0.003294
                                 0.001697 -0.000299  0.000393 -0.000558 -0.000042 -0.000039  0.000002 -0.000000  0.000165  0.001476
                                 0.008682  0.034261  0.100289  0.220705 -0.003520  0.327206  0.332230  0.204026 -0.036235  0.110906
                                -0.106729  0.077316 -0.004973  0.000232 -0.000177  0.000002 -0.000018  0.000004  0.000600  0.000004
                                -0.000528 -0.000013  0.000038  0.000001 -0.000027 -0.000001 -0.000343 -0.000125  0.000001  0.000079
                                -0.000003 -0.000019  0.000068  0.000274  0.000118 -0.000149 -0.000165

   4.3   2    -1.4929  -33.5882  0.000002  0.000008  0.000031  0.000116  0.000420  0.001447  0.004548  0.012799  0.029898  0.054421
                                 0.060680  0.009701 -0.025605 -0.092458 -0.117678 -0.015701 -0.257927  0.076234 -0.396755  0.723730
                                -0.213564  0.600544  0.291530  0.041036  0.044237  0.000217  0.001240 -0.000300 -0.000001 -0.000005
                                -0.000028 -0.000111 -0.000326 -0.000723 -0.000006 -0.001092 -0.001098  0.000285 -0.001296  0.010998
                                -0.034670  0.037619 -0.006269  0.001805 -0.002715 -0.000299 -0.000044  0.000002 -0.004544 -0.001657
                                -0.007198 -0.002026 -0.003541 -0.000559 -0.000128 -0.000049  0.000255  0.000009 -0.000561 -0.000013
                                -0.000267  0.000003  0.002266  0.001604  0.000046 -0.001092  0.000530

   5.3   0     0.0124   -5.4500 -0.000000 -0.000001 -0.000003 -0.000012 -0.000044 -0.000146 -0.000477 -0.001285 -0.003177 -0.005245
                                -0.008064  0.036890 -0.060125  0.129712 -0.302910  0.606122 -0.663927  0.636358 -1.430949  1.879542
                                -1.110755  0.358876 -0.631175  0.559888 -0.125808  0.427604 -0.168918  0.954793  0.000001  0.000010
                                 0.000061  0.000237  0.000718  0.001361  0.000232  0.002120  0.002347 -0.001634  0.009194 -0.031600
                                 0.075046 -0.067766  0.002071 -0.012725  0.007949  0.008131 -0.007047 -0.061375 -0.000033  0.000022
                                -0.001095 -0.000381  0.001898 -0.001628  0.009885 -0.000442  0.000001 -0.000026  0.001207 -0.000090
                                 0.003720 -0.000145  0.000920 -0.003873 -0.064177  0.000170  0.006447

   6.3   0     0.0423   -4.7957  0.000000  0.000000  0.000001  0.000004  0.000012  0.000046  0.000126  0.000414  0.000786  0.002003
                                -0.000099  0.040111 -0.066926  0.123581 -0.336081  0.637145 -0.738343  0.684613 -1.575134  2.108649
                                -1.216105  0.491039 -0.610047  0.610746 -0.208282  0.215771 -0.543453  0.492499 -0.000007 -0.000058
                                -0.000390 -0.001354 -0.004828 -0.000351 -0.011543 -0.007490 -0.024588  0.078398 -0.507908  1.501073
                                -4.414762  4.153066 -0.805344  0.469796 -0.395358  0.460641 -0.449925  1.104946  0.000559 -0.000011
                                 0.000678  0.000128  0.010063  0.000390  0.006866  0.000197 -0.000320  0.000127 -0.000856  0.000512
                                 0.003929  0.000616  0.002813 -0.000875 -0.068155 -0.000882  0.005803

                                   1 3d2-    1 3d2-    1 3d2-    1 3d2-    1 3d2-    1 3d2-    1 3d2-    1 3d2-    1 3d2-    1 3d2- 
                                   1 3d2-    1 3d2-    1 3d2-    1 3d2-    1 3d2-    1 3d2-    1 3d2-    1 3d2-    1 3d2-    1 3d2- 
                                   1 4f2-    1 4f2-    1 4f2-    1 4f2-    1 5g2-    1 5g4-    1 5g2-    1 5g4-    1 5g2-    1 5g4- 
                                   2 3d2-    2 3d2- 

   1.4   2    -7.3815  -83.0714  0.000165  0.001476  0.008681  0.034256  0.100275  0.220692 -0.003531  0.327180  0.332142  0.204096
                                -0.036578  0.112119 -0.108882  0.078780 -0.004872  0.000548 -0.000221  0.000036 -0.000011  0.000002
                                 0.000309 -0.000115  0.000068 -0.000014 -0.000217 -0.000157  0.000058  0.000044 -0.000002 -0.000016
                                 0.000007 -0.000047

   2.4   0     0.0419   -5.0374 -0.000009 -0.000069 -0.000457 -0.001614 -0.005612 -0.001892 -0.011731 -0.009840 -0.027074  0.079620
                                -0.514080  1.522764 -4.452050  4.182358 -0.796321  0.485279 -0.403150  0.441739 -0.456136  1.138564
                                 0.000241 -0.000191 -0.000740 -0.008689 -0.000088 -0.000182  0.000008 -0.000440  0.000010 -0.000043
                                 0.000320 -0.000491

   3.4   0     0.0737  -14.0282  0.000025  0.000236  0.001311  0.005519  0.014923  0.050545 -0.020504  0.060996  0.026094  0.136441
                                -0.927841  2.567650 -8.118656  7.691202 -1.866853  0.397630 -0.772912  0.218997 -0.902731  0.751196
                                -0.000660 -0.000086  0.004212  0.013603  0.000268  0.000578  0.000011  0.001191 -0.000502  0.000221
                                -0.001004  0.001364

 HOMO     11.1    -0.216578 =      -5.8934eV
 LUMO      5.3     0.012382 =       0.3369eV
 LUMO-HOMO         0.228960 =       6.2303eV


 **********************************************************************************************************************************
 DATASETS  * FILE   NREC   LENGTH (MB)   RECORD NAMES
              1      22       21.76       500      610      700      900      950      970     1000      129      960     1700   
                                          VAR    BASINP    GEOM    SYMINP    ZMAT    AOBASIS   BASIS     P2S    ABASIS    OPER   
                                         1101     1401     1411     1412     1650     1100     1400     1410     1200     1210   
                                          SR      EKINR    POTR     PVPR    MOLCAS      S      EKIN      POT      H0       H01  
                                         1080     1600   
                                         AOSYM     SMH  

              2       4        3.56       700     1000      520     2100   
                                         GEOM     BASIS   MCVARS     RHF  

 PROGRAMS   *        TOTAL       RHF       INT
 CPU TIMES  *        65.04      2.85     61.76
 REAL TIME  *        69.07 SEC
 DISK USED  *         3.05 GB      
 SF USED    *         0.11 MB      
 GA USED    *         0.00 MB       (max)       0.00 MB       (current)
 **********************************************************************************************************************************
 SETTING SCF            =     -3596.67470885  AU                              
 SETTING _CC_NORM_MAX   =         2.00000000                                  


 PROGRAM * CCSD (Restricted open-shell coupled cluster)     Authors: C. Hampel, H.-J. Werner, 1991, M. Deegan, P.J. Knowles, 1992


 Convergence thresholds:  THRVAR = 1.00D-08  THRDEN = 1.00D-06

 CCSD(T)     terms to be evaluated (factor= 1.000)


 Number of closed-shell orbitals:  20 (  11   4   4   1 )
 Number of active  orbitals:        1 (   0   1   0   0 )
 Number of external orbitals:     274 ( 118  62  63  31 )

 Memory could be reduced to 193.63 Mwords without degradation in triples

 Number of N-1 electron functions:              41
 Number of N-2 electron functions:             820
 Number of singly external CSFs:              3729
 Number of doubly external CSFs:          12233788
 Total number of CSFs:                    12237517

 Molecular orbitals read from record     2100.2  Type=RHF/CANONICAL (state 1.2)

 Integral transformation finished. Total CPU:   5.85 sec, npass=  1  Memory used:  21.70 MW

 Starting RMP2 calculation

 Wavefunction is spin-projected

 ITER.      SQ.NORM     CORR.ENERGY   TOTAL ENERGY   ENERGY CHANGE        DEN1      VAR(S)    VAR(P)  DIIS     TIME
   1      1.12759401    -1.20920193 -3597.88391078    -1.20920193    -0.00695620  0.25D-04  0.35D-02  1  1     7.44
   2      1.13899949    -1.21719269 -3597.89190155    -0.00799077    -0.00032559  0.19D-05  0.28D-03  2  2     8.99
   3      1.14317102    -1.21869992 -3597.89340877    -0.00150723    -0.00001486  0.74D-07  0.13D-04  3  3    10.55
   4      1.14399811    -1.21887068 -3597.89357953    -0.00017076    -0.00000044  0.16D-08  0.37D-06  4  4    12.27
   5      1.14406336    -1.21888109 -3597.89358994    -0.00001040    -0.00000002  0.12D-09  0.13D-07  5  5    14.14
   6      1.14406688    -1.21888126 -3597.89359011    -0.00000017    -0.00000000  0.17D-10  0.46D-09  6  6    16.16

 Norm of t1 vector:      0.02728100      S-energy:    -0.00190157      T1 diagnostic:  0.00003747
 Norm of t2 vector:      0.37857975      P-energy:    -1.21697969
                                         Alpha-Beta:  -0.84142805
                                         Alpha-Alpha: -0.19644496
                                         Beta-Beta:   -0.17910668

 Spin contamination <S**2-Sz**2-Sz>     0.00000000
  Reference energy                  -3596.674708850975
  RHF-RMP2 correlation energy          -1.218881255284
 !RHF-RMP2 energy                   -3597.893590106259
 (NB above energy spin projected)

 Starting RCCSD calculation

 ITER.      SQ.NORM     CORR.ENERGY   TOTAL ENERGY   ENERGY CHANGE        DEN1      VAR(S)    VAR(P)  DIIS     TIME
   1      1.12345428    -1.16450895 -3597.83921780    -1.16450895    -0.01842596  0.11D-02  0.41D-02  0  0    32.26
   2      1.13955510    -1.18129590 -3597.85600475    -0.01678695    -0.00217025  0.41D-03  0.10D-02  1  1    48.23
   3      1.14934819    -1.18414255 -3597.85885140    -0.00284665    -0.00076419  0.23D-03  0.42D-03  2  2    64.45
   4      1.16348684    -1.18783184 -3597.86254069    -0.00368929    -0.00017026  0.70D-04  0.83D-04  3  3    80.63
   5      1.17342817    -1.18898104 -3597.86368989    -0.00114920    -0.00003043  0.15D-04  0.13D-04  4  4    97.40
   6      1.17688148    -1.18928296 -3597.86399181    -0.00030192    -0.00000953  0.44D-05  0.46D-05  5  5   113.39
   7      1.17833620    -1.18938441 -3597.86409326    -0.00010145    -0.00000340  0.15D-05  0.18D-05  6  6   129.50
   8      1.17898803    -1.18940549 -3597.86411434    -0.00002108    -0.00000090  0.48D-06  0.40D-06  7  7   146.30
   9      1.17920545    -1.18941160 -3597.86412046    -0.00000611    -0.00000033  0.22D-06  0.12D-06  8  8   162.61
  10      1.17928123    -1.18941222 -3597.86412107    -0.00000061    -0.00000014  0.10D-06  0.43D-07  9  9   179.59
  11      1.17931438    -1.18941253 -3597.86412138    -0.00000031    -0.00000007  0.48D-07  0.23D-07 10 10   197.26
  12      1.17933281    -1.18941282 -3597.86412167    -0.00000029    -0.00000003  0.21D-07  0.12D-07 11 11   218.51
  13      1.17934263    -1.18941300 -3597.86412185    -0.00000018    -0.00000002  0.11D-07  0.70D-08 12 12   238.30
  14      1.17935060    -1.18941341 -3597.86412226    -0.00000042    -0.00000001  0.58D-08  0.44D-08 13 13   263.83
  15      1.17935632    -1.18941380 -3597.86412265    -0.00000039    -0.00000001  0.34D-08  0.28D-08 14 14   280.07

 Norm of t1 vector:      0.12093556      S-energy:    -0.00196778      T1 diagnostic:  0.01278689
                                                                       D1 diagnostic:  0.07341100
 Norm of t2 vector:      0.40587056      P-energy:    -1.18744602
                                         Alpha-Beta:  -0.84114168
                                         Alpha-Alpha: -0.18125531
                                         Beta-Beta:   -0.16504903

 Doubles amplitudes (print threshold =  0.500E-01):

         I         J         SYM. A    SYM. B    A         B      T(IJ, AB) [Alpha-Beta]

        11        11         1         1         6         6     -0.05761724
        11        11         4         4         2         2     -0.05876178

 Spin contamination <S**2-Sz**2-Sz>     0.00000000

 Memory could be reduced to 210.86 Mwords without degradation in triples
 

  Correlated core orbitals:             1.1       2.1       3.1       4.1       5.1       6.1       7.1       8.1       9.1       1.2
                                        2.2       3.2       4.2       1.3       2.3       3.3       4.3       1.4
  Orbital energies:                  -665.0646  -94.7876  -84.3175  -16.6770  -13.1537   -7.3865   -7.3774   -2.5263   -1.5708  -84.3198
                                      -13.1624   -7.3927   -1.5256  -84.3194  -13.1681   -7.3765   -1.4977   -7.3827
 
  RCCSD core-core energy               -0.956157886742
  RCCSD core-valence energy            -0.140240024703
  RCCSD valence correlation energy     -0.093015889302
 

 RESULTS
 =======

  Reference energy                  -3596.674708850975
  RCCSD singles energy                 -0.001967775983
  RCCSD pair energy                    -1.187446024765
  RCCSD correlation energy             -1.189413800748
  Triples (T) contribution             -0.023382269320
  Total correlation energy             -1.212796070068
 
  RHF-RCCSD energy                  -3597.864122651722
  RHF-RCCSD[T] energy               -3597.888157883373
  RHF-RCCSD-T energy                -3597.887355815128
 !RHF-RCCSD(T) energy               -3597.887504921042

 Program statistics:

 Available memory in ccsd:               999996162
 Min. memory needed in ccsd:              33892699
 Max. memory used in ccsd:                49575798
 Max. memory used in cckext:              39474857 (15 integral passes)
 Max. memory used in cckint:              21696449 ( 1 integral passes)



 **********************************************************************************************************************************
 DATASETS  * FILE   NREC   LENGTH (MB)   RECORD NAMES
              1      22       21.76       500      610      700      900      950      970     1000      129      960     1700   
                                          VAR    BASINP    GEOM    SYMINP    ZMAT    AOBASIS   BASIS     P2S    ABASIS    OPER   
                                         1101     1401     1411     1412     1650     1100     1400     1410     1200     1210   
                                          SR      EKINR    POTR     PVPR    MOLCAS      S      EKIN      POT      H0       H01  
                                         1080     1600   
                                         AOSYM     SMH  

              2       4        3.56       700     1000      520     2100   
                                         GEOM     BASIS   MCVARS     RHF  

 PROGRAMS   *        TOTAL  RCCSD(T)       RHF       INT
 CPU TIMES  *       652.81    587.71      2.85     61.76
 REAL TIME  *       892.63 SEC
 DISK USED  *        42.90 GB      
 SF USED    *         4.00 GB      
 GA USED    *         0.00 MB       (max)       0.00 MB       (current)
 **********************************************************************************************************************************
 SETTING CCSD           =     -3597.88750492  AU                              
 SETTING BIND           =         0.00598293  AU                              
 Output type csv         
                                                                                                                                                                                                                                                                

  1.30,SCF,CCSD,BIND
   1.3,   -3596.674709,   -3597.887505,   0.00598293
                                                  

 RCCSD(T)/USERDEF energy=  -3597.887504921042

        RCCSD(T)        RHF-SCF 
  -3597.88750492  -3596.67470885
 **********************************************************************************************************************************
 Molpro calculation terminated
 Variable memory released
