
 Primary working directories    : /global/cscratch1/sd/haihan
 Secondary working directories  : /global/cscratch1/sd/haihan
 Wavefunction directory         : /global/homes/h/haihan/Research/ECP/f_group_element_ecps/Y/Molpro/molecule/YH/UC/wfu/
 Main file repository           : /global/cscratch1/sd/haihan/

 SHA1      : 19cd028119e0e09f93f0674bd8af7968d9b3eff6
 NAME      : 2015.1.36
 ARCHNAME  : linux/x86_64
 FC        : /opt/cray/pe/craype/2.5.14/bin/ftn
 BLASLIB   : -L/opt/intel/compilers_and_libraries_2018.1.163/linux/mkl/lib/intel64 -Wl,-_start-group -lmkl_intel_ilp64 -lmkl_intel_thread -lmkl_core -Wl,-_end-group -liomp5
 id        : lbl

 Nodes     nprocs
 nid12684    11
 Number of processes for MPI-2 version of Molpro:   nprocs(total)=   12   nprocs(compute)=   11   nprocs(helper)=    1

 Using customized tuning parameters: mindgm=7; mindgv=16; mindgc=1; mindgr=1; noblas=0; minvec=7
 default implementation of scratch files=sf  

 ***,Calculation for all-electron YH molecule, SCF and CCSD(T)
 memory,1,g
 gthresh,twoint=1.0E-12
 gthresh,throvl=1.0E-12
 
 set,dkroll=1,dkho=10,dkhp=4
 basis={
 Including file /global/u2/h/haihan/Research/ECP/f_group_element_ecps/Y/Molpro/molecule/YH/UC/r_2.50/../generate/Y-aug-cc-pwCVTZ.basis
 Including file /global/u2/h/haihan/Research/ECP/f_group_element_ecps/Y/Molpro/molecule/YH/UC/r_2.50/../generate/H-aug-cc-pVTZ.basis
 }
 
 Y_ccsd=-3383.299108
 H_ccsd=-0.49982785
 
                                                                                 !These are the wf cards parameters
 ne = 40
 symm = 1
 ss= 0
 
                                                                                 !There are irrep cards paramters
 A1=11
 B1=4
 B2=4
 A2=1
 
 
 geometry={
     2
     YH molecule
     Y 0.0 0.0 0.0
     H 0.0 0.0 2.50
 }
 {rhf,nitord=20;
  maxit,200;
  wf,ne,symm,ss
  occ,A1,B1,B2,A2
  closed,A1,B1,B2,A2
  print,orbitals=2
 }
 scf=energy
 _CC_NORM_MAX=2.0
 {rccsd(t);maxit,100;core,7,3,3,1}
 ccsd=energy
 bind=ccsd-Y_ccsd-H_ccsd
 
 
 table,2.50,scf,ccsd,bind
 save
 type,csv
 

 Variables initialized (889), CPU time= 0.01 sec
 Commands  initialized (702), CPU time= 0.01 sec, 572 directives.
 Default parameters read. Elapsed time= 0.15 sec

 Checking input...
 Passed
1


                                         ***  PROGRAM SYSTEM MOLPRO  ***
                                       Copyright, TTI GmbH Stuttgart, 2015
                                    Version 2015.1 linked Dec 29 2018 15:55:43


 **********************************************************************************************************************************
 LABEL *   Calculation for all-electron YH molecule, SCF and CCSD(T)                     
  64 bit mpp version                                                                     DATE: 09-Sep-22          TIME: 10:13:12  
 **********************************************************************************************************************************

 SHA1:             19cd028119e0e09f93f0674bd8af7968d9b3eff6
 **********************************************************************************************************************************

 THRESHOLDS:

 ZERO    =  1.00D-12  ONEINT  =  1.00D-12  TWOINT  =  1.00D-12  PREFAC  =  1.00D-14  LOCALI  =  1.00D-09  EORDER  =  1.00D-04
 ENERGY  =  0.00D+00  ETEST   =  0.00D+00  EDENS   =  0.00D+00  THRDEDEF=  1.00D-06  GRADIENT=  1.00D-02  STEP    =  1.00D-03
 ORBITAL =  1.00D-05  CIVEC   =  1.00D-05  COEFF   =  1.00D-04  PRINTCI =  5.00D-02  PUNCHCI =  9.90D+01  OPTGRAD =  3.00D-04
 OPTENERG=  1.00D-06  OPTSTEP =  3.00D-04  THRGRAD =  1.00D-10  COMPRESS=  1.00D-11  VARMIN  =  1.00D-07  VARMAX  =  1.00D-03
 THRDOUB =  0.00D+00  THRDIV  =  1.00D-05  THRRED  =  1.00D-07  THRPSP  =  1.00D+00  THRDC   =  1.00D-10  THRCS   =  1.00D-10
 THRNRM  =  1.00D-08  THREQ   =  0.00D+00  THRDE   =  1.00D+00  THRREF  =  1.00D-05  SPARFAC =  1.00D+00  THRDLP  =  1.00D-07
 THRDIA  =  1.00D-10  THRDLS  =  1.00D-07  THRGPS  =  0.00D+00  THRKEX  =  0.00D+00  THRDIS  =  2.00D-01  THRVAR  =  1.00D-10
 THRLOC  =  1.00D-06  THRGAP  =  1.00D-06  THRLOCT = -1.00D+00  THRGAPT = -1.00D+00  THRORB  =  1.00D-06  THRMLTP =  0.00D+00
 THRCPQCI=  1.00D-10  KEXTA   =  0.00D+00  THRCOARS=  0.00D+00  SYMTOL  =  1.00D-06  GRADTOL =  1.00D-06  THROVL  =  1.00D-08
 THRORTH =  1.00D-08  GRID    =  1.00D-06  GRIDMAX =  1.00D-03  DTMAX   =  0.00D+00  THROCCDE=  1.00D-01  THROCCDE=  1.00D-01



 THRESHOLDS:

 ZERO    =  1.00D-12  ONEINT  =  1.00D-12  TWOINT  =  1.00D-12  PREFAC  =  1.00D-14  LOCALI  =  1.00D-09  EORDER  =  1.00D-04
 ENERGY  =  0.00D+00  ETEST   =  0.00D+00  EDENS   =  0.00D+00  THRDEDEF=  1.00D-06  GRADIENT=  1.00D-02  STEP    =  1.00D-03
 ORBITAL =  1.00D-05  CIVEC   =  1.00D-05  COEFF   =  1.00D-04  PRINTCI =  5.00D-02  PUNCHCI =  9.90D+01  OPTGRAD =  3.00D-04
 OPTENERG=  1.00D-06  OPTSTEP =  3.00D-04  THRGRAD =  1.00D-10  COMPRESS=  1.00D-11  VARMIN  =  1.00D-07  VARMAX  =  1.00D-03
 THRDOUB =  0.00D+00  THRDIV  =  1.00D-05  THRRED  =  1.00D-07  THRPSP  =  1.00D+00  THRDC   =  1.00D-10  THRCS   =  1.00D-10
 THRNRM  =  1.00D-08  THREQ   =  0.00D+00  THRDE   =  1.00D+00  THRREF  =  1.00D-05  SPARFAC =  1.00D+00  THRDLP  =  1.00D-07
 THRDIA  =  1.00D-10  THRDLS  =  1.00D-07  THRGPS  =  0.00D+00  THRKEX  =  0.00D+00  THRDIS  =  2.00D-01  THRVAR  =  1.00D-10
 THRLOC  =  1.00D-06  THRGAP  =  1.00D-06  THRLOCT = -1.00D+00  THRGAPT = -1.00D+00  THRORB  =  1.00D-06  THRMLTP =  0.00D+00
 THRCPQCI=  1.00D-10  KEXTA   =  0.00D+00  THRCOARS=  0.00D+00  SYMTOL  =  1.00D-06  GRADTOL =  1.00D-06  THROVL  =  1.00D-12
 THRORTH =  1.00D-08  GRID    =  1.00D-06  GRIDMAX =  1.00D-03  DTMAX   =  0.00D+00  THROCCDE=  1.00D-01  THROCCDE=  1.00D-01


 SETTING DKROLL         =         1.00000000                                  
 SETTING DKHO           =        10.00000000                                  
 SETTING DKHP           =         4.00000000                                  

 Variable memory set to 1000000000 words,  buffer space   230000 words

 SETTING BASIS          =    USERDEF
 SETTING Y_CCSD         =     -3383.29910800                                  
 SETTING H_CCSD         =        -0.49982785                                  
 SETTING NE             =        40.00000000                                  
 SETTING SYMM           =         1.00000000                                  
 SETTING SS             =     0.00000000D+00                                  
 SETTING A1             =        11.00000000                                  
 SETTING B1             =         4.00000000                                  
 SETTING B2             =         4.00000000                                  
 SETTING A2             =         1.00000000                                  

Geometry recognized as XYZ



 Recomputing integrals since basis changed


 Using spherical harmonics



 PROGRAM * SEWARD (Integral evaluation for generally contracted gaussian basis sets)     Author: Roland Lindh, 1990

 Geometry written to block  1 of record 700


 Point group  C2v 



 ATOMIC COORDINATES

 NR  ATOM    CHARGE       X              Y              Z

   1  Y      39.00    0.000000000    0.000000000    0.000000000
   2  H       1.00    0.000000000    0.000000000    4.724315311

 Bond lengths in Bohr (Angstrom)

 1-2  4.724315311
     ( 2.500000000)

 NUCLEAR CHARGE:                   40
 NUMBER OF PRIMITIVE AOS:         341
 NUMBER OF SYMMETRY AOS:          289
 NUMBER OF CONTRACTIONS:          289   ( 127A1  +  65B1  +  65B2  +  32A2  )
 NUMBER OF CORE ORBITALS:          18   (   9A1  +   4B1  +   4B2  +   1A2  )
 NUMBER OF VALENCE ORBITALS:        7   (   4A1  +   1B1  +   1B2  +   1A2  )


 NUCLEAR REPULSION ENERGY    8.25516449

 One-electron integrals computed with SEWARD

 10nd-order Douglas-Kroll-Hess method activated. McWeeny DKH parametrization is used.

 Computing Douglas-Kroll / X2C integrals

 AO integral compression algorithm  1   Integral accuracy      1.0D-12

     692.847 MB (compressed) written to integral file ( 33.7%)

     Node minimum: 23.855 MB, node maximum: 192.414 MB


 NUMBER OF SORTED TWO-ELECTRON INTEGRALS:   20691084.     BUFFER LENGTH:  32768
 NUMBER OF SEGMENTS:   2  SEGMENT LENGTH:   15985734      RECORD LENGTH: 524288

 Memory used in sort:      16.54 MW

 SORT1 READ   256676862. AND WROTE     7875032. INTEGRALS IN     24 RECORDS. CPU TIME:     3.08 SEC, REAL TIME:     3.66 SEC
 SORT2 READ    85522757. AND WROTE   227370829. INTEGRALS IN   1353 RECORDS. CPU TIME:     0.56 SEC, REAL TIME:     0.76 SEC

 Node minimum:    20662678.  Node maximum:    20691084. integrals

 OPERATOR DM      FOR CENTER  0  COORDINATES:    0.000000    0.000000    0.000000

 EXTRA SYMMETRY OF AOS IN SYMMETRY 1:   1 1 1 1 1 1 1 1 1 1   1 1 1 1 1 1 1 1 1 1   1 1 1 1 1 1 1 1 1 1   1 1 1 1 1 1 1 1 1 1
                                        1 1 1 1 1 1 1 1 1 1   1 1 1 1 1 1 1 1 2 1   2 1 2 1 2 1 2 1 2 1   2 1 2 1 2 1 2 1 2 1
                                        2 1 2 1 2 1 2 1 2 1   2 1 2 1 2 1 2 1 2 1   2 1 2 1 2 1 3 2 1 3   2 1 3 2 1 1 1 1 1 1
                                        1 1 1 1 2 1 2
 EXTRA SYMMETRY OF AOS IN SYMMETRY 2:   1 1 1 1 1 1 1 1 1 1   1 1 1 1 1 1 1 1 1 1   1 1 1 1 1 1 1 1 1 1   1 1 1 1 1 1 1 1 1 1
                                        1 1 1 1 1 1 1 2 1 2   1 2 1 2 1 2 1 2 1 2   1 1 1 1 1
 EXTRA SYMMETRY OF AOS IN SYMMETRY 3:   1 1 1 1 1 1 1 1 1 1   1 1 1 1 1 1 1 1 1 1   1 1 1 1 1 1 1 1 1 1   1 1 1 1 1 1 1 1 1 1
                                        1 1 1 1 1 1 1 2 1 2   1 2 1 2 1 2 1 2 1 2   1 1 1 1 1
 EXTRA SYMMETRY OF AOS IN SYMMETRY 4:   1 1 1 1 1 1 1 1 1 1   1 1 1 1 1 1 1 1 1 1   1 1 1 1 1 2 1 2 1 2   1 1

 Eigenvalues of metric

         1 0.107E-06 0.187E-06 0.135E-05 0.265E-05 0.393E-05 0.143E-04 0.159E-04 0.168E-04
         2 0.189E-06 0.268E-05 0.145E-04 0.168E-04 0.686E-04 0.144E-03 0.167E-03 0.795E-03
         3 0.189E-06 0.268E-05 0.145E-04 0.168E-04 0.686E-04 0.144E-03 0.167E-03 0.795E-03
         4 0.168E-04 0.686E-04 0.167E-03 0.105E-02 0.382E-02 0.798E-02 0.224E-01 0.452E-01


 **********************************************************************************************************************************
 DATASETS  * FILE   NREC   LENGTH (MB)   RECORD NAMES
              1      22       21.69       500      610      700      900      950      970     1000      129      960     1700   
                                          VAR    BASINP    GEOM    SYMINP    ZMAT    AOBASIS   BASIS     P2S    ABASIS    OPER   
                                         1101     1401     1411     1412     1650     1100     1400     1410     1200     1210   
                                          SR      EKINR    POTR     PVPR    MOLCAS      S      EKIN      POT      H0       H01  
                                         1080     1600   
                                         AOSYM     SMH  

 PROGRAMS   *        TOTAL       INT
 CPU TIMES  *        49.56     49.22
 REAL TIME  *        52.00 SEC
 DISK USED  *         1.77 GB      
 GA USED    *         0.00 MB       (max)       0.00 MB       (current)
 **********************************************************************************************************************************


 PROGRAM * RHF-SCF (CLOSED SHELL)       Authors: W. Meyer, H.-J. Werner


 NUMBER OF ELECTRONS:      20+   20-    SPACE SYMMETRY=1    SPIN SYMMETRY: Singlet 
 CONVERGENCE THRESHOLDS:    1.00E-05 (Density)    1.00E-07 (Energy)
 MAX. NUMBER OF ITERATIONS:      200
 INTERPOLATION TYPE:            DIIS
 INTERPOLATION STEPS:              2 (START)      1 (STEP)
 LEVEL SHIFTS:                  0.00 (CLOSED)  0.00 (OPEN) 

 Number of closed-shell orbitals:   20 (  11   4   4   1 )


 Orbital guess generated from atomic densities. Full valence occupancy:   13   5   5   2

 Molecular orbital dump at record        2100.2

 ITERATION    DDIFF          GRAD             ENERGY        2-EL.EN.            DIPOLE MOMENTS         DIIS   ORB.
    1      0.000D+00      0.000D+00     -3383.37273141   2569.114175    0.00000    0.00000   -2.08643    0    start
    2      0.000D+00      0.564D-02     -3383.51530400   2598.694452    0.00000    0.00000   -1.00372    1    diag
    3      0.243D-01      0.326D-02     -3383.52326414   2593.328044    0.00000    0.00000   -1.19355    2    diag
    4      0.696D-02      0.598D-03     -3383.52459576   2593.360832    0.00000    0.00000   -1.23981    3    diag
    5      0.196D-02      0.170D-03     -3383.52497789   2593.578017    0.00000    0.00000   -1.27253    4    diag
    6      0.864D-03      0.654D-04     -3383.52504254   2593.663328    0.00000    0.00000   -1.30232    5    diag
    7      0.375D-03      0.237D-04     -3383.52505151   2593.682356    0.00000    0.00000   -1.31642    6    diag
    8      0.570D-04      0.105D-04     -3383.52505367   2593.694811    0.00000    0.00000   -1.32364    7    diag
    9      0.526D-04      0.621D-05     -3383.52505449   2593.703320    0.00000    0.00000   -1.32751    8    diag
   10      0.452D-04      0.256D-05     -3383.52505468   2593.710960    0.00000    0.00000   -1.32967    9    orth
   11      0.235D-04      0.560D-06     -3383.52505468   2593.712142    0.00000    0.00000   -1.33006    9    diag
   12      0.434D-05      0.744D-07     -3383.52505468   2593.712175    0.00000    0.00000   -1.33008    0    orth

 Final occupancy:  11   4   4   1

 !RHF STATE 1.1 Energy              -3383.525054681456
 Nuclear energy                         8.25516449
 One-electron energy                -4688.63630655
 Two-electron energy                 1296.85608738
 Virial quotient                       -0.91554241
 !RHF STATE 1.1 Dipole moment           0.00000000     0.00000000    -1.33007818
 Dipole moment /Debye                   0.00000000     0.00000000    -3.38050010

 ELECTRON ORBITALS
 =================


   Orb  Occ    Energy  Couls-En    Coefficients

                                   1 1s      1 1s      1 1s      1 1s      1 1s      1 1s      1 1s      1 1s      1 1s      1 1s   
                                   1 1s      1 1s      1 1s      1 1s      1 1s      1 1s      1 1s      1 1s      1 1s      1 1s   
                                   1 1s      1 1s      1 1s      1 1s      1 1s      1 1s      1 1s      1 1s      1 1s      1 1s   
                                   1 1s      1 2pz     1 2pz     1 2pz     1 2pz     1 2pz     1 2pz     1 2pz     1 2pz     1 2pz  
                                   1 2pz     1 2pz     1 2pz     1 2pz     1 2pz     1 2pz     1 2pz     1 2pz     1 2pz     1 2pz  
                                   1 2pz     1 2pz     1 2pz     1 2pz     1 2pz     1 2pz     1 2pz     1 3d0     1 3d2+    1 3d0  
                                   1 3d2+    1 3d0     1 3d2+    1 3d0     1 3d2+    1 3d0     1 3d2+    1 3d0     1 3d2+    1 3d0  
                                   1 3d2+    1 3d0     1 3d2+    1 3d0     1 3d2+    1 3d0     1 3d2+    1 3d0     1 3d2+    1 3d0  
                                   1 3d2+    1 3d0     1 3d2+    1 3d0     1 3d2+    1 3d0     1 3d2+    1 3d0     1 3d2+    1 3d0  
                                   1 3d2+    1 3d0     1 3d2+    1 3d0     1 3d2+    1 3d0     1 3d2+    1 4f0     1 4f2+    1 4f0  
                                   1 4f2+    1 4f0     1 4f2+    1 4f0     1 4f2+    1 5g0     1 5g4+    1 5g2+    1 5g0     1 5g4+ 
                                   1 5g2+    1 5g0     1 5g4+    1 5g2+    2 1s      2 1s      2 1s      2 1s      2 1s      2 1s   
                                   2 2pz     2 2pz     2 2pz     2 3d0     2 3d2+    2 3d0     2 3d2+ 

   1.1   2  -629.7558-1406.3385  0.000041  0.000109  0.000302  0.000698  0.001520  0.003159  0.006523  0.013590  0.028843  0.061543
                                 0.126272  0.229722  0.321095  0.274180 -0.006115  0.101215  0.004787  0.003364 -0.005675  0.014963
                                -0.013824  0.011256 -0.010555  0.003741 -0.002246  0.000665 -0.000064  0.000019 -0.000013  0.000009
                                -0.000001  0.000000  0.000000  0.000000  0.000000  0.000000  0.000000  0.000000  0.000000  0.000001
                                 0.000001  0.000000 -0.000002  0.000003 -0.000003  0.000008 -0.000018  0.000026 -0.000026  0.000019
                                -0.000010  0.000003 -0.000003  0.000003  0.000002  0.000002  0.000000 -0.000000  0.000000 -0.000000
                                 0.000000  0.000000 -0.000000 -0.000000  0.000000 -0.000000 -0.000000 -0.000000  0.000000  0.000000
                                -0.000000 -0.000000  0.000000  0.000000 -0.000000 -0.000000  0.000000  0.000001 -0.000000 -0.000002
                                 0.000000  0.000004 -0.000000 -0.000004  0.000000  0.000003 -0.000000 -0.000002  0.000000  0.000004
                                -0.000000 -0.000001  0.000000  0.000001 -0.000000  0.000000  0.000000 -0.000000  0.000000 -0.000000
                                -0.000000  0.000001 -0.000000  0.000000  0.000000 -0.000000 -0.000000 -0.000000  0.000000  0.000000
                                -0.000000  0.000000 -0.000000 -0.000000 -0.000000  0.000000 -0.000000  0.000000 -0.000004 -0.000005
                                -0.000000  0.000000  0.000002  0.000000 -0.000000 -0.000000  0.000000

   2.1   2   -88.9710 -282.0549 -0.000013 -0.000036 -0.000099 -0.000230 -0.000501 -0.001045 -0.002170 -0.004562 -0.009831 -0.021569
                                -0.046648 -0.094077 -0.160101 -0.184514  0.004500 -0.024646  0.372698  0.539888  0.216564  0.030451
                                -0.009657  0.039773 -0.037940  0.015141 -0.009548  0.002843 -0.000322  0.000092 -0.000062  0.000043
                                -0.000003  0.000000  0.000000  0.000000  0.000000  0.000001  0.000004  0.000012  0.000032  0.000070
                                 0.000117  0.000147  0.000107 -0.000006  0.000016  0.000025 -0.000059  0.000099 -0.000104  0.000082
                                -0.000044  0.000015 -0.000014  0.000013  0.000009  0.000011  0.000002 -0.000000  0.000000 -0.000000
                                -0.000000 -0.000001  0.000000 -0.000003 -0.000000 -0.000016  0.000000 -0.000021 -0.000000  0.000010
                                 0.000000 -0.000002 -0.000000 -0.000000  0.000000 -0.000003 -0.000000  0.000004  0.000000 -0.000012
                                -0.000000  0.000020  0.000000 -0.000019 -0.000000  0.000014  0.000000 -0.000010 -0.000000  0.000018
                                 0.000000 -0.000007 -0.000000  0.000006 -0.000000  0.000001  0.000000  0.000002 -0.000000 -0.000000
                                 0.000000  0.000004  0.000000  0.000002  0.000000 -0.000001 -0.000000  0.000000  0.000001 -0.000000
                                -0.000000  0.000001 -0.000000  0.000000 -0.000000  0.000000 -0.000000  0.000000 -0.000020 -0.000023
                                -0.000000  0.000002  0.000009  0.000000  0.000000 -0.000001 -0.000000

   3.1   2   -79.0163 -268.6659  0.000000  0.000000  0.000000  0.000000  0.000000  0.000000  0.000001  0.000002  0.000004  0.000009
                                 0.000020  0.000040  0.000069  0.000080 -0.000002  0.000008 -0.000175 -0.000217 -0.000080 -0.000008
                                -0.000017  0.000032 -0.000045  0.000041 -0.000036  0.000019 -0.000003 -0.000001  0.000004  0.000005
                                 0.000002  0.000014  0.000053  0.000206  0.000769  0.002805  0.009658  0.030133  0.082173  0.183299
                                 0.308914  0.340242  0.185099  0.005641  0.036922  0.012794 -0.016422  0.018618 -0.014121  0.007244
                                -0.002768  0.000367 -0.000133  0.000052 -0.000012  0.000010 -0.000001  0.000000  0.000000  0.000000
                                 0.000000  0.000002  0.000000  0.000009 -0.000000  0.000027  0.000000  0.000029 -0.000000 -0.000008
                                 0.000000  0.000003 -0.000000  0.000001  0.000000  0.000003  0.000000  0.000001 -0.000000  0.000002
                                 0.000000 -0.000005 -0.000000  0.000007 -0.000000 -0.000007  0.000000  0.000003 -0.000000  0.000006
                                 0.000000 -0.000004 -0.000000  0.000002  0.000000  0.000000 -0.000000 -0.000004  0.000000 -0.000001
                                -0.000000  0.000000 -0.000000  0.000001 -0.000000  0.000000  0.000000 -0.000000 -0.000000 -0.000000
                                 0.000000  0.000000  0.000000 -0.000000 -0.000000 -0.000000 -0.000001 -0.000000 -0.000005 -0.000010
                                -0.000000 -0.000000  0.000004  0.000001 -0.000000 -0.000000  0.000000

   4.1   2   -15.4161  -94.0593  0.000006  0.000015  0.000041  0.000095  0.000207  0.000433  0.000899  0.001892  0.004085  0.008996
                                 0.019596  0.040102  0.070220  0.085346 -0.003456  0.012400 -0.239532 -0.483932 -0.193764 -0.036308
                                 0.520771  0.746626 -0.085930  0.232291 -0.064439  0.025178 -0.001305  0.000611 -0.000386  0.000289
                                -0.000018 -0.000000 -0.000000 -0.000000 -0.000001 -0.000002 -0.000009 -0.000027 -0.000075 -0.000174
                                -0.000308 -0.000355 -0.000106  0.000088  0.000541  0.001141 -0.000342  0.001438 -0.000795  0.000727
                                -0.000400  0.000103 -0.000109  0.000084  0.000090  0.000074  0.000012 -0.000000  0.000000 -0.000000
                                -0.000000 -0.000001 -0.000000 -0.000003 -0.000000 -0.000005 -0.000000  0.000022 -0.000000 -0.000060
                                 0.000000 -0.000035 -0.000000 -0.000225  0.000000 -0.000199  0.000000  0.000109 -0.000000 -0.000187
                                 0.000000  0.000245 -0.000000 -0.000207  0.000000  0.000127 -0.000000 -0.000107  0.000000  0.000166
                                -0.000000 -0.000057  0.000000  0.000040  0.000000  0.000004 -0.000000  0.000012 -0.000000 -0.000031
                                 0.000000  0.000042 -0.000000  0.000015  0.000000 -0.000001 -0.000000 -0.000000  0.000011 -0.000000
                                -0.000000  0.000011  0.000000 -0.000000 -0.000000  0.000000 -0.000003 -0.000005 -0.000164 -0.000159
                                -0.000000  0.000016  0.000067 -0.000000 -0.000000 -0.000003  0.000000

   5.1   2   -12.0816  -87.7866 -0.000000 -0.000000 -0.000000 -0.000000 -0.000000 -0.000001 -0.000002 -0.000004 -0.000009 -0.000020
                                -0.000043 -0.000089 -0.000156 -0.000190  0.000009 -0.000029  0.000551  0.001083  0.000394  0.000226
                                -0.001422 -0.002012  0.000677 -0.000304  0.000060 -0.000137 -0.000062  0.000162 -0.000153  0.000066
                                 0.000008 -0.000006 -0.000022 -0.000087 -0.000327 -0.001196 -0.004147 -0.013100 -0.036666 -0.084999
                                -0.151247 -0.169345 -0.004666 -0.000416  0.297416  0.469505 -0.000228  0.312689 -0.028256  0.075251
                                -0.009523  0.003291 -0.000903  0.000358 -0.000217  0.000086 -0.000011  0.000000  0.000000  0.000001
                                -0.000000  0.000005  0.000000  0.000019  0.000000  0.000053  0.000000  0.000086  0.000000  0.000070
                                -0.000000  0.000226  0.000000  0.000449 -0.000000  0.000371 -0.000000 -0.000131 -0.000000  0.000154
                                 0.000000 -0.000188 -0.000000  0.000119  0.000000 -0.000036 -0.000000  0.000077  0.000000 -0.000064
                                -0.000000 -0.000014  0.000000  0.000012  0.000000  0.000003 -0.000000 -0.000144  0.000000  0.000119
                                -0.000000 -0.000044 -0.000000 -0.000005  0.000000 -0.000007 -0.000000 -0.000000 -0.000000 -0.000000
                                 0.000000 -0.000018  0.000000 -0.000000  0.000000 -0.000001  0.000004  0.000011  0.000075 -0.000066
                                -0.000006  0.000004  0.000019  0.000007  0.000000 -0.000025 -0.000000

   6.1   2    -6.5901  -77.6370  0.000000  0.000000 -0.000000  0.000000 -0.000000  0.000000 -0.000000  0.000000 -0.000000  0.000000
                                 0.000000 -0.000000  0.000000 -0.000000 -0.000000  0.000000 -0.000000  0.000000 -0.000000  0.000000
                                -0.000000 -0.000000  0.000000 -0.000000  0.000000 -0.000000  0.000000 -0.000000  0.000000  0.000000
                                 0.000000 -0.000000 -0.000000  0.000000  0.000000 -0.000000  0.000000 -0.000000  0.000000  0.000000
                                 0.000000  0.000000 -0.000000  0.000000 -0.000000  0.000000  0.000000 -0.000000  0.000000  0.000000
                                -0.000000  0.000000 -0.000000  0.000000 -0.000000  0.000000  0.000000  0.000000  0.000171  0.000000
                                 0.001504  0.000000  0.008889  0.000000  0.034999  0.000000  0.101928  0.000000  0.219239 -0.000000
                                -0.000673  0.000000  0.324313  0.000000  0.332760  0.000000  0.197857  0.000000  0.047813  0.000000
                                 0.001253 -0.000000 -0.002806  0.000000  0.005519 -0.000000 -0.004105  0.000000  0.003230  0.000000
                                -0.001928 -0.000000  0.000969  0.000000 -0.000103 -0.000000  0.000026  0.000000  0.000150 -0.000000
                                -0.000073 -0.000000  0.000022  0.000000 -0.000007  0.000000  0.000000 -0.000065 -0.000000 -0.000000
                                 0.000007  0.000000  0.000000 -0.000003 -0.000000  0.000000 -0.000000  0.000000 -0.000000 -0.000000
                                 0.000000 -0.000000  0.000000  0.000000  0.000001  0.000000 -0.000005

   7.1   2    -6.5859  -77.6518  0.000000  0.000000  0.000000  0.000000  0.000000  0.000000  0.000001  0.000002  0.000003  0.000007
                                 0.000016  0.000033  0.000057  0.000072 -0.000007  0.000016 -0.000221 -0.000455 -0.000182  0.000010
                                 0.000696  0.002014 -0.001321 -0.000022 -0.000806  0.000119  0.000021 -0.000327  0.000464 -0.000145
                                 0.000005  0.000000  0.000000  0.000000  0.000000  0.000002  0.000005  0.000017  0.000047  0.000109
                                 0.000195  0.000223 -0.000101  0.000117 -0.000588 -0.000420 -0.000798  0.001205 -0.001249  0.001539
                                -0.000906  0.000095 -0.000154 -0.000003  0.000261 -0.000085  0.000006  0.000171 -0.000000  0.001505
                                -0.000000  0.008895 -0.000000  0.035022 -0.000000  0.101994 -0.000000  0.219421 -0.000000 -0.000731
                                -0.000000  0.324533 -0.000000  0.332756 -0.000000  0.197464 -0.000000  0.047648 -0.000000  0.001387
                                 0.000000 -0.003044 -0.000000  0.005736 -0.000000 -0.004392 -0.000000  0.003344 -0.000000 -0.001793
                                -0.000000  0.000986  0.000000 -0.000119 -0.000000  0.000023  0.000000  0.000221 -0.000000 -0.000230
                                 0.000000  0.000137 -0.000000  0.000006 -0.000000 -0.000112  0.000000  0.000000  0.000045  0.000000
                                -0.000000  0.000033  0.000000  0.000000 -0.000000 -0.000001  0.000000 -0.000061 -0.000250  0.000081
                                -0.000004  0.000019  0.000027 -0.000006 -0.000000  0.000055  0.000000

   8.1   2    -2.3349  -35.5590 -0.000002 -0.000005 -0.000015 -0.000035 -0.000077 -0.000160 -0.000333 -0.000700 -0.001514 -0.003333
                                -0.007280 -0.014902 -0.026327 -0.031799 -0.000307 -0.002847  0.094307  0.209288  0.064431  0.125908
                                -0.416281 -0.285942 -0.392131  0.120225 -0.227630  0.881474  0.527667  0.030911 -0.015217  0.006437
                                -0.000646 -0.000000 -0.000000 -0.000000 -0.000000 -0.000001 -0.000005 -0.000015 -0.000041 -0.000095
                                -0.000175 -0.000178 -0.000075  0.000171  0.000227  0.001362 -0.001466  0.002579 -0.002503  0.001878
                                -0.000332 -0.003543 -0.002571 -0.000109  0.000750  0.001250  0.000173  0.000000 -0.000000  0.000001
                                -0.000000  0.000004 -0.000000  0.000017 -0.000000  0.000047 -0.000000  0.000075 -0.000000  0.000045
                                 0.000000  0.000138 -0.000000  0.000236  0.000000  0.000321 -0.000000 -0.000631  0.000000  0.001655
                                -0.000000 -0.002300  0.000000  0.001132 -0.000000 -0.001590  0.000000 -0.000471 -0.000000  0.001766
                                 0.000000 -0.000944 -0.000000  0.000727  0.000000  0.000035 -0.000000 -0.000615  0.000000 -0.001346
                                 0.000000  0.000510 -0.000000  0.000260 -0.000000  0.000012 -0.000000 -0.000000  0.000290  0.000000
                                -0.000000  0.000192 -0.000000  0.000000  0.000013  0.000105  0.000274  0.000974 -0.000491 -0.002464
                                -0.000034 -0.000542  0.000077  0.000095  0.000000  0.000352 -0.000000

   9.1   2    -1.3896  -31.1480 -0.000000 -0.000000 -0.000000 -0.000000 -0.000000 -0.000001 -0.000002 -0.000004 -0.000010 -0.000021
                                -0.000047 -0.000094 -0.000170 -0.000188 -0.000064  0.000053  0.000542  0.001475 -0.000151  0.003784
                                -0.006493  0.007710 -0.015133  0.011401 -0.015375  0.019607 -0.004640 -0.001552 -0.000465 -0.000381
                                -0.000091  0.000002  0.000008  0.000030  0.000111  0.000407  0.001415  0.004473  0.012584  0.029302
                                 0.052768  0.058794 -0.002029 -0.006476 -0.126176 -0.252164  0.060311 -0.304922  0.266708 -0.172622
                                 0.496270  0.480665  0.205989  0.022525 -0.000205 -0.000120 -0.000069  0.000001 -0.000000  0.000005
                                -0.000000  0.000030 -0.000000  0.000119 -0.000000  0.000347 -0.000000  0.000798 -0.000000 -0.000077
                                 0.000000  0.001097 -0.000000  0.000932 -0.000000 -0.000166 -0.000000 -0.002306  0.000000  0.000690
                                -0.000000 -0.008071  0.000000 -0.001862 -0.000000 -0.003010  0.000000  0.000077 -0.000000 -0.000277
                                 0.000000 -0.000217 -0.000000  0.000088  0.000000 -0.000080 -0.000000 -0.000533  0.000000 -0.000183
                                 0.000000  0.000025  0.000000  0.000079 -0.000000 -0.000350  0.000000  0.000000 -0.000662  0.000000
                                -0.000000  0.000240 -0.000000  0.000000  0.000112  0.000833  0.002975  0.008025  0.006403  0.000729
                                -0.000283 -0.002481 -0.002183  0.000286  0.000000  0.000639 -0.000000

  10.1   2    -0.3358  -10.6403  0.000000  0.000001  0.000002  0.000005  0.000011  0.000022  0.000046  0.000098  0.000211  0.000464
                                 0.001015  0.002075  0.003679  0.004395  0.000231  0.000179 -0.013094 -0.030086 -0.007237 -0.028429
                                 0.073516  0.019289  0.095311 -0.048227  0.066627 -0.188260 -0.188976  0.167756  0.209993  0.074467
                                -0.007481 -0.000000 -0.000001 -0.000003 -0.000012 -0.000044 -0.000153 -0.000484 -0.001364 -0.003174
                                -0.005734 -0.006343 -0.000142  0.001413  0.013314  0.030697 -0.012429  0.043859 -0.041860  0.027217
                                -0.066464 -0.068895 -0.037158  0.072381  0.091396  0.023454 -0.003123 -0.000007 -0.000000 -0.000060
                                -0.000000 -0.000360 -0.000000 -0.001399 -0.000000 -0.004214 -0.000000 -0.008169 -0.000000 -0.001070
                                 0.000000 -0.012211 -0.000000 -0.013053  0.000000  0.002044 -0.000000  0.022527  0.000000  0.023949
                                -0.000000  0.013893  0.000000  0.053174 -0.000000  0.038055  0.000000  0.050795 -0.000000  0.032093
                                 0.000000  0.027860 -0.000000  0.017862  0.000000 -0.003454  0.000000  0.002440  0.000000  0.012005
                                 0.000000  0.030756  0.000000  0.010745 -0.000000  0.000480 -0.000000  0.000000  0.005196  0.000000
                                -0.000000  0.007189  0.000000  0.000000  0.004224  0.031281  0.124676  0.290759  0.301567  0.015372
                                -0.001749 -0.016766 -0.015612  0.001046  0.000000  0.003615 -0.000000

  11.1   2    -0.2293  -12.3354  0.000000  0.000001  0.000004  0.000009  0.000019  0.000039  0.000081  0.000170  0.000368  0.000810
                                 0.001772  0.003619  0.006429  0.007622  0.000610  0.000076 -0.022685 -0.052998 -0.010673 -0.060154
                                 0.141834  0.003297  0.208085 -0.122837  0.162163 -0.366796 -0.338640  0.303984  0.531993  0.233079
                                -0.004748  0.000000  0.000001  0.000003  0.000011  0.000042  0.000145  0.000458  0.001290  0.002999
                                 0.005423  0.005983  0.000249 -0.001553 -0.012392 -0.030156  0.014376 -0.046567  0.046482 -0.032693
                                 0.067679  0.067000  0.056227 -0.102491 -0.226090 -0.060735  0.005143  0.000012  0.000000  0.000100
                                 0.000000  0.000603  0.000000  0.002354  0.000000  0.007038  0.000000  0.014136  0.000000  0.001200
                                -0.000000  0.020831  0.000000  0.021373 -0.000000 -0.003170  0.000000 -0.044476 -0.000000 -0.026047
                                 0.000000 -0.055255 -0.000000 -0.066393  0.000000 -0.073582 -0.000000 -0.073850  0.000000 -0.033608
                                -0.000000 -0.056710  0.000000 -0.014364  0.000000  0.002615 -0.000000 -0.000392 -0.000000  0.000756
                                -0.000000 -0.008071 -0.000000 -0.003613  0.000000  0.000379  0.000000 -0.000000 -0.000634 -0.000000
                                 0.000000 -0.001029  0.000000 -0.000000 -0.001305 -0.009576 -0.039292 -0.089236 -0.094126 -0.021644
                                 0.000401  0.001367 -0.001524 -0.000251 -0.000000  0.000170  0.000000

  12.1   0     0.0102   -6.4909  0.000000  0.000000  0.000001  0.000001  0.000003  0.000006  0.000012  0.000025  0.000053  0.000123
                                 0.000253  0.000559  0.000863  0.001645 -0.002065  0.002489 -0.005316 -0.003550 -0.021519  0.093418
                                -0.105911  0.289582 -0.332186  0.276981 -0.288841  0.112261 -0.112790  0.259523 -0.289098  0.659835
                                -0.837232 -0.000000 -0.000001 -0.000002 -0.000008 -0.000029 -0.000097 -0.000320 -0.000859 -0.002121
                                -0.003473 -0.005052  0.011082 -0.017310  0.026021 -0.049433  0.155444 -0.248952  0.292771 -0.262896
                                 0.127433 -0.114847  0.045928 -0.052516  0.269870 -0.223990  0.774080  0.000012 -0.000000  0.000103
                                -0.000000  0.000622 -0.000000  0.002409 -0.000000  0.007290 -0.000000  0.013854 -0.000000  0.002182
                                -0.000000  0.020853 -0.000000  0.022708 -0.000000 -0.004681  0.000000 -0.036618  0.000000 -0.057001
                                 0.000000  0.009832 -0.000000 -0.150253  0.000000  0.056212 -0.000000 -0.259439  0.000000  0.228181
                                -0.000000 -0.318280  0.000000 -0.029866  0.000000 -0.244500  0.000000 -0.000213 -0.000000  0.000870
                                -0.000000  0.004106 -0.000000 -0.010502  0.000000  0.000515  0.000000 -0.000000  0.001478 -0.000000
                                -0.000000 -0.001866  0.000000 -0.000000 -0.000045 -0.000266 -0.001691  0.000488 -0.007892  0.136300
                                 0.000736 -0.001521  0.019051 -0.000228  0.000000 -0.000627 -0.000000

  13.1   0     0.0210   -3.9778 -0.000000 -0.000000 -0.000001 -0.000002 -0.000004 -0.000008 -0.000015 -0.000034 -0.000068 -0.000164
                                -0.000320 -0.000766 -0.001009 -0.002864  0.005668 -0.006667  0.009654 -0.001290  0.055664 -0.263653
                                 0.314227 -0.779699  0.939905 -0.776315  0.821036 -0.394081  0.231355 -0.674338  1.275444 -1.299125
                                 2.619827 -0.000000 -0.000000 -0.000001 -0.000005 -0.000016 -0.000058 -0.000172 -0.000518 -0.001111
                                -0.002286 -0.001583 -0.008793  0.014781 -0.008766  0.065759 -0.133483  0.235706 -0.269861  0.235421
                                -0.162514  0.033006 -0.093932  0.108148  0.296562  0.882072  0.289799  0.000004 -0.000000  0.000030
                                -0.000000  0.000196 -0.000000  0.000693 -0.000000  0.002370 -0.000000  0.002068 -0.000000  0.003598
                                -0.000000  0.004524 -0.000000  0.009051 -0.000000 -0.006194  0.000000  0.019032 -0.000000 -0.112736
                                 0.000000  0.207777 -0.000000 -0.299177  0.000000  0.379228 -0.000000 -0.558481  0.000000  0.857553
                                -0.000000 -0.611329  0.000000  0.532268 -0.000000 -0.278215  0.000000  0.000225  0.000000 -0.002795
                                -0.000000  0.045175 -0.000000  0.113084 -0.000000 -0.000214  0.000000 -0.000000  0.003645 -0.000000
                                -0.000000  0.025920 -0.000000 -0.000000 -0.000088 -0.000279 -0.003770  0.014724 -0.345269 -1.718753
                                 0.000007  0.005074  0.174344  0.000158  0.000000 -0.011765 -0.000000

                                   1 2px     1 2px     1 2px     1 2px     1 2px     1 2px     1 2px     1 2px     1 2px     1 2px  
                                   1 2px     1 2px     1 2px     1 2px     1 2px     1 2px     1 2px     1 2px     1 2px     1 2px  
                                   1 2px     1 2px     1 2px     1 2px     1 2px     1 2px     1 3d1+    1 3d1+    1 3d1+    1 3d1+ 
                                   1 3d1+    1 3d1+    1 3d1+    1 3d1+    1 3d1+    1 3d1+    1 3d1+    1 3d1+    1 3d1+    1 3d1+ 
                                   1 3d1+    1 3d1+    1 3d1+    1 3d1+    1 3d1+    1 3d1+    1 4f1+    1 4f3+    1 4f1+    1 4f3+ 
                                   1 4f1+    1 4f3+    1 4f1+    1 4f3+    1 5g1+    1 5g3+    1 5g1+    1 5g3+    1 5g1+    1 5g3+ 
                                   2 2px     2 2px     2 2px     2 3d1+    2 3d1+ 

   1.2   2   -79.0181 -268.6671  0.000014  0.000053  0.000206  0.000769  0.002805  0.009658  0.030132  0.082171  0.183293  0.308905
                                 0.340248  0.185138  0.005607  0.036933  0.012741 -0.016321  0.018480 -0.013979  0.007145 -0.002714
                                 0.000354 -0.000125  0.000046 -0.000015  0.000006 -0.000002  0.000000  0.000000  0.000001  0.000005
                                 0.000016  0.000022 -0.000004  0.000006 -0.000000 -0.000000 -0.000001  0.000001 -0.000002  0.000001
                                -0.000001  0.000001 -0.000000 -0.000000  0.000000  0.000000 -0.000000 -0.000000  0.000001  0.000000
                                 0.000000 -0.000000 -0.000000  0.000000  0.000000 -0.000000  0.000000  0.000000 -0.000000 -0.000000
                                 0.000000 -0.000000  0.000000 -0.000000  0.000000

   2.2   2   -12.0870  -87.7823 -0.000006 -0.000022 -0.000087 -0.000327 -0.001195 -0.004146 -0.013097 -0.036655 -0.084973 -0.151198
                                -0.169296 -0.004743 -0.000362  0.297221  0.469254 -0.000163  0.313038 -0.028290  0.075482 -0.009708
                                 0.003291 -0.000902  0.000304 -0.000131  0.000043 -0.000013  0.000000  0.000001  0.000007  0.000026
                                 0.000075  0.000168  0.000021  0.000305  0.000365  0.000192 -0.000036  0.000067 -0.000075  0.000054
                                -0.000027  0.000018 -0.000007 -0.000009  0.000000  0.000000 -0.000094  0.000000  0.000050 -0.000000
                                -0.000026  0.000000 -0.000000  0.000000 -0.000006  0.000000 -0.000005  0.000000 -0.000007 -0.000000
                                -0.000000 -0.000002  0.000020 -0.000000 -0.000003

   3.2   2    -6.5854  -77.6376  0.000000  0.000000  0.000000  0.000000  0.000001  0.000004  0.000012  0.000033  0.000076  0.000135
                                 0.000151 -0.000010  0.000018 -0.000291 -0.000444 -0.000088 -0.000141 -0.000091  0.000087 -0.000118
                                 0.000013  0.000003  0.000026  0.000035  0.000001 -0.000000  0.000171  0.001504  0.008890  0.035005
                                 0.101944  0.219298 -0.000708  0.324386  0.332745  0.197717  0.047881  0.001212 -0.002777  0.005481
                                -0.004168  0.003287 -0.001966  0.001019 -0.000104  0.000026  0.000201 -0.000000 -0.000174  0.000000
                                 0.000079 -0.000000 -0.000000  0.000000 -0.000100 -0.000000  0.000037 -0.000000  0.000015  0.000000
                                 0.000002 -0.000012 -0.000069 -0.000004  0.000031

   4.2   2    -1.3922  -31.0461  0.000002  0.000008  0.000030  0.000111  0.000405  0.001407  0.004450  0.012520  0.029157  0.052492
                                 0.058532 -0.002395 -0.005795 -0.126141 -0.248078  0.053758 -0.292359  0.251514 -0.159409  0.484683
                                 0.479187  0.208685  0.030653  0.002730 -0.000115  0.000058 -0.000000 -0.000000 -0.000003 -0.000011
                                -0.000035 -0.000051 -0.000042 -0.000106 -0.000178  0.000151  0.001355 -0.000473  0.001187 -0.002663
                                -0.000440 -0.002258 -0.000053 -0.000889 -0.000032  0.000003 -0.001293  0.000000 -0.002825  0.000000
                                -0.001805 -0.000000 -0.000014 -0.000000 -0.000331 -0.000000 -0.000782 -0.000000 -0.000074 -0.000000
                                 0.000016  0.000282  0.000639 -0.000037 -0.000293

   5.2   0     0.0032   -6.4592 -0.000000 -0.000001 -0.000004 -0.000016 -0.000057 -0.000197 -0.000632 -0.001753 -0.004157 -0.007281
                                -0.008832  0.007013 -0.009889  0.028468 -0.004518  0.088359 -0.119601  0.148377 -0.141231  0.019592
                                -0.135291 -0.013978  0.036175  0.345090  0.135724  0.627096  0.000005  0.000041  0.000246  0.000950
                                 0.002880  0.005410  0.000939  0.008185  0.009032 -0.001902 -0.013518 -0.024867  0.010121 -0.065052
                                 0.029828 -0.115031  0.095053 -0.157856 -0.021829 -0.126405 -0.000489  0.000000 -0.001353  0.000000
                                -0.006531  0.000000 -0.015606  0.000000  0.000282  0.000000  0.000667 -0.000000 -0.003988  0.000000
                                 0.000334  0.001954  0.006636 -0.000059 -0.000689

   6.2   0     0.0315   -4.8215 -0.000000 -0.000000 -0.000001 -0.000005 -0.000016 -0.000064 -0.000176 -0.000579 -0.001101 -0.002710
                                -0.000561 -0.022574  0.037280 -0.029909  0.151763 -0.334848  0.577196 -0.662219  0.577147 -0.369263
                                 0.109435 -0.164327  0.206112 -0.182632  0.738554 -0.896921  0.000010  0.000080  0.000510  0.001866
                                 0.006107  0.007495  0.006705  0.013663  0.021836 -0.011813  0.021507 -0.205092  0.346524 -0.537322
                                 0.650076 -1.028160  1.345080 -1.249440  0.575620 -1.031175 -0.000284  0.000000  0.001416  0.000000
                                 0.001946  0.000000  0.041257  0.000000  0.000400  0.000000  0.000608 -0.000000  0.006975  0.000000
                                -0.000800 -0.001776 -0.011747  0.000095 -0.000118

                                   1 2py     1 2py     1 2py     1 2py     1 2py     1 2py     1 2py     1 2py     1 2py     1 2py  
                                   1 2py     1 2py     1 2py     1 2py     1 2py     1 2py     1 2py     1 2py     1 2py     1 2py  
                                   1 2py     1 2py     1 2py     1 2py     1 2py     1 2py     1 3d1-    1 3d1-    1 3d1-    1 3d1- 
                                   1 3d1-    1 3d1-    1 3d1-    1 3d1-    1 3d1-    1 3d1-    1 3d1-    1 3d1-    1 3d1-    1 3d1- 
                                   1 3d1-    1 3d1-    1 3d1-    1 3d1-    1 3d1-    1 3d1-    1 4f1-    1 4f3-    1 4f1-    1 4f3- 
                                   1 4f1-    1 4f3-    1 4f1-    1 4f3-    1 5g1-    1 5g3-    1 5g1-    1 5g3-    1 5g1-    1 5g3- 
                                   2 2py     2 2py     2 2py     2 3d1-    2 3d1- 

   1.3   2   -79.0181 -268.6671  0.000014  0.000053  0.000206  0.000769  0.002805  0.009658  0.030132  0.082171  0.183293  0.308905
                                 0.340248  0.185138  0.005607  0.036933  0.012741 -0.016321  0.018480 -0.013979  0.007145 -0.002714
                                 0.000354 -0.000125  0.000046 -0.000015  0.000006 -0.000002  0.000000  0.000000  0.000001  0.000005
                                 0.000016  0.000022 -0.000004  0.000006 -0.000000 -0.000000 -0.000001  0.000001 -0.000002  0.000001
                                -0.000001  0.000001 -0.000000 -0.000000  0.000000  0.000000 -0.000000  0.000000  0.000001 -0.000000
                                 0.000000  0.000000 -0.000000 -0.000000  0.000000 -0.000000  0.000000 -0.000000 -0.000000  0.000000
                                 0.000000 -0.000000  0.000000 -0.000000  0.000000

   2.3   2   -12.0870  -87.7823 -0.000006 -0.000022 -0.000087 -0.000327 -0.001195 -0.004146 -0.013097 -0.036655 -0.084973 -0.151198
                                -0.169296 -0.004743 -0.000362  0.297221  0.469254 -0.000163  0.313038 -0.028290  0.075482 -0.009708
                                 0.003291 -0.000902  0.000304 -0.000131  0.000043 -0.000013  0.000000  0.000001  0.000007  0.000026
                                 0.000075  0.000168  0.000021  0.000305  0.000365  0.000192 -0.000036  0.000067 -0.000075  0.000054
                                -0.000027  0.000018 -0.000007 -0.000009  0.000000  0.000000 -0.000094  0.000000  0.000050 -0.000000
                                -0.000026  0.000000 -0.000000 -0.000000 -0.000006 -0.000000 -0.000005  0.000000 -0.000007 -0.000000
                                -0.000000 -0.000002  0.000020 -0.000000 -0.000003

   3.3   2    -6.5854  -77.6376  0.000000  0.000000  0.000000  0.000000  0.000001  0.000004  0.000012  0.000033  0.000076  0.000135
                                 0.000151 -0.000010  0.000018 -0.000291 -0.000444 -0.000088 -0.000141 -0.000091  0.000087 -0.000118
                                 0.000013  0.000003  0.000026  0.000035  0.000001 -0.000000  0.000171  0.001504  0.008890  0.035005
                                 0.101944  0.219298 -0.000708  0.324386  0.332745  0.197717  0.047881  0.001212 -0.002777  0.005481
                                -0.004168  0.003287 -0.001966  0.001019 -0.000104  0.000026  0.000201 -0.000000 -0.000174  0.000000
                                 0.000079 -0.000000 -0.000000  0.000000 -0.000100  0.000000  0.000037 -0.000000  0.000015  0.000000
                                 0.000002 -0.000012 -0.000069 -0.000004  0.000031

   4.3   2    -1.3922  -31.0461  0.000002  0.000008  0.000030  0.000111  0.000405  0.001407  0.004450  0.012520  0.029157  0.052492
                                 0.058532 -0.002395 -0.005795 -0.126141 -0.248078  0.053758 -0.292359  0.251514 -0.159409  0.484683
                                 0.479187  0.208685  0.030653  0.002730 -0.000115  0.000058 -0.000000 -0.000000 -0.000003 -0.000011
                                -0.000035 -0.000051 -0.000042 -0.000106 -0.000178  0.000151  0.001355 -0.000473  0.001187 -0.002663
                                -0.000440 -0.002258 -0.000053 -0.000889 -0.000032  0.000003 -0.001293  0.000000 -0.002825  0.000000
                                -0.001805 -0.000000 -0.000014  0.000000 -0.000331 -0.000000 -0.000782  0.000000 -0.000074 -0.000000
                                 0.000016  0.000282  0.000639 -0.000037 -0.000293

   5.3   0     0.0032   -6.4592 -0.000000 -0.000001 -0.000004 -0.000016 -0.000057 -0.000197 -0.000632 -0.001753 -0.004157 -0.007281
                                -0.008832  0.007013 -0.009889  0.028468 -0.004518  0.088359 -0.119601  0.148377 -0.141231  0.019592
                                -0.135291 -0.013978  0.036175  0.345090  0.135724  0.627096  0.000005  0.000041  0.000246  0.000950
                                 0.002880  0.005410  0.000939  0.008185  0.009032 -0.001902 -0.013518 -0.024867  0.010121 -0.065052
                                 0.029828 -0.115031  0.095053 -0.157856 -0.021829 -0.126405 -0.000489 -0.000000 -0.001353  0.000000
                                -0.006531  0.000000 -0.015606  0.000000  0.000282  0.000000  0.000667 -0.000000 -0.003988  0.000000
                                 0.000334  0.001954  0.006636 -0.000059 -0.000689

   6.3   0     0.0315   -4.8215 -0.000000 -0.000000 -0.000001 -0.000005 -0.000016 -0.000064 -0.000176 -0.000579 -0.001101 -0.002710
                                -0.000561 -0.022574  0.037280 -0.029909  0.151763 -0.334848  0.577196 -0.662219  0.577147 -0.369263
                                 0.109435 -0.164327  0.206112 -0.182632  0.738554 -0.896921  0.000010  0.000080  0.000510  0.001866
                                 0.006107  0.007495  0.006705  0.013663  0.021836 -0.011813  0.021507 -0.205092  0.346524 -0.537322
                                 0.650076 -1.028160  1.345080 -1.249440  0.575620 -1.031175 -0.000284 -0.000000  0.001416 -0.000000
                                 0.001946  0.000000  0.041257 -0.000000  0.000400 -0.000000  0.000608  0.000000  0.006975 -0.000000
                                -0.000800 -0.001776 -0.011747  0.000095 -0.000118

                                   1 3d2-    1 3d2-    1 3d2-    1 3d2-    1 3d2-    1 3d2-    1 3d2-    1 3d2-    1 3d2-    1 3d2- 
                                   1 3d2-    1 3d2-    1 3d2-    1 3d2-    1 3d2-    1 3d2-    1 3d2-    1 3d2-    1 3d2-    1 3d2- 
                                   1 4f2-    1 4f2-    1 4f2-    1 4f2-    1 5g2-    1 5g4-    1 5g2-    1 5g4-    1 5g2-    1 5g4- 
                                   2 3d2-    2 3d2- 

   1.4   2    -6.5901  -77.6370  0.000171  0.001504  0.008889  0.034999  0.101928  0.219239 -0.000673  0.324313  0.332760  0.197857
                                 0.047813  0.001253 -0.002806  0.005519 -0.004105  0.003230 -0.001928  0.000969 -0.000103  0.000026
                                 0.000150 -0.000073  0.000022 -0.000007 -0.000065  0.000000  0.000007 -0.000000 -0.000003  0.000000
                                 0.000001 -0.000005

   2.4   0     0.0279   -5.5681 -0.000012 -0.000100 -0.000636 -0.002346 -0.007590 -0.010044 -0.007469 -0.017656 -0.026639  0.013227
                                -0.017640  0.227240 -0.370862  0.595390 -0.696964  1.127338 -1.463209  1.373323 -0.630753  1.191949
                                 0.000140 -0.001501 -0.005030 -0.027618 -0.000301  0.000000 -0.001180 -0.000000 -0.005249  0.000000
                                 0.000154 -0.000362

   3.4   0     0.0436  -11.4086  0.000023  0.000210  0.001214  0.004913  0.013970  0.034511 -0.005258  0.047344  0.038120  0.006704
                                -0.169939  0.194825 -0.632569  0.505600 -1.092234  1.125718 -1.906355  1.375944 -1.164690  1.088441
                                -0.000110  0.002000  0.013392  0.021183  0.000529  0.000000  0.002640 -0.000000  0.006413 -0.000000
                                -0.000353  0.001316

 HOMO     11.1    -0.229275 =      -6.2389eV
 LUMO      5.2     0.003189 =       0.0868eV
 LUMO-HOMO         0.232464 =       6.3257eV


 **********************************************************************************************************************************
 DATASETS  * FILE   NREC   LENGTH (MB)   RECORD NAMES
              1      22       21.69       500      610      700      900      950      970     1000      129      960     1700   
                                          VAR    BASINP    GEOM    SYMINP    ZMAT    AOBASIS   BASIS     P2S    ABASIS    OPER   
                                         1101     1401     1411     1412     1650     1100     1400     1410     1200     1210   
                                          SR      EKINR    POTR     PVPR    MOLCAS      S      EKIN      POT      H0       H01  
                                         1080     1600   
                                         AOSYM     SMH  

              2       4        3.32       700     1000      520     2100   
                                         GEOM     BASIS   MCVARS     RHF  

 PROGRAMS   *        TOTAL       RHF       INT
 CPU TIMES  *        51.22      1.66     49.22
 REAL TIME  *        53.89 SEC
 DISK USED  *         2.07 GB      
 SF USED    *         0.10 MB      
 GA USED    *         0.00 MB       (max)       0.00 MB       (current)
 **********************************************************************************************************************************
 SETTING SCF            =     -3383.52505468  AU                              
 SETTING _CC_NORM_MAX   =         2.00000000                                  


 PROGRAM * CCSD (Restricted open-shell coupled cluster)     Authors: C. Hampel, H.-J. Werner, 1991, M. Deegan, P.J. Knowles, 1992


 Convergence thresholds:  THRVAR = 1.00D-08  THRDEN = 1.00D-06

 CCSD(T)     terms to be evaluated (factor= 1.000)


 Number of core orbitals:          14 (   7   3   3   1 )
 Number of closed-shell orbitals:   6 (   4   1   1   0 )
 Number of external orbitals:     269 ( 116  61  61  31 )

 Memory could be reduced to 67.32 Mwords without degradation in triples

 Number of N-1 electron functions:              12
 Number of N-2 electron functions:              66
 Number of singly external CSFs:              1172
 Number of doubly external CSFs:            997320
 Total number of CSFs:                      998492

 Molecular orbitals read from record     2100.2  Type=RHF/CANONICAL (state 1.1)

 Integral transformation finished. Total CPU:   1.77 sec, npass=  1  Memory used:   6.28 MW

 Starting RMP2 calculation

 Wavefunction is spin-projected

 ITER.      SQ.NORM     CORR.ENERGY   TOTAL ENERGY   ENERGY CHANGE        DEN1      VAR(S)    VAR(P)  DIIS     TIME
   1      1.11227425    -0.31236203 -3383.83741671    -0.31236203    -0.00195598  0.76D-12  0.17D-02  1  1     1.96
   2      1.11687846    -0.31452171 -3383.83957639    -0.00215969    -0.00003410  0.51D-13  0.45D-04  2  2     2.47
   3      1.11770833    -0.31474527 -3383.83979996    -0.00022356    -0.00000020  0.15D-14  0.24D-06  3  3     2.61
   4      1.11774124    -0.31474967 -3383.83980436    -0.00000440    -0.00000000  0.74D-16  0.18D-08  4  4     2.72
   5      1.11774187    -0.31474969 -3383.83980437    -0.00000001    -0.00000000  0.41D-17  0.16D-10  5  5     2.84

 Norm of t1 vector:      0.00000418      S-energy:    -0.00000000      T1 diagnostic:  0.00000085
 Norm of t2 vector:      0.34313535      P-energy:    -0.31474969
                                         Alpha-Beta:  -0.24270859
                                         Alpha-Alpha: -0.03602055
                                         Beta-Beta:   -0.03602055

 Spin contamination <S**2-Sz**2-Sz>     0.00000000
  Reference energy                  -3383.525054681456
  RHF-RMP2 correlation energy          -0.314749688518
 !RHF-RMP2 energy                   -3383.839804369974
 (NB above energy spin projected)

 Starting RCCSD calculation

 ITER.      SQ.NORM     CORR.ENERGY   TOTAL ENERGY   ENERGY CHANGE        DEN1      VAR(S)    VAR(P)  DIIS     TIME
   1      1.12631688    -0.32359531 -3383.84865000    -0.32359531    -0.01005299  0.27D-02  0.48D-02  1  1     4.31
   2      1.15235990    -0.33449724 -3383.85955192    -0.01090192    -0.00134601  0.42D-03  0.10D-02  2  2     5.15
   3      1.17023801    -0.33778672 -3383.86284140    -0.00328948    -0.00031359  0.26D-03  0.18D-03  3  3     5.95
   4      1.18282157    -0.33939079 -3383.86444547    -0.00160407    -0.00008114  0.78D-04  0.38D-04  4  4     6.76
   5      1.19057827    -0.33994754 -3383.86500222    -0.00055675    -0.00002678  0.36D-04  0.75D-05  5  5     7.53
   6      1.19444764    -0.34008219 -3383.86513688    -0.00013466    -0.00001061  0.14D-04  0.40D-05  6  6     8.36
   7      1.19705951    -0.34015293 -3383.86520762    -0.00007074    -0.00000407  0.43D-05  0.22D-05  6  1     9.18
   8      1.19834901    -0.34014223 -3383.86519691     0.00001071    -0.00000130  0.14D-05  0.74D-06  6  2     9.98
   9      1.19948596    -0.34016747 -3383.86522215    -0.00002524    -0.00000037  0.33D-06  0.21D-06  6  3    10.79
  10      1.19958917    -0.34015720 -3383.86521188     0.00001027    -0.00000008  0.77D-07  0.35D-07  6  4    11.59
  11      1.19984335    -0.34015747 -3383.86521215    -0.00000027    -0.00000002  0.13D-07  0.10D-07  6  2    12.39
  12      1.19982523    -0.34015338 -3383.86520806     0.00000408    -0.00000000  0.18D-08  0.38D-08  6  5    13.20
  13      1.19983766    -0.34015414 -3383.86520882    -0.00000075    -0.00000000  0.29D-09  0.98D-09  6  6    14.01

 Norm of t1 vector:      0.17024766      S-energy:    -0.00000013      T1 diagnostic:  0.03475166
                                                                       D1 diagnostic:  0.11258891
 Norm of t2 vector:      0.41334416      P-energy:    -0.34015401
                                         Alpha-Beta:  -0.27099452
                                         Alpha-Alpha: -0.03457974
                                         Beta-Beta:   -0.03457974

 Singles amplitudes (print threshold =  0.500E-01):

         I         SYM. A    A   T(IA) [Alpha-Alpha]

         4         1         1      0.06886153
 
         I         SYM. A    A   T(IA) [Beta-Beta]

         4         1         1      0.06886153

 Doubles amplitudes (print threshold =  0.500E-01):

         I         J         SYM. A    SYM. B    A         B      T(IJ, AB) [Alpha-Beta]

         4         4         1         1         6         6     -0.05187501
         4         4         2         2         1         1     -0.06737667
         4         4         3         3         1         1     -0.06737667
         4         4         4         4         2         2     -0.05187501

 Spin contamination <S**2-Sz**2-Sz>     0.00000000

 Memory could be reduced to 68.50 Mwords without degradation in triples
 

  Correlated core orbitals:             8.1       9.1       4.2       4.3
  Orbital energies:                    -2.3349   -1.3896   -1.3922   -1.3922
 
  RCCSD core-core energy               -0.214783914786
  RCCSD core-valence energy            -0.055015814093
  RCCSD valence correlation energy     -0.070354406638
 

 RESULTS
 =======

  Reference energy                  -3383.525054681456
  RCCSD singles energy                 -0.000000128644
  RCCSD pair energy                    -0.340154006874
  RCCSD correlation energy             -0.340154135518
  Triples (T) contribution             -0.013993623638
  Total correlation energy             -0.354147759156
 
  RHF-RCCSD energy                  -3383.865208816974
  RHF-RCCSD[T] energy               -3383.880145089619
  RHF-RCCSD-T energy                -3383.878896441346
 !RHF-RCCSD(T) energy               -3383.879202440613

 Program statistics:

 Available memory in ccsd:               999999552
 Min. memory needed in ccsd:               3327418
 Max. memory used in ccsd:                 4472774
 Max. memory used in cckext:               4483476 (13 integral passes)
 Max. memory used in cckint:               6281279 ( 1 integral passes)



 **********************************************************************************************************************************
 DATASETS  * FILE   NREC   LENGTH (MB)   RECORD NAMES
              1      22       21.69       500      610      700      900      950      970     1000      129      960     1700   
                                          VAR    BASINP    GEOM    SYMINP    ZMAT    AOBASIS   BASIS     P2S    ABASIS    OPER   
                                         1101     1401     1411     1412     1650     1100     1400     1410     1200     1210   
                                          SR      EKINR    POTR     PVPR    MOLCAS      S      EKIN      POT      H0       H01  
                                         1080     1600   
                                         AOSYM     SMH  

              2       4        3.32       700     1000      520     2100   
                                         GEOM     BASIS   MCVARS     RHF  

 PROGRAMS   *        TOTAL  RCCSD(T)       RHF       INT
 CPU TIMES  *        74.35     22.88      1.66     49.22
 REAL TIME  *        85.57 SEC
 DISK USED  *         3.41 GB      
 SF USED    *       855.16 MB      
 GA USED    *         0.00 MB       (max)       0.00 MB       (current)
 **********************************************************************************************************************************
 SETTING CCSD           =     -3383.87920244  AU                              
 SETTING BIND           =        -0.08026659  AU                              
 Output type csv         
                                                                                                                                                                                                                                                                

  2.50,SCF,CCSD,BIND
   2.5,   -3383.525055,   -3383.879202,   -0.08026659
                                                  

 RCCSD(T)/USERDEF energy=  -3383.879202440613

        RCCSD(T)        RHF-SCF 
  -3383.87920244  -3383.52505468
 **********************************************************************************************************************************
 Molpro calculation terminated
 Variable memory released
