<?xml version="1.0"?>
<molpro xmlns="http://www.molpro.net/schema/molpro-output"
  xmlns:xsd="http://www.w3.org/1999/XMLSchema"
  xmlns:cml="http://www.xml-cml.org/schema"
  xmlns:stm="http://www.xml-cml.org/schema"
  xmlns:xhtml="http://www.w3.org/1999/xhtml">
 <!--

 Nodes     nprocs
 nid01434    11
 Number of processes for MPI-2 version of Molpro:   nprocs(total)=   12   nprocs(compute)=   11   nprocs(helper)=    1

 Using customized tuning parameters: mindgm=7; mindgv=16; mindgc=1; mindgr=1; noblas=0; minvec=7
 default implementation of scratch files=sf

 --><job>
  <!--

 Variables initialized (889), CPU time= 0.02 sec
 Commands  initialized (702), CPU time= 0.01 sec, 572 directives.
 Default parameters read. Elapsed time= 0.12 sec

 Checking input...
 Passed
1


                                         ***  PROGRAM SYSTEM MOLPRO  ***
                                       Copyright, TTI GmbH Stuttgart, 2015
                                    Version 2015.1 linked Dec 29 2018 15:55:43


 **********************************************************************************************************************************
 LABEL *   Calculation for Y atom, singlet and triplet
  64 bit mpp version                                                                     DATE: 22-Oct-22          TIME: 08:53:48
 **********************************************************************************************************************************

 SHA1:             19cd028119e0e09f93f0674bd8af7968d9b3eff6
 **********************************************************************************************************************************
  -->
  <!--

 THRESHOLDS:

 ZERO    =  1.00D-12  ONEINT  =  1.00D-12  TWOINT  =  1.00D-15  PREFAC  =  1.00D-14  LOCALI  =  1.00D-09  EORDER  =  1.00D-04
 ENERGY  =  0.00D+00  ETEST   =  0.00D+00  EDENS   =  0.00D+00  THRDEDEF=  1.00D-06  GRADIENT=  1.00D-02  STEP    =  1.00D-03
 ORBITAL =  1.00D-05  CIVEC   =  1.00D-05  COEFF   =  1.00D-04  PRINTCI =  5.00D-02  PUNCHCI =  9.90D+01  OPTGRAD =  3.00D-04
 OPTENERG=  1.00D-06  OPTSTEP =  3.00D-04  THRGRAD =  1.00D-10  COMPRESS=  1.00D-11  VARMIN  =  1.00D-07  VARMAX  =  1.00D-03
 THRDOUB =  0.00D+00  THRDIV  =  1.00D-05  THRRED  =  1.00D-07  THRPSP  =  1.00D+00  THRDC   =  1.00D-10  THRCS   =  1.00D-10
 THRNRM  =  1.00D-08  THREQ   =  0.00D+00  THRDE   =  1.00D+00  THRREF  =  1.00D-05  SPARFAC =  1.00D+00  THRDLP  =  1.00D-07
 THRDIA  =  1.00D-10  THRDLS  =  1.00D-07  THRGPS  =  0.00D+00  THRKEX  =  0.00D+00  THRDIS  =  2.00D-01  THRVAR  =  1.00D-10
 THRLOC  =  1.00D-06  THRGAP  =  1.00D-06  THRLOCT = -1.00D+00  THRGAPT = -1.00D+00  THRORB  =  1.00D-06  THRMLTP =  0.00D+00
 THRCPQCI=  1.00D-10  KEXTA   =  0.00D+00  THRCOARS=  0.00D+00  SYMTOL  =  1.00D-06  GRADTOL =  1.00D-06  THROVL  =  1.00D-08
 THRORTH =  1.00D-08  GRID    =  1.00D-06  GRIDMAX =  1.00D-03  DTMAX   =  0.00D+00  THROCCDE=  1.00D-01  THROCCDE=  1.00D-01



 THRESHOLDS:

 ZERO    =  1.00D-12  ONEINT  =  1.00D-12  TWOINT  =  1.00D-15  PREFAC  =  1.00D-14  LOCALI  =  1.00D-09  EORDER  =  1.00D-04
 ENERGY  =  0.00D+00  ETEST   =  0.00D+00  EDENS   =  0.00D+00  THRDEDEF=  1.00D-06  GRADIENT=  1.00D-02  STEP    =  1.00D-03
 ORBITAL =  1.00D-05  CIVEC   =  1.00D-05  COEFF   =  1.00D-04  PRINTCI =  5.00D-02  PUNCHCI =  9.90D+01  OPTGRAD =  3.00D-04
 OPTENERG=  1.00D-06  OPTSTEP =  3.00D-04  THRGRAD =  1.00D-10  COMPRESS=  1.00D-11  VARMIN  =  1.00D-07  VARMAX  =  1.00D-03
 THRDOUB =  0.00D+00  THRDIV  =  1.00D-05  THRRED  =  1.00D-07  THRPSP  =  1.00D+00  THRDC   =  1.00D-10  THRCS   =  1.00D-10
 THRNRM  =  1.00D-08  THREQ   =  0.00D+00  THRDE   =  1.00D+00  THRREF  =  1.00D-05  SPARFAC =  1.00D+00  THRDLP  =  1.00D-07
 THRDIA  =  1.00D-10  THRDLS  =  1.00D-07  THRGPS  =  0.00D+00  THRKEX  =  0.00D+00  THRDIS  =  2.00D-01  THRVAR  =  1.00D-10
 THRLOC  =  1.00D-06  THRGAP  =  1.00D-06  THRLOCT = -1.00D+00  THRGAPT = -1.00D+00  THRORB  =  1.00D-06  THRMLTP =  0.00D+00
 THRCPQCI=  1.00D-10  KEXTA   =  0.00D+00  THRCOARS=  0.00D+00  SYMTOL  =  1.00D-06  GRADTOL =  1.00D-06  THROVL  =  1.00D-15
 THRORTH =  1.00D-08  GRID    =  1.00D-06  GRIDMAX =  1.00D-03  DTMAX   =  0.00D+00  THROCCDE=  1.00D-01  THROCCDE=  1.00D-01



 Variable memory set to 1000000000 words,  buffer space   230000 words

 SETTING BASIS          =    USERDEF
 SETTING TA_CCSD        =       -57.14841446
 SETTING O_CCSD         =       -15.86622096
 SETTING NE             =        19.00000000
 SETTING SYMM           =         1.00000000
 SETTING SS             =         1.00000000
 SETTING A1             =         5.00000000
 SETTING B1             =         2.00000000
 SETTING B2             =         2.00000000
 SETTING A2             =         1.00000000

Geometry recognized as XYZ

  --><jobstep command="RHF-SCF" commandset="SCFPRO">
   <!--


 Recomputing integrals since basis changed


 Using spherical harmonics



 PROGRAM * SEWARD (Integral evaluation for generally contracted gaussian basis sets)     Author: Roland Lindh, 1990

 Geometry written to block  1 of record 700


 Point group  C2v


   --><cml:molecule>
    <cml:symmetry pointGroup="C2v"/>
    <cml:atomArray>
     <cml:atom id="a1" elementType="Ta" x3="0.0" y3="0.0" z3="0.0"/>
     <cml:atom id="a2" elementType="O" x3="0.0" y3="0.0" z3="2.6"/>
    </cml:atomArray>
    <cml:bondArray>
     <cml:bond atomRefs2="a1 a2"/>
    </cml:bondArray>
   </cml:molecule><!--

 ATOMIC COORDINATES

 NR  ATOM    CHARGE       X              Y              Z

   1  TA     13.00    0.000000000    0.000000000    0.000000000
   2  O       6.00    0.000000000    0.000000000    4.913287924

 Bond lengths in Bohr (Angstrom)

 1-2  4.913287924
     ( 2.600000000)

 NUCLEAR CHARGE:                   19
 NUMBER OF PRIMITIVE AOS:         536
 NUMBER OF SYMMETRY AOS:          441
 NUMBER OF CONTRACTIONS:          441   ( 182A1  + 105B1  + 105B2  +  49A2  )
 NUMBER OF CORE ORBITALS:           4   (   2A1  +   1B1  +   1B2  +   0A2  )
 NUMBER OF VALENCE ORBITALS:       10   (   5A1  +   2B1  +   2B2  +   1A2  )


 NUCLEAR REPULSION ENERGY   15.87531633

 EXTRA SYMMETRY OF AOS IN SYMMETRY 1:   1 1 1 1 1 1 1 1 1 1   1 1 1 1 1 1 1 1 1 1   1 1 1 1 1 1 1 1 1 1   1 1 1 1 1 1 1 1 1 1
                                        1 1 1 1 1 1 1 1 1 1   1 1 1 1 1 1 1 1 1 1   1 1 1 1 1 1 1 2 1 2   1 2 1 2 1 2 1 2 1 2
                                        1 2 1 2 1 2 1 2 1 2   1 2 1 2 1 2 1 2 1 2   1 2 1 2 1 2 1 2 1 2   1 2 1 2 1 2 1 2 1 2
                                        1 2 1 2 1 2 1 2 1 2   1 2 1 2 1 2 1 2 1 2   1 3 2 1 3 2 1 3 2 1   1 1 1 1 1 1 1 1 1 1
                                        1 1 1 1 1 1 1 1 1 1   1 2 1 2 1 2 1 2 1 2   1 2
 EXTRA SYMMETRY OF AOS IN SYMMETRY 2:   1 1 1 1 1 1 1 1 1 1   1 1 1 1 1 1 1 1 1 1   1 1 1 1 1 1 1 1 1 1   1 1 1 1 1 1 1 1 1 1
                                        1 1 1 1 1 1 1 1 1 1   1 1 1 1 2 1 2 1 2 1   2 1 2 1 2 1 2 1 2 1   2 1 2 1 2 1 2 1 2 1
                                        2 1 2 1 2 1 2 1 2 1   1 1 1 1 1 1 1 1 1 1   1 1 2 1 2
 EXTRA SYMMETRY OF AOS IN SYMMETRY 3:   1 1 1 1 1 1 1 1 1 1   1 1 1 1 1 1 1 1 1 1   1 1 1 1 1 1 1 1 1 1   1 1 1 1 1 1 1 1 1 1
                                        1 1 1 1 1 1 1 1 1 1   1 1 1 1 2 1 2 1 2 1   2 1 2 1 2 1 2 1 2 1   2 1 2 1 2 1 2 1 2 1
                                        2 1 2 1 2 1 2 1 2 1   1 1 1 1 1 1 1 1 1 1   1 1 2 1 2
 EXTRA SYMMETRY OF AOS IN SYMMETRY 4:   1 1 1 1 1 1 1 1 1 1   1 1 1 1 1 1 1 1 1 1   1 1 1 1 1 1 1 1 1 1   1 1 1 1 1 1 1 1 2 1
                                        2 1 2 1 1 1 1 1 1

 Eigenvalues of metric

         1 0.419E-06 0.678E-06 0.107E-04 0.133E-04 0.139E-04 0.222E-04 0.459E-04 0.711E-04
         2 0.467E-06 0.113E-04 0.138E-04 0.970E-04 0.100E-03 0.132E-03 0.141E-03 0.442E-03
         3 0.467E-06 0.113E-04 0.138E-04 0.970E-04 0.100E-03 0.132E-03 0.141E-03 0.442E-03
         4 0.139E-04 0.999E-04 0.143E-03 0.607E-03 0.146E-02 0.227E-02 0.654E-02 0.735E-02


 Contracted 2-electron integrals neglected if value below      1.0D-15
 AO integral compression algorithm  1   Integral accuracy      1.0D-15

     3736.601 MB (compressed) written to integral file ( 33.3%)

     Node minimum: 171.442 MB, node maximum: 765.460 MB


 NUMBER OF SORTED TWO-ELECTRON INTEGRALS:  110534133.     BUFFER LENGTH:  32768
 NUMBER OF SEGMENTS:   4  SEGMENT LENGTH:   31989576      RECORD LENGTH: 524288

 Memory used in sort:      32.55 MW

 SORT1 READ  1401473000. AND WROTE    37707107. INTEGRALS IN    109 RECORDS. CPU TIME:    20.01 SEC, REAL TIME:    27.42 SEC
 SORT2 READ   407234540. AND WROTE  1216411966. INTEGRALS IN   7194 RECORDS. CPU TIME:     1.71 SEC, REAL TIME:     2.54 SEC

 Node minimum:   110449701.  Node maximum:   110660215. integrals

 OPERATOR DM      FOR CENTER  0  COORDINATES:    0.000000    0.000000    0.000000


 **********************************************************************************************************************************
 DATASETS  * FILE   NREC   LENGTH (MB)   RECORD NAMES
              1      19       22.35       500      610      700      900      950      970     1000      129      960     1100
                                          VAR    BASINP    GEOM    SYMINP    ZMAT    AOBASIS   BASIS     P2S    ABASIS      S
                                         1400     1410     1420     1200     1210     1080     1600     1650     1700
                                           T        V       ECP      H0       H01     AOSYM     SMH    MOLCAS    OPER

 PROGRAMS   *        TOTAL       INT
 CPU TIMES  *       157.21    156.96
 REAL TIME  *       166.83 SEC
 DISK USED  *         8.69 GB
 GA USED    *         0.00 MB       (max)       0.00 MB       (current)
 **********************************************************************************************************************************


 PROGRAM * RHF-SCF (OPEN SHELL)       Authors: W. Meyer, H.-J. Werner


 NUMBER OF ELECTRONS:      10+    9-    SPACE SYMMETRY=1    SPIN SYMMETRY: Doublet
 CONVERGENCE THRESHOLDS:    1.00E-05 (Density)    1.00E-07 (Energy)
 MAX. NUMBER OF ITERATIONS:      200
 INTERPOLATION TYPE:            DIIS
 INTERPOLATION STEPS:              2 (START)      1 (STEP)
 LEVEL SHIFTS:                 -0.60 (CLOSED) -0.30 (OPEN)

 Number of closed-shell orbitals:    9 (   4   2   2   1 )
 Number of open-shell orbitals:      1 (   1   0   0   0 )


 Orbital guess generated from atomic densities. Full valence occupancy:    7   3   3   1

 Molecular orbital dump at record        2100.2

 ITERATION    DDIFF          GRAD             ENERGY        2-EL.EN.            DIPOLE MOMENTS         DIIS   ORB.
    1      0.000D+00      0.000D+00       -71.75323247    130.052959    0.00000    0.00000   -8.66332    0    start
    2      0.000D+00      0.153D-01       -72.13993258    127.499221    0.00000    0.00000   -2.88557    1    diag,B
    3      0.109D-01      0.110D-01       -72.25139174    128.882491    0.00000    0.00000   -4.16326    2    diag,B
    4      0.483D-02      0.220D-02       -72.26826032    129.275811    0.00000    0.00000   -3.58601    3    diag,B
    5      0.484D-02      0.120D-02       -72.27744435    129.354239    0.00000    0.00000   -3.28415    4    diag,B
    6      0.229D-02      0.839D-03       -72.28828213    129.234710    0.00000    0.00000   -2.92300    5    diag,B
    7      0.208D-02      0.764D-03       -72.29938329    129.033812    0.00000    0.00000   -2.64726    6    diag,B
    8      0.153D-02      0.734D-03       -72.30595988    128.892488    0.00000    0.00000   -2.54358    7    diag,B
    9      0.139D-02      0.738D-03       -72.29195620    129.259343    0.00000    0.00000   -2.77750    8    diag,B
   10      0.250D-02      0.640D-03       -72.28630289    129.638727    0.00000    0.00000   -2.76025    9    orth
   11      0.158D-02      0.571D-03       -72.28512956    129.877174    0.00000    0.00000   -2.78072    9    diag,B
   12      0.970D-03      0.372D-03       -72.28546647    130.116290    0.00000    0.00000   -2.67889    9    diag,B
   13      0.107D-02      0.308D-03       -72.28610368    130.284714    0.00000    0.00000   -2.67967    9    diag,B
   14      0.772D-03      0.234D-03       -72.28658386    130.450517    0.00000    0.00000   -2.69397    9    diag,B
   15      0.661D-03      0.192D-03       -72.28548182    130.738294    0.00000    0.00000   -2.67660    9    diag,B
   16      0.141D-02      0.343D-03       -72.28621875    130.675982    0.00000    0.00000   -2.68517    9    diag,B
   17      0.440D-03      0.260D-03       -72.28727564    130.559963    0.00000    0.00000   -2.66476    9    diag,B
   18      0.880D-03      0.187D-03       -72.28761103    130.601484    0.00000    0.00000   -2.66270    9    diag,B
   19      0.403D-03      0.132D-03       -72.28839299    130.453352    0.00000    0.00000   -2.60271    9    fixocc
   20      0.703D-03      0.100D-03       -72.28879216    130.391532    0.00000    0.00000   -2.55559    9    orth
   21      0.291D-03      0.717D-04       -72.28910484    130.339074    0.00000    0.00000   -2.48783    9    diag,B
   22      0.308D-03      0.388D-04       -72.28924650    130.277897    0.00000    0.00000   -2.41847    9    diag,B
   23      0.405D-03      0.315D-04       -72.28931956    130.223246    0.00000    0.00000   -2.39018    9    diag,B
   24      0.275D-03      0.333D-04       -72.28930695    130.231530    0.00000    0.00000   -2.39518    9    diag,B
   25      0.491D-04      0.298D-04       -72.28931073    130.229310    0.00000    0.00000   -2.39122    9    diag,B
   26      0.310D-04      0.314D-04       -72.28928102    130.248555    0.00000    0.00000   -2.39606    9    diag,B
   27      0.994D-04      0.276D-04       -72.28926312    130.261705    0.00000    0.00000   -2.40477    9    diag,B
   28      0.669D-04      0.254D-04       -72.28925084    130.270600    0.00000    0.00000   -2.40730    9    diag,B
   29      0.421D-04      0.247D-04       -72.28924686    130.274803    0.00000    0.00000   -2.41701    9    diag,B
   30      0.437D-04      0.225D-04       -72.28929760    130.237795    0.00000    0.00000   -2.39765    9    orth
   31      0.176D-03      0.209D-04       -72.28934247    130.201897    0.00000    0.00000   -2.37966    9    diag,B
   32      0.159D-03      0.212D-04       -72.28917760    130.321885    0.00000    0.00000   -2.43055    9    diag,B
   33      0.539D-03      0.267D-04       -72.28949970    130.095512    0.00000    0.00000   -2.32237    9    diag,B
   34      0.102D-02      0.320D-04       -72.29007180    129.899939    0.00000    0.00000   -2.22650    9    diag,B
   35      0.885D-03      0.866D-04       -72.28968723    130.007428    0.00000    0.00000   -2.27583    9    diag,B
   36      0.488D-03      0.544D-04       -72.28975475    129.982551    0.00000    0.00000   -2.25967    9    diag,B
   37      0.116D-03      0.624D-04       -72.29004609    129.905800    0.00000    0.00000   -2.22784    9    diag,B
   38      0.348D-03      0.840D-04       -72.28969061    130.005166    0.00000    0.00000   -2.27101    9    diag,B
   39      0.451D-03      0.556D-04       -72.28964643    130.021979    0.00000    0.00000   -2.27863    9    diag,B
   40      0.759D-04      0.515D-04       -72.28964397    130.023153    0.00000    0.00000   -2.27995    9    orth
   41      0.172D-04      0.496D-04       -72.29029043    129.854794    0.00000    0.00000   -2.20057    9    diag,B
   42      0.770D-03      0.107D-03       -72.28961376    130.034921    0.00000    0.00000   -2.28362    9    diag,B
   43      0.824D-03      0.470D-04       -72.28964639    130.021692    0.00000    0.00000   -2.27848    9    diag,B
   44      0.590D-04      0.493D-04       -72.28975449    129.983164    0.00000    0.00000   -2.26186    9    diag,B
   45      0.173D-03      0.604D-04       -72.28989330    129.943187    0.00000    0.00000   -2.24564    9    diag,B
   46      0.181D-03      0.701D-04       -72.28962323    130.033092    0.00000    0.00000   -2.28606    9    diag,B
   47      0.399D-03      0.479D-04       -72.28976280    129.981197    0.00000    0.00000   -2.26108    9    diag,B
   48      0.229D-03      0.621D-04       -72.28959189    130.045187    0.00000    0.00000   -2.29030    9    diag,B
   49      0.286D-03      0.455D-04       -72.28964266    130.023959    0.00000    0.00000   -2.28207    9    diag,B
   50      0.935D-04      0.481D-04       -72.29000074    129.914871    0.00000    0.00000   -2.22853    9    orth
   51      0.493D-03      0.836D-04       -72.28961755    130.035768    0.00000    0.00000   -2.29018    9    diag,B
   52      0.543D-03      0.440D-04       -72.28970418    130.003332    0.00000    0.00000   -2.27736    9    diag,B
   53      0.145D-03      0.513D-04       -72.28939078    130.163189    0.00000    0.00000   -2.34651    9    diag,B
   54      0.721D-03      0.259D-04       -72.28934898    130.194604    0.00000    0.00000   -2.36062    9    diag,B
   55      0.139D-03      0.249D-04       -72.28938341    130.169777    0.00000    0.00000   -2.35141    9    diag,B
   56      0.113D-03      0.258D-04       -72.28934228    130.200904    0.00000    0.00000   -2.36561    9    diag,B
   57      0.144D-03      0.244D-04       -72.28836870    130.549775    0.00000    0.00000   -2.50796    9    diag,B
   58      0.167D-02      0.110D-03       -72.28941909    130.145508    0.00000    0.00000   -2.34223    9    diag,B
   59      0.193D-02      0.269D-04       -72.28935552    130.191664    0.00000    0.00000   -2.36198    9    diag,B
   60      0.212D-03      0.244D-04       -72.28851867    130.524528    0.00000    0.00000   -2.49868    9    orth
   61      0.160D-02      0.986D-04       -72.28945435    130.122015    0.00000    0.00000   -2.33091    9    diag,B
   62      0.191D-02      0.293D-04       -72.28925097    130.271512    0.00000    0.00000   -2.39670    9    diag,B
   63      0.683D-03      0.269D-04       -72.28922205    130.290427    0.00000    0.00000   -2.40254    9    diag,B
   64      0.922D-04      0.294D-04       -72.28946381    130.116820    0.00000    0.00000   -2.33790    9    diag,B
   65      0.798D-03      0.281D-04       -72.28941400    130.146941    0.00000    0.00000   -2.33695    9    diag,B
   66      0.144D-03      0.269D-04       -72.28854160    130.521853    0.00000    0.00000   -2.50151    9    diag,B
   67      0.179D-02      0.961D-04       -72.28941392    130.149006    0.00000    0.00000   -2.34482    9    diag,B
   68      0.178D-02      0.265D-04       -72.28934894    130.196399    0.00000    0.00000   -2.36167    9    diag,B
   69      0.214D-03      0.243D-04       -72.28864964    130.500242    0.00000    0.00000   -2.49299    9    diag,B
   70      0.146D-02      0.852D-04       -72.28948472    130.103310    0.00000    0.00000   -2.32153    9    orth
   71      0.187D-02      0.318D-04       -72.28925365    130.269407    0.00000    0.00000   -2.39490    9    diag,B
   72      0.757D-03      0.268D-04       -72.28917726    130.318785    0.00000    0.00000   -2.41488    9    diag,B
   73      0.233D-03      0.332D-04       -72.28924409    130.277604    0.00000    0.00000   -2.40121    9    diag,B
   74      0.214D-03      0.261D-04       -72.28981648    129.964782    0.00000    0.00000   -2.25375    9    diag,B
   75      0.140D-02      0.627D-04       -72.28908722    130.365573    0.00000    0.00000   -2.43273    9    diag,B
   76      0.182D-02      0.432D-04       -72.28921666    130.293842    0.00000    0.00000   -2.40290    9    diag,B
   77      0.335D-03      0.306D-04       -72.28938031    130.173119    0.00000    0.00000   -2.35447    9    diag,B
   78      0.555D-03      0.254D-04       -72.28995000    129.928001    0.00000    0.00000   -2.23860    9    diag,B
   79      0.110D-02      0.738D-04       -72.28917723    130.318403    0.00000    0.00000   -2.41268    9    diag,B
   80      0.176D-02      0.346D-04       -72.28916058    130.327890    0.00000    0.00000   -2.41638    9    orth
   81      0.446D-04      0.359D-04       -72.28965799    130.019471    0.00000    0.00000   -2.28227    9    diag,B
   82      0.140D-02      0.492D-04       -72.28904702    130.383063    0.00000    0.00000   -2.43930    9    diag,B
   83      0.166D-02      0.465D-04       -72.28922743    130.286865    0.00000    0.00000   -2.40021    9    diag,B
   84      0.453D-03      0.289D-04       -72.28932210    130.218399    0.00000    0.00000   -2.37442    9    diag,B
   85      0.322D-03      0.239D-04       -72.28977171    129.979699    0.00000    0.00000   -2.26319    9    diag,B
   86      0.107D-02      0.594D-04       -72.28904940    130.382249    0.00000    0.00000   -2.43888    9    diag,B
   87      0.184D-02      0.468D-04       -72.28918412    130.314640    0.00000    0.00000   -2.41200    9    diag,B
   88      0.322D-03      0.329D-04       -72.28943161    130.136791    0.00000    0.00000   -2.33926    9    diag,B
   89      0.816D-03      0.276D-04       -72.28908310    130.368848    0.00000    0.00000   -2.43499    9    diag,B
   90      0.107D-02      0.418D-04       -72.28923488    130.283057    0.00000    0.00000   -2.40063    9    orth
   91      0.403D-03      0.280D-04       -72.28936100    130.188031    0.00000    0.00000   -2.36307    9    diag,B
   92      0.436D-03      0.246D-04       -72.28982810    129.961689    0.00000    0.00000   -2.25764    9    diag,B
   93      0.102D-02      0.634D-04       -72.28905707    130.379140    0.00000    0.00000   -2.43828    9    diag,B
   94      0.190D-02      0.463D-04       -72.28917620    130.319506    0.00000    0.00000   -2.41348    9    diag,B
   95      0.283D-03      0.336D-04       -72.28937139    130.179973    0.00000    0.00000   -2.35612    9    diag,B
   96      0.643D-03      0.241D-04       -72.28941298    130.149088    0.00000    0.00000   -2.34605    9    diag,B
   97      0.141D-03      0.266D-04       -72.28794130    130.609942    0.00000    0.00000   -2.53428    9    diag,B
   98      0.224D-02      0.145D-03       -72.28929888    130.237154    0.00000    0.00000   -2.38549    9    diag,B
   99      0.184D-02      0.241D-04       -72.28937492    130.177991    0.00000    0.00000   -2.35957    9    diag,B
  100      0.271D-03      0.247D-04       -72.28817749    130.580204    0.00000    0.00000   -2.52350    9    orth
  101      0.195D-02      0.125D-03       -72.28921362    130.298827    0.00000    0.00000   -2.40939    9    diag,B
  102      0.140D-02      0.288D-04       -72.28935132    130.196895    0.00000    0.00000   -2.36747    9    diag,B
  103      0.469D-03      0.238D-04       -72.28952741    130.078566    0.00000    0.00000   -2.31732    9    diag,B
  104      0.524D-03      0.360D-04       -72.28823369    130.570609    0.00000    0.00000   -2.51314    9    diag,B
  105      0.233D-02      0.124D-03       -72.28911946    130.352577    0.00000    0.00000   -2.43230    9    diag,B
  106      0.110D-02      0.377D-04       -72.28920209    130.306355    0.00000    0.00000   -2.41611    9    diag,B
  107      0.217D-03      0.292D-04       -72.28941468    130.147968    0.00000    0.00000   -2.34121    9    diag,B
  108      0.723D-03      0.282D-04       -72.28946497    130.114654    0.00000    0.00000   -2.32380    9    diag,B
  109      0.151D-03      0.322D-04       -72.28910794    130.357127    0.00000    0.00000   -2.43735    9    diag,B
  110      0.111D-02      0.393D-04       -72.28889113    130.440736    0.00000    0.00000   -2.47032    9    orth
  111      0.404D-03      0.614D-04       -72.28926423    130.263118    0.00000    0.00000   -2.39867    9    diag,B
  112      0.843D-03      0.255D-04       -72.28928459    130.247758    0.00000    0.00000   -2.39216    9    diag,B
  113      0.694D-04      0.248D-04       -72.28967259    130.014017    0.00000    0.00000   -2.27881    9    diag,B
  114      0.105D-02      0.526D-04       -72.28894208    130.422769    0.00000    0.00000   -2.46014    9    diag,B
  115      0.186D-02      0.571D-04       -72.28910318    130.359729    0.00000    0.00000   -2.43528    9    diag,B
  116      0.303D-03      0.401D-04       -72.28925320    130.270912    0.00000    0.00000   -2.39776    9    diag,B
  117      0.411D-03      0.265D-04       -72.28918666    130.315394    0.00000    0.00000   -2.41970    9    diag,B
  118      0.207D-03      0.314D-04       -72.28887222    130.446503    0.00000    0.00000   -2.47413    9    diag,B
  119      0.623D-03      0.622D-04       -72.28930511    130.231921    0.00000    0.00000   -2.38203    9    diag,B
  120      0.101D-02      0.248D-04       -72.28927525    130.254839    0.00000    0.00000   -2.39269    9    orth
  121      0.105D-03      0.258D-04       -72.28865057    130.501300    0.00000    0.00000   -2.49622    9    diag,B
  122      0.118D-02      0.832D-04       -72.28929228    130.242054    0.00000    0.00000   -2.38672    9    diag,B
  123      0.125D-02      0.249D-04       -72.28926907    130.259759    0.00000    0.00000   -2.39477    9    diag,B
  124      0.803D-04      0.257D-04       -72.28882425    130.459910    0.00000    0.00000   -2.48170    9    diag,B
  125      0.957D-03      0.649D-04       -72.28924228    130.279066    0.00000    0.00000   -2.40250    9    diag,B
  126      0.868D-03      0.275D-04       -72.28922483    130.291132    0.00000    0.00000   -2.40766    9    diag,B
  127      0.557D-04      0.286D-04       -72.28931883    130.220613    0.00000    0.00000   -2.37980    9    diag,B
  128      0.323D-03      0.247D-04       -72.28925459    130.267910    0.00000    0.00000   -2.40462    9    diag,B
  129      0.220D-03      0.247D-04       -72.28838451    130.549909    0.00000    0.00000   -2.51493    9    diag,B
  130      0.137D-02      0.107D-03       -72.28926111    130.265399    0.00000    0.00000   -2.39779    9    orth
  131      0.139D-02      0.256D-04       -72.28925794    130.267746    0.00000    0.00000   -2.39903    9    diag,B
  132      0.114D-04      0.256D-04       -72.28878812    130.469172    0.00000    0.00000   -2.48209    9    diag,B
  133      0.962D-03      0.704D-04       -72.28922012    130.293885    0.00000    0.00000   -2.41078    9    diag,B
  134      0.842D-03      0.283D-04       -72.28924364    130.277552    0.00000    0.00000   -2.40375    9    diag,B
  135      0.759D-04      0.266D-04       -72.28905635    130.381805    0.00000    0.00000   -2.44823    9    diag,B
  136      0.490D-03      0.438D-04       -72.28916606    130.327270    0.00000    0.00000   -2.42547    9    diag,B
  137      0.256D-03      0.331D-04       -72.28922067    130.293637    0.00000    0.00000   -2.41219    9    diag,B
  138      0.158D-03      0.279D-04       -72.28903926    130.388474    0.00000    0.00000   -2.45187    9    diag,B
  139      0.439D-03      0.450D-04       -72.28918824    130.313253    0.00000    0.00000   -2.42009    9    diag,B
  140      0.349D-03      0.308D-04       -72.28912936    130.347072    0.00000    0.00000   -2.43239    9    orth
  141      0.160D-03      0.366D-04       -72.28918152    130.318432    0.00000    0.00000   -2.42426    9    diag,B
  142      0.143D-03      0.310D-04       -72.28910627    130.358702    0.00000    0.00000   -2.44026    9    diag,B
  143      0.192D-03      0.380D-04       -72.28909370    130.364018    0.00000    0.00000   -2.44013    9    diag,B
  144      0.503D-04      0.398D-04       -72.28911021    130.357118    0.00000    0.00000   -2.43662    9    diag,B
  145      0.426D-04      0.386D-04       -72.28911571    130.354473    0.00000    0.00000   -2.43674    9    diag,B
  146      0.146D-04      0.378D-04       -72.28911224    130.356301    0.00000    0.00000   -2.43800    9    diag,B
  147      0.130D-04      0.380D-04       -72.28907383    130.374242    0.00000    0.00000   -2.44415    9    diag,B
  148      0.861D-04      0.422D-04       -72.28924696    130.275332    0.00000    0.00000   -2.40561    9    diag,B
  149      0.466D-03      0.259D-04       -72.28922421    130.291084    0.00000    0.00000   -2.41191    9    diag,B
  150      0.742D-04      0.278D-04       -72.28870436    130.489621    0.00000    0.00000   -2.49233    9    orth
  151      0.957D-03      0.784D-04       -72.28928102    130.250448    0.00000    0.00000   -2.39170    9    diag,B
  152      0.114D-02      0.248D-04       -72.28925356    130.270675    0.00000    0.00000   -2.40010    9    diag,B
  153      0.934D-04      0.263D-04       -72.28912388    130.349740    0.00000    0.00000   -2.43982    9    diag,B
  154      0.372D-03      0.348D-04       -72.28891949    130.431276    0.00000    0.00000   -2.46539    9    diag,B
  155      0.396D-03      0.580D-04       -72.28924033    130.279757    0.00000    0.00000   -2.40518    9    diag,B
  156      0.722D-03      0.268D-04       -72.28925394    130.269720    0.00000    0.00000   -2.40115    9    diag,B
  157      0.465D-04      0.259D-04       -72.28890631    130.436552    0.00000    0.00000   -2.47190    9    diag,B
  158      0.793D-03      0.578D-04       -72.28926905    130.259093    0.00000    0.00000   -2.39545    9    diag,B
  159      0.842D-03      0.255D-04       -72.28930722    130.229849    0.00000    0.00000   -2.38203    9    diag,B
  160      0.132D-03      0.244D-04       -72.28906960    130.375939    0.00000    0.00000   -2.44511    9    orth
  161      0.682D-03      0.426D-04       -72.28931935    130.219917    0.00000    0.00000   -2.37889    9    diag,B
  162      0.729D-03      0.240D-04       -72.28933021    130.211190    0.00000    0.00000   -2.37613    9    diag,B
  163      0.428D-04      0.236D-04       -72.28863673    130.504003    0.00000    0.00000   -2.49904    9    diag,B
  164      0.140D-02      0.828D-04       -72.28929985    130.235935    0.00000    0.00000   -2.38438    9    diag,B
  165      0.129D-02      0.244D-04       -72.28935596    130.192519    0.00000    0.00000   -2.36503    9    diag,B
  166      0.194D-03      0.243D-04       -72.28917335    130.323208    0.00000    0.00000   -2.42758    9    diag,B
  167      0.598D-03      0.272D-04       -72.28929045    130.241976    0.00000    0.00000   -2.38520    9    diag,B
  168      0.374D-03      0.255D-04       -72.28942668    130.140069    0.00000    0.00000   -2.34454    9    diag,B
  169      0.456D-03      0.280D-04       -72.28881580    130.460447    0.00000    0.00000   -2.47753    9    diag,B
  170      0.149D-02      0.650D-04       -72.28936676    130.183839    0.00000    0.00000   -2.36007    9    orth
  171      0.130D-02      0.247D-04       -72.28925909    130.266798    0.00000    0.00000   -2.39786    9    diag,B
  172      0.381D-03      0.259D-04       -72.28846619    130.534499    0.00000    0.00000   -2.50398    9    diag,B
  173      0.130D-02      0.101D-03       -72.28939075    130.166634    0.00000    0.00000   -2.35399    9    diag,B
  174      0.176D-02      0.253D-04       -72.28931319    130.225466    0.00000    0.00000   -2.37754    9    diag,B
  175      0.264D-03      0.239D-04       -72.28838183    130.548783    0.00000    0.00000   -2.51086    9    diag,B
  176      0.157D-02      0.110D-03       -72.28939715    130.161781    0.00000    0.00000   -2.35020    9    diag,B
  177      0.186D-02      0.253D-04       -72.28920953    130.300528    0.00000    0.00000   -2.40973    9    diag,B
  178      0.635D-03      0.292D-04       -72.28930574    130.230209    0.00000    0.00000   -2.38062    9    diag,B
  179      0.324D-03      0.251D-04       -72.28993502    129.931707    0.00000    0.00000   -2.23954    9    diag,B
  180      0.134D-02      0.771D-04       -72.28910414    130.357104    0.00000    0.00000   -2.42952    9    orth
  181      0.193D-02      0.417D-04       -72.28920119    130.304133    0.00000    0.00000   -2.40884    9    diag,B
  182      0.252D-03      0.316D-04       -72.28937649    130.177215    0.00000    0.00000   -2.35563    9    diag,B
  183      0.590D-03      0.238D-04       -72.28932115    130.217027    0.00000    0.00000   -2.38313    9    diag,B
  184      0.207D-03      0.233D-04       -72.28854120    130.521676    0.00000    0.00000   -2.50326    9    diag,B
  185      0.146D-02      0.908D-04       -72.28932414    130.216984    0.00000    0.00000   -2.37415    9    diag,B
  186      0.147D-02      0.239D-04       -72.28945616    130.122150    0.00000    0.00000   -2.33424    9    diag,B
  187      0.430D-03      0.296D-04       -72.28861742    130.503941    0.00000    0.00000   -2.48555    9    diag,B
  188      0.181D-02      0.897D-04       -72.28929925    130.235853    0.00000    0.00000   -2.38423    9    diag,B
  189      0.129D-02      0.246D-04       -72.28945122    130.125082    0.00000    0.00000   -2.33763    9    diag,B
  190      0.503D-03      0.293D-04       -72.28841327    130.540877    0.00000    0.00000   -2.49942    9    orth
  191      0.198D-02      0.108D-03       -72.28935476    130.193565    0.00000    0.00000   -2.36510    9    diag,B
  192      0.168D-02      0.241D-04       -72.28950810    130.091992    0.00000    0.00000   -2.32211    9    diag,B
  193      0.457D-03      0.337D-04       -72.28895634    130.416459    0.00000    0.00000   -2.45169    9    diag,B
  194      0.151D-02      0.561D-04       -72.28923326    130.283552    0.00000    0.00000   -2.40089    9    diag,B
  195      0.634D-03      0.285D-04       -72.28933061    130.211881    0.00000    0.00000   -2.37195    9    diag,B
  196      0.332D-03      0.243D-04       -72.28956961    130.058498    0.00000    0.00000   -2.31574    9    diag,B
  197      0.683D-03      0.386D-04       -72.28872412    130.480848    0.00000    0.00000   -2.47648    9    diag,B
  198      0.196D-02      0.793D-04       -72.28935216    130.195163    0.00000    0.00000   -2.36549    9    diag,B
  199      0.136D-02      0.242D-04       -72.28955849    130.064177    0.00000    0.00000   -2.30660    9    orth
  200      0.584D-03      0.394D-04       -72.28958632    130.047107    0.00000    0.00000   -2.30540    0    orth

 Final alpha occupancy:   5   2   2   1
 Final beta  occupancy:   4   2   2   1

 !RHF STATE 1.1 Energy                -72.289586315505
   --><property name="Energy" method="RHF" principal="true" stateSymmetry="1" stateNumber="1"
     value="-72.289586315505"/><!--
 Nuclear energy                        15.87531633
 One-electron energy                 -153.18845605
 Two-electron energy                   65.02355340
 Virial quotient                       -2.33527036
 !RHF STATE 1.1 Dipole moment           0.00000000     0.00000000    -2.30539886
 Dipole moment /Debye                   0.00000000     0.00000000    -5.85935563
   --><property name="Dipole moment" method="RHF" principal="true" stateSymmetry="1"
     stateNumber="1" value="0.0 0.0 -2.30539885653783"/><!--

 ELECTRON ORBITALS
 =================


   Orb  Occ    Energy  Couls-En    Coefficients

                                   1 1s      1 1s      1 1s      1 1s      1 1s      1 1s      1 1s      1 1s      1 1s      1 1s
                                   1 1s      1 1s      1 1s      1 1s      1 1s      1 1s      1 1s      1 1s      1 1s      1 1s
                                   1 1s      1 1s      1 1s      1 1s      1 1s      1 1s      1 1s      1 1s      1 1s      1 1s
                                   1 1s      1 1s      1 1s      1 1s      1 1s      1 2pz     1 2pz     1 2pz     1 2pz     1 2pz
                                   1 2pz     1 2pz     1 2pz     1 2pz     1 2pz     1 2pz     1 2pz     1 2pz     1 2pz     1 2pz
                                   1 2pz     1 2pz     1 2pz     1 2pz     1 2pz     1 2pz     1 2pz     1 2pz     1 2pz     1 2pz
                                   1 2pz     1 2pz     1 2pz     1 2pz     1 2pz     1 2pz     1 3d0     1 3d2+    1 3d0     1 3d2+
                                   1 3d0     1 3d2+    1 3d0     1 3d2+    1 3d0     1 3d2+    1 3d0     1 3d2+    1 3d0     1 3d2+
                                   1 3d0     1 3d2+    1 3d0     1 3d2+    1 3d0     1 3d2+    1 3d0     1 3d2+    1 3d0     1 3d2+
                                   1 3d0     1 3d2+    1 3d0     1 3d2+    1 3d0     1 3d2+    1 3d0     1 3d2+    1 3d0     1 3d2+
                                   1 3d0     1 3d2+    1 3d0     1 3d2+    1 3d0     1 3d2+    1 3d0     1 3d2+    1 3d0     1 3d2+
                                   1 4f0     1 4f2+    1 4f0     1 4f2+    1 4f0     1 4f2+    1 4f0     1 4f2+    1 4f0     1 4f2+
                                   1 4f0     1 4f2+    1 4f0     1 4f2+    1 4f0     1 4f2+    1 4f0     1 4f2+    1 4f0     1 4f2+
                                   1 4f0     1 4f2+    1 4f0     1 4f2+    1 4f0     1 4f2+    1 4f0     1 4f2+    1 4f0     1 4f2+
                                   1 5g0     1 5g4+    1 5g2+    1 5g0     1 5g4+    1 5g2+    1 5g0     1 5g4+    1 5g2+    2 1s
                                   2 1s      2 1s      2 1s      2 1s      2 1s      2 1s      2 1s      2 1s      2 1s      2 1s
                                   2 1s      2 1s      2 2pz     2 2pz     2 2pz     2 2pz     2 2pz     2 2pz     2 2pz     2 2pz
                                   2 3d0     2 3d2+    2 3d0     2 3d2+    2 3d0     2 3d2+    2 3d0     2 3d2+    2 4f0     2 4f2+
                                   2 4f0     2 4f2+

   1.1   2    -3.2430  -14.4784 -0.000000  0.000000 -0.000000  0.000000 -0.000000  0.000000 -0.000000  0.000000 -0.000000  0.000001
                                -0.000002  0.000006 -0.000016  0.000039 -0.000097  0.000237 -0.000575  0.001390 -0.003304  0.007711
                                -0.017542  0.038318 -0.070382  0.024811  0.433226 -1.188150 -1.766394  1.170008  0.779966  0.026533
                                -0.006148  0.001647  1.710351 -0.354077 -0.000309  0.000000 -0.000000  0.000000 -0.000000  0.000000
                                -0.000000  0.000000 -0.000000  0.000000 -0.000000  0.000000 -0.000000  0.000000 -0.000001  0.000002
                                -0.000004  0.000010 -0.000032  0.000143 -0.000581  0.001009  0.000358 -0.000696  0.014295 -0.001885
                                -0.001486 -0.000686 -0.000223  0.000166 -0.017785  0.000073 -0.000000 -0.000000  0.000000  0.000000
                                -0.000000 -0.000000  0.000000  0.000000 -0.000000 -0.000000  0.000001  0.000000 -0.000002 -0.000000
                                 0.000005  0.000000 -0.000012 -0.000000  0.000027  0.000000 -0.000071 -0.000000  0.000271  0.000001
                                -0.000882 -0.000003 -0.000538 -0.000001  0.004071  0.000011  0.002337  0.000003 -0.002097 -0.000003
                                -0.000884 -0.000002 -0.000249 -0.000000  0.000503  0.000001 -0.001340  0.000008  0.000050 -0.000000
                                -0.000000 -0.000000  0.000000  0.000000 -0.000000 -0.000000  0.000001  0.000000 -0.000002 -0.000000
                                 0.000003  0.000000 -0.000010 -0.000000  0.000014 -0.000000 -0.000059  0.000000 -0.000497 -0.000000
                                 0.000246 -0.000000  0.000124 -0.000000 -0.000325 -0.000000 -0.000427  0.000000 -0.000017  0.000000
                                -0.000003 -0.000043  0.000000  0.000987 -0.001855  0.000002  0.000207 -0.000645  0.000001 -0.000000
                                 0.000000 -0.000000  0.000001 -0.000004  0.000094  0.000134  0.000411 -0.000210  0.000972  0.001262
                                -0.000298 -0.000178  0.000000  0.000003  0.000019  0.000198 -0.000847 -0.000393  0.000004  0.000000
                                -0.000021  0.000000  0.000204  0.000000  0.000526 -0.000000  0.000006  0.000000  0.000021 -0.000000
                                -0.000293 -0.000000

   2.1   2    -1.8297  -11.5009 -0.000000  0.000000 -0.000000  0.000000 -0.000000  0.000000 -0.000000  0.000000 -0.000000  0.000000
                                -0.000000  0.000000 -0.000000  0.000000 -0.000001  0.000002 -0.000005  0.000013 -0.000031  0.000072
                                -0.000165  0.000363 -0.000675  0.000272  0.004092 -0.011558 -0.017501  0.012727 -0.007713 -0.002269
                                -0.003894 -0.002555  0.016545  0.009852  0.000637 -0.000000  0.000000 -0.000000  0.000000 -0.000000
                                 0.000000 -0.000000  0.000000 -0.000001  0.000002 -0.000006  0.000017 -0.000045  0.000115 -0.000284
                                 0.000715 -0.001957  0.006881 -0.033548  0.145704 -0.268267 -0.125923  0.294680  0.649340  0.331267
                                 0.040928 -0.006378  0.000772  0.007346 -0.096041 -0.000092 -0.000000  0.000000  0.000000 -0.000000
                                -0.000000  0.000000  0.000000 -0.000000 -0.000000  0.000000  0.000000 -0.000000 -0.000001  0.000000
                                 0.000003 -0.000000 -0.000006  0.000000  0.000010 -0.000000 -0.000008  0.000000 -0.000070 -0.000000
                                 0.000133  0.000000 -0.002527 -0.000000 -0.000468 -0.000001 -0.002936 -0.000003 -0.002592 -0.000001
                                -0.002010  0.000000 -0.001161  0.000000  0.002563  0.000000 -0.003868  0.000001  0.000312  0.000000
                                 0.000000 -0.000000 -0.000000  0.000000  0.000000 -0.000000  0.000000  0.000000  0.000001 -0.000000
                                 0.000004  0.000000  0.000034  0.000000 -0.000057  0.000000  0.000005 -0.000001  0.003772  0.000004
                                 0.004938  0.000006  0.001505  0.000004  0.001825  0.000009  0.000781  0.000004 -0.000288  0.000001
                                -0.000130  0.000007 -0.000000 -0.000211 -0.000001 -0.000000 -0.000302  0.000009  0.000000 -0.000000
                                 0.000000 -0.000000  0.000003 -0.000024  0.000875 -0.001460  0.003045  0.006934  0.007171  0.006111
                                -0.000974 -0.001426 -0.000108 -0.000928 -0.002705 -0.004555 -0.006413 -0.002360 -0.000006  0.000029
                                 0.000102  0.000000  0.001287  0.000000  0.001923  0.000000  0.000018  0.000000 -0.000073  0.000000
                                -0.000894 -0.000000

   3.1   2    -1.1608   -8.6023  0.000000 -0.000000  0.000000 -0.000000  0.000000 -0.000000  0.000000 -0.000000  0.000000 -0.000000
                                 0.000000 -0.000000  0.000000 -0.000001  0.000002 -0.000006  0.000014 -0.000034  0.000081 -0.000189
                                 0.000429 -0.000936  0.001789 -0.001498 -0.005909  0.016090 -0.024195  0.005948  0.012213  0.024391
                                -0.010912  0.004458  0.018855 -0.045721 -0.000980  0.000000 -0.000000  0.000000 -0.000000  0.000000
                                -0.000000  0.000000 -0.000000  0.000000 -0.000000  0.000001 -0.000002  0.000006 -0.000015  0.000036
                                -0.000083  0.000194 -0.000517  0.001864 -0.007091  0.014282 -0.015471 -0.048060  0.300796  0.013114
                                -0.004161 -0.008556  0.001472  0.037105 -0.327267 -0.000389 -0.000000  0.000000  0.000000 -0.000000
                                -0.000000  0.000000  0.000000 -0.000000 -0.000001  0.000000  0.000003 -0.000000 -0.000009  0.000000
                                 0.000022 -0.000000 -0.000050  0.000000  0.000108 -0.000000 -0.000246  0.000000  0.000716 -0.000000
                                -0.002314  0.000000 -0.007016  0.000001  0.008061 -0.000000  0.020667 -0.000001  0.008496  0.000001
                                -0.008501 -0.000001  0.000674 -0.000001  0.006230 -0.000001 -0.015867  0.000001 -0.000055  0.000000
                                 0.000000 -0.000000 -0.000000  0.000000  0.000002 -0.000000 -0.000006  0.000000  0.000016 -0.000000
                                -0.000040  0.000000  0.000104 -0.000000 -0.000298  0.000000  0.002439 -0.000000  0.008811 -0.000001
                                 0.012302 -0.000000 -0.005034  0.000000 -0.010902  0.000001 -0.006775  0.000002 -0.001681  0.000000
                                -0.000036 -0.000028  0.000000  0.001268 -0.000002  0.000000 -0.001588 -0.000007  0.000001 -0.000000
                                 0.000003 -0.000025  0.000158 -0.001393  0.054207 -0.105631  0.188937  0.564416  0.396019  0.027068
                                -0.050492 -0.087692  0.000031  0.000542 -0.000745  0.001375 -0.023393 -0.003403 -0.000395 -0.000013
                                -0.001065 -0.000000  0.000010 -0.000000  0.005617  0.000001 -0.000467 -0.000000  0.000303  0.000000
                                -0.002703 -0.000000

   4.1   2    -0.3038   -6.0303  0.000000 -0.000000  0.000000 -0.000000  0.000000 -0.000000  0.000000 -0.000000  0.000000 -0.000000
                                 0.000001 -0.000002  0.000005 -0.000011  0.000028 -0.000069  0.000168 -0.000407  0.000969 -0.002267
                                 0.005181 -0.011421  0.021429 -0.009432 -0.128080  0.373051  0.626469 -0.483290 -0.546980  0.310999
                                 0.559673  0.155610 -0.585169  0.223142  0.000399  0.000000 -0.000000  0.000000 -0.000000  0.000000
                                -0.000000  0.000000 -0.000000  0.000000 -0.000000  0.000001 -0.000002  0.000005 -0.000013  0.000031
                                -0.000070  0.000155 -0.000370  0.001093 -0.003665  0.008125 -0.020926 -0.046102  0.343771  0.022202
                                 0.008232 -0.060993 -0.020365  0.042031 -0.354555  0.002665 -0.000000  0.000000  0.000000 -0.000000
                                -0.000000  0.000000  0.000000 -0.000000 -0.000002  0.000000  0.000006 -0.000000 -0.000017  0.000000
                                 0.000045 -0.000000 -0.000104  0.000000  0.000249 -0.000000 -0.000702  0.000001  0.002953 -0.000002
                                -0.008493  0.000007  0.005670 -0.000000  0.031563 -0.000027  0.050646 -0.000054  0.084561 -0.000021
                                 0.035006  0.000009  0.000172  0.000004 -0.007826  0.000002  0.006286  0.000007  0.001025 -0.000001
                                 0.000000 -0.000000 -0.000000  0.000000  0.000001 -0.000000 -0.000005  0.000000  0.000014 -0.000000
                                -0.000034  0.000000  0.000098 -0.000000 -0.000257  0.000000  0.002351 -0.000001  0.010323 -0.000001
                                 0.013341  0.000000 -0.005004  0.000001 -0.011456  0.000004 -0.000569  0.000006 -0.003451  0.000006
                                 0.000613 -0.000806  0.000001  0.002853 -0.000588  0.000003  0.002059 -0.000139  0.000005  0.000000
                                -0.000000  0.000002 -0.000015  0.000138 -0.005911  0.013008 -0.021433 -0.077897 -0.066333 -0.015546
                                 0.004677  0.009566 -0.004006 -0.034113 -0.111658 -0.181815 -0.174399 -0.044659 -0.002291  0.001056
                                 0.001574  0.000000  0.007948  0.000000  0.014750  0.000002  0.000221  0.000000 -0.001865 -0.000000
                                -0.005029 -0.000000

   5.1   +    -0.3292   -6.8254  0.000000 -0.000000  0.000000 -0.000000  0.000000 -0.000000  0.000000 -0.000000  0.000000 -0.000000
                                 0.000000 -0.000001  0.000002 -0.000005  0.000011 -0.000028  0.000069 -0.000166  0.000395 -0.000924
                                 0.002116 -0.004673  0.008730 -0.003097 -0.057114  0.167200  0.330473 -0.233348 -0.261350  0.106627
                                 0.333247  0.109356 -0.305855  0.127696 -0.003328 -0.000000  0.000000 -0.000000  0.000000 -0.000000
                                 0.000000 -0.000000  0.000000 -0.000000  0.000000 -0.000001  0.000002 -0.000006  0.000015 -0.000037
                                 0.000087 -0.000216  0.000649 -0.002748  0.011457 -0.022733  0.009285  0.055758 -0.237334  0.017954
                                -0.068062 -0.083197 -0.012064 -0.033175  0.288100 -0.001297  0.000000  0.000000 -0.000000 -0.000000
                                 0.000000  0.000000 -0.000002 -0.000000  0.000007  0.000000 -0.000025 -0.000000  0.000071  0.000000
                                -0.000185 -0.000000  0.000431  0.000001 -0.001056 -0.000002  0.003071  0.000006 -0.013499 -0.000026
                                 0.038957  0.000076 -0.035655 -0.000087 -0.154328 -0.000303 -0.272385 -0.000552 -0.312699 -0.000628
                                -0.174345 -0.000414 -0.032191 -0.000098  0.045424  0.000105 -0.014929 -0.000034 -0.000011  0.000002
                                -0.000000 -0.000000  0.000000  0.000000 -0.000002 -0.000000  0.000007  0.000000 -0.000020 -0.000000
                                 0.000050  0.000000 -0.000130 -0.000000  0.000379  0.000000 -0.003271 -0.000001 -0.012495 -0.000004
                                -0.014695 -0.000004  0.006992  0.000003  0.015767  0.000007  0.003673  0.000012  0.004580  0.000015
                                -0.001654 -0.000819 -0.000002 -0.006155 -0.001089 -0.000006 -0.003683 -0.001797 -0.000002 -0.000000
                                 0.000000 -0.000001  0.000007 -0.000065  0.002842 -0.006328  0.010525  0.040971  0.035034  0.005698
                                -0.002194 -0.004620  0.003528  0.030089  0.098288  0.160484  0.149973  0.034282  0.001941 -0.000931
                                -0.001617 -0.000000 -0.008871 -0.000002 -0.014604  0.000000 -0.000203 -0.000000  0.001951  0.000000
                                 0.005637  0.000001

   6.1   0    -0.0338   -5.1350  0.000000 -0.000000  0.000000 -0.000000  0.000000 -0.000000  0.000000 -0.000000  0.000000 -0.000000
                                 0.000000 -0.000000  0.000000 -0.000001  0.000002 -0.000005  0.000011 -0.000028  0.000066 -0.000154
                                 0.000353 -0.000778  0.001460 -0.000655 -0.008637  0.024964  0.034318 -0.025246 -0.005538 -0.060545
                                 0.122207  0.054174 -0.033589 -0.010440  0.251110 -0.000000  0.000000 -0.000000  0.000000 -0.000000
                                 0.000000 -0.000000  0.000000 -0.000000  0.000000 -0.000001  0.000004 -0.000010  0.000025 -0.000062
                                 0.000152 -0.000400  0.001331 -0.006253  0.027185 -0.052548 -0.003120  0.092239 -0.193978  0.064447
                                -0.102179 -0.244643 -0.213212 -0.034659  0.319218 -0.075188 -0.000000 -0.000000  0.000000  0.000000
                                -0.000000 -0.000000  0.000001  0.000000 -0.000003 -0.000000  0.000012  0.000000 -0.000034 -0.000000
                                 0.000089  0.000000 -0.000208 -0.000001  0.000528  0.000001 -0.001618 -0.000004  0.007545  0.000018
                                -0.021512 -0.000052  0.029788  0.000054  0.087816  0.000207  0.166931  0.000382  0.172806  0.000429
                                 0.156359  0.000349  0.088106  0.000188 -0.035147 -0.000067  0.010812  0.000011  0.073228  0.000067
                                -0.000000 -0.000000  0.000000  0.000000 -0.000001 -0.000000  0.000003  0.000000 -0.000008 -0.000000
                                 0.000016  0.000000 -0.000063 -0.000000  0.000099  0.000000 -0.001525 -0.000003 -0.007968 -0.000006
                                -0.016112 -0.000007  0.003591  0.000005  0.007661  0.000006 -0.013847 -0.000020 -0.027058 -0.000061
                                 0.001304  0.000178  0.000001  0.000710  0.000243  0.000004  0.001104  0.000977  0.000001  0.000000
                                -0.000000  0.000001 -0.000008  0.000045 -0.000514 -0.003798 -0.002261  0.013965 -0.006895 -0.013996
                                 0.003497  0.001203  0.004875  0.041450  0.138869  0.222646  0.237707  0.111944  0.003216 -0.001278
                                -0.000182  0.000000 -0.001756  0.000002 -0.010134 -0.000001 -0.000062  0.000000  0.002035 -0.000000
                                 0.004967  0.000001

   7.1   0     0.0201   -1.9640  0.000000 -0.000000  0.000000 -0.000000  0.000000 -0.000000  0.000000 -0.000000  0.000000 -0.000000
                                 0.000000 -0.000000  0.000000 -0.000001  0.000001 -0.000003  0.000008 -0.000019  0.000043 -0.000089
                                 0.000165 -0.000270  0.000964 -0.008940  0.050266 -0.156806 -0.864232  0.520601  0.689943 -0.377347
                                 0.603661 -1.740293  0.763132 -0.804980  1.546457 -0.000000  0.000000 -0.000000  0.000000 -0.000000
                                 0.000000 -0.000000  0.000000 -0.000000  0.000001 -0.000004  0.000012 -0.000032  0.000080 -0.000188
                                 0.000412 -0.000856  0.001628 -0.002340  0.001131 -0.009958  0.164998  0.247501 -2.373802 -0.220980
                                 0.207576 -0.168169  0.587858 -0.284541  2.339085 -1.083079  0.000000  0.000000 -0.000000 -0.000000
                                 0.000000  0.000000 -0.000000 -0.000000  0.000002  0.000000 -0.000006 -0.000000  0.000016  0.000000
                                -0.000042 -0.000000  0.000098  0.000000 -0.000236 -0.000001  0.000664  0.000002 -0.002801 -0.000010
                                 0.008238  0.000028 -0.003400 -0.000021 -0.033433 -0.000110 -0.074789 -0.000211 -0.058691 -0.000221
                                -0.021761 -0.000218 -0.106456 -0.000129  0.005717  0.000028  0.015634  0.000011  0.160518 -0.000114
                                -0.000000  0.000000  0.000000 -0.000000 -0.000002  0.000000  0.000006 -0.000000 -0.000016  0.000000
                                 0.000043 -0.000000 -0.000100  0.000000  0.000340 -0.000000 -0.002450  0.000001 -0.008170  0.000002
                                -0.012691  0.000002  0.004947 -0.000002  0.012820 -0.000001  0.024813  0.000010  0.004702  0.000028
                                -0.000487  0.000120 -0.000001 -0.000768 -0.000026 -0.000002  0.003034 -0.000255 -0.000001 -0.000000
                                 0.000000 -0.000001  0.000008 -0.000057  0.001509 -0.000167  0.005144  0.010148  0.022677  0.032138
                                -0.003003 -0.002683 -0.001779 -0.015228 -0.049709 -0.082735 -0.068655 -0.095499 -0.000933  0.000470
                                 0.000002 -0.000000 -0.000115 -0.000001 -0.012147  0.000001 -0.000003 -0.000000 -0.000997  0.000000
                                 0.000691 -0.000000

                                   1 2px     1 2px     1 2px     1 2px     1 2px     1 2px     1 2px     1 2px     1 2px     1 2px
                                   1 2px     1 2px     1 2px     1 2px     1 2px     1 2px     1 2px     1 2px     1 2px     1 2px
                                   1 2px     1 2px     1 2px     1 2px     1 2px     1 2px     1 2px     1 2px     1 2px     1 2px
                                   1 2px     1 3d1+    1 3d1+    1 3d1+    1 3d1+    1 3d1+    1 3d1+    1 3d1+    1 3d1+    1 3d1+
                                   1 3d1+    1 3d1+    1 3d1+    1 3d1+    1 3d1+    1 3d1+    1 3d1+    1 3d1+    1 3d1+    1 3d1+
                                   1 3d1+    1 3d1+    1 3d1+    1 4f1+    1 4f3+    1 4f1+    1 4f3+    1 4f1+    1 4f3+    1 4f1+
                                   1 4f3+    1 4f1+    1 4f3+    1 4f1+    1 4f3+    1 4f1+    1 4f3+    1 4f1+    1 4f3+    1 4f1+
                                   1 4f3+    1 4f1+    1 4f3+    1 4f1+    1 4f3+    1 4f1+    1 4f3+    1 4f1+    1 4f3+    1 4f1+
                                   1 4f3+    1 4f1+    1 4f3+    1 5g1+    1 5g3+    1 5g1+    1 5g3+    1 5g1+    1 5g3+    2 2px
                                   2 2px     2 2px     2 2px     2 2px     2 2px     2 2px     2 2px     2 3d1+    2 3d1+    2 3d1+
                                   2 3d1+    2 4f1+    2 4f3+    2 4f1+    2 4f3+

   1.2   2    -1.8236  -11.4273 -0.000000  0.000000 -0.000000  0.000000 -0.000000  0.000000 -0.000000  0.000000 -0.000001  0.000002
                                -0.000006  0.000017 -0.000045  0.000115 -0.000283  0.000714 -0.001953  0.006863 -0.033456  0.145313
                                -0.267686 -0.124637  0.295654  0.622895  0.332698  0.047752 -0.002094  0.001473  0.006194 -0.075019
                                -0.000398  0.000000 -0.000000  0.000000 -0.000000  0.000000 -0.000000  0.000001 -0.000002  0.000004
                                -0.000009  0.000024 -0.000081  0.000213  0.000358 -0.000591 -0.004351 -0.002641 -0.000771 -0.000119
                                -0.000170  0.001577 -0.000006  0.000000  0.000000 -0.000000 -0.000000  0.000000  0.000001 -0.000001
                                -0.000002  0.000003  0.000004 -0.000007 -0.000018  0.000025  0.000009 -0.000098 -0.000103  0.000231
                                 0.000629  0.001696 -0.000284 -0.000633 -0.003340 -0.000115 -0.002459 -0.001563 -0.006070 -0.002421
                                -0.005312 -0.000502 -0.000896 -0.000057  0.000012 -0.000347  0.000100  0.000052  0.000187  0.000020
                                 0.000173  0.000535  0.000851  0.000709  0.000109  0.000005 -0.000005 -0.000026 -0.000213 -0.000206
                                -0.000005  0.000006 -0.000002  0.000189  0.000002

   2.2   2    -0.4479   -7.0899  0.000000 -0.000000  0.000000 -0.000000  0.000000 -0.000000  0.000000 -0.000000  0.000000 -0.000000
                                 0.000000 -0.000000  0.000001 -0.000003  0.000006 -0.000016  0.000043 -0.000154  0.000764 -0.003387
                                 0.006438  0.002263 -0.007886 -0.021810 -0.013122  0.016979  0.016252 -0.002995  0.000800  0.007825
                                -0.000288 -0.000000  0.000000 -0.000000  0.000000 -0.000000  0.000000 -0.000000  0.000001 -0.000004
                                 0.000018 -0.000091  0.000602 -0.001491  0.007589  0.005590 -0.001239  0.026637  0.018885  0.003738
                                -0.007812  0.017690 -0.003090  0.000000  0.000000 -0.000000 -0.000000  0.000000  0.000000 -0.000001
                                -0.000000  0.000004  0.000000 -0.000007 -0.000001  0.000027  0.000001 -0.000044 -0.000005  0.000440
                                 0.000046  0.001321  0.000088 -0.000538  0.000019 -0.000745 -0.000080  0.000519 -0.000197  0.010133
                                -0.000292  0.003725 -0.000193  0.000072 -0.000023  0.001310 -0.000075  0.003183 -0.000052  0.010284
                                 0.088605  0.291108  0.453809  0.361255  0.057457  0.005557 -0.002707 -0.001394 -0.004632 -0.011963
                                -0.000147  0.003323 -0.000003  0.006833  0.000015

   3.2   0     0.0036   -3.0705 -0.000000  0.000000 -0.000000  0.000000 -0.000000  0.000000 -0.000000  0.000000 -0.000000  0.000001
                                -0.000002  0.000005 -0.000012  0.000031 -0.000074  0.000177 -0.000435  0.001287 -0.005359  0.022145
                                -0.043837  0.017622  0.102318 -0.391481  0.031736 -0.046277 -0.302428 -0.132669 -0.061552  0.486129
                                -0.599466 -0.000000  0.000000 -0.000000  0.000001 -0.000004  0.000012 -0.000034  0.000087 -0.000201
                                 0.000467 -0.001240  0.004822 -0.014359 -0.003301  0.055863  0.121270  0.083940  0.118942  0.077237
                                -0.000831 -0.035387  0.198908  0.000000 -0.000000 -0.000000  0.000000  0.000000 -0.000000 -0.000001
                                 0.000001  0.000004 -0.000002 -0.000008  0.000006  0.000028 -0.000008 -0.000066  0.000053  0.000378
                                -0.000454  0.001884 -0.000741  0.001923  0.000233 -0.000529  0.000918 -0.000676  0.002466 -0.000456
                                 0.004249 -0.000274  0.003869  0.000437 -0.000100  0.000779 -0.000230  0.001026 -0.000512  0.000185
                                 0.001533  0.006158  0.008313  0.011141 -0.006915  0.000299 -0.000046 -0.000063 -0.000098  0.000270
                                -0.000003  0.000205  0.000001 -0.000110  0.000000

   4.2   0     0.0356   -3.0016  0.000000 -0.000000  0.000000 -0.000000  0.000000 -0.000000  0.000000 -0.000000  0.000001 -0.000002
                                 0.000006 -0.000018  0.000046 -0.000115  0.000267 -0.000586  0.001212 -0.002280  0.003068 -0.000311
                                 0.011656 -0.235945 -0.345631  3.277288  0.294425 -0.267282  0.229721 -1.099879  0.403974 -3.212448
                                 1.320608 -0.000000  0.000000 -0.000000  0.000001 -0.000002  0.000007 -0.000021  0.000056 -0.000135
                                 0.000365 -0.001228  0.006262 -0.017252  0.039149  0.069696  0.103231  0.184759  0.146658  0.209169
                                -0.043164  0.050630  0.013985 -0.000000  0.000000  0.000000 -0.000000 -0.000002  0.000000  0.000007
                                -0.000000 -0.000021  0.000000  0.000052  0.000000 -0.000129  0.000004  0.000372  0.000005 -0.002874
                                -0.000062 -0.008314  0.000247 -0.008800  0.000876  0.005696  0.000123  0.009774  0.000627  0.001229
                                 0.001891 -0.016492  0.003011  0.000823 -0.000160  0.001410 -0.000333  0.002219 -0.000633 -0.000601
                                -0.005188 -0.017340 -0.026720 -0.026668 -0.050418 -0.000357  0.000158 -0.000166 -0.002677  0.004163
                                -0.000044 -0.000053  0.000004  0.000095 -0.000014

                                   1 2py     1 2py     1 2py     1 2py     1 2py     1 2py     1 2py     1 2py     1 2py     1 2py
                                   1 2py     1 2py     1 2py     1 2py     1 2py     1 2py     1 2py     1 2py     1 2py     1 2py
                                   1 2py     1 2py     1 2py     1 2py     1 2py     1 2py     1 2py     1 2py     1 2py     1 2py
                                   1 2py     1 3d1-    1 3d1-    1 3d1-    1 3d1-    1 3d1-    1 3d1-    1 3d1-    1 3d1-    1 3d1-
                                   1 3d1-    1 3d1-    1 3d1-    1 3d1-    1 3d1-    1 3d1-    1 3d1-    1 3d1-    1 3d1-    1 3d1-
                                   1 3d1-    1 3d1-    1 3d1-    1 4f1-    1 4f3-    1 4f1-    1 4f3-    1 4f1-    1 4f3-    1 4f1-
                                   1 4f3-    1 4f1-    1 4f3-    1 4f1-    1 4f3-    1 4f1-    1 4f3-    1 4f1-    1 4f3-    1 4f1-
                                   1 4f3-    1 4f1-    1 4f3-    1 4f1-    1 4f3-    1 4f1-    1 4f3-    1 4f1-    1 4f3-    1 4f1-
                                   1 4f3-    1 4f1-    1 4f3-    1 5g1-    1 5g3-    1 5g1-    1 5g3-    1 5g1-    1 5g3-    2 2py
                                   2 2py     2 2py     2 2py     2 2py     2 2py     2 2py     2 2py     2 3d1-    2 3d1-    2 3d1-
                                   2 3d1-    2 4f1-    2 4f3-    2 4f1-    2 4f3-

   1.3   2    -1.8236  -11.4272 -0.000000  0.000000 -0.000000  0.000000 -0.000000  0.000000 -0.000000  0.000000 -0.000001  0.000002
                                -0.000006  0.000017 -0.000045  0.000114 -0.000283  0.000714 -0.001953  0.006863 -0.033455  0.145310
                                -0.267680 -0.124644  0.295637  0.623048  0.332711  0.047780 -0.002089  0.001473  0.006211 -0.075197
                                -0.000398  0.000000 -0.000000  0.000000 -0.000000  0.000000 -0.000000  0.000001 -0.000002  0.000004
                                -0.000009  0.000024 -0.000080  0.000212  0.000357 -0.000589 -0.004346 -0.002643 -0.000773 -0.000120
                                -0.000169  0.001575 -0.000006  0.000000 -0.000000 -0.000000  0.000000  0.000000 -0.000001 -0.000001
                                 0.000002  0.000003 -0.000004 -0.000007  0.000018  0.000025 -0.000009 -0.000098  0.000103  0.000231
                                -0.000630  0.001698  0.000293 -0.000636  0.003346 -0.000117  0.002462 -0.001568  0.006079 -0.002429
                                 0.005308 -0.000504  0.000895 -0.000057 -0.000012 -0.000348 -0.000101  0.000052 -0.000187  0.000020
                                 0.000173  0.000535  0.000851  0.000709  0.000110  0.000005 -0.000005 -0.000026 -0.000213 -0.000206
                                -0.000005  0.000006  0.000002  0.000188 -0.000002

   2.3   2    -0.4479   -7.0899  0.000000 -0.000000  0.000000 -0.000000  0.000000 -0.000000  0.000000 -0.000000  0.000000 -0.000000
                                 0.000000 -0.000000  0.000001 -0.000003  0.000006 -0.000016  0.000043 -0.000154  0.000764 -0.003387
                                 0.006437  0.002260 -0.007888 -0.021781 -0.013117  0.016972  0.016241 -0.002995  0.000803  0.007799
                                -0.000288 -0.000000  0.000000 -0.000000  0.000000 -0.000000  0.000000 -0.000000  0.000001 -0.000004
                                 0.000017 -0.000090  0.000601 -0.001490  0.007587  0.005585 -0.001248  0.026626  0.018872  0.003735
                                -0.007811  0.017690 -0.003090  0.000000 -0.000000 -0.000000  0.000000  0.000000 -0.000000 -0.000001
                                 0.000000  0.000004 -0.000000 -0.000007  0.000001  0.000027 -0.000001 -0.000044  0.000005  0.000441
                                -0.000047  0.001323 -0.000090 -0.000536 -0.000021 -0.000746  0.000081  0.000516  0.000199  0.010130
                                 0.000296  0.003721  0.000196  0.000072  0.000024  0.001311  0.000076  0.003183  0.000056  0.010284
                                 0.088607  0.291112  0.453815  0.361256  0.057455  0.005557 -0.002707 -0.001394 -0.004631 -0.011962
                                -0.000147  0.003323  0.000003  0.006833 -0.000014

   3.3   0     0.0036   -3.0704 -0.000000  0.000000 -0.000000  0.000000 -0.000000  0.000000 -0.000000  0.000000 -0.000000  0.000001
                                -0.000002  0.000005 -0.000012  0.000031 -0.000074  0.000177 -0.000435  0.001288 -0.005361  0.022158
                                -0.043862  0.017601  0.102335 -0.391294  0.031780 -0.046370 -0.302551 -0.132768 -0.061535  0.486009
                                -0.599363 -0.000000  0.000000 -0.000000  0.000001 -0.000004  0.000012 -0.000034  0.000087 -0.000200
                                 0.000467 -0.001239  0.004818 -0.014347 -0.003311  0.055816  0.121178  0.083849  0.118877  0.077204
                                -0.000819 -0.035383  0.198855  0.000000  0.000000 -0.000000 -0.000000  0.000000  0.000000 -0.000001
                                -0.000001  0.000004  0.000002 -0.000008 -0.000006  0.000028  0.000008 -0.000066 -0.000052  0.000374
                                 0.000443  0.001874  0.000710  0.001919 -0.000257 -0.000520 -0.000894 -0.000656 -0.002419 -0.000427
                                -0.004214 -0.000256 -0.003905  0.000436  0.000101  0.000776  0.000233  0.001025  0.000523  0.000186
                                 0.001538  0.006175  0.008340  0.011167 -0.006882  0.000300 -0.000046 -0.000062 -0.000096  0.000268
                                -0.000003  0.000205 -0.000001 -0.000110  0.000000

   4.3   0     0.0356   -2.9984  0.000000 -0.000000  0.000000 -0.000000  0.000000 -0.000000  0.000000 -0.000000  0.000001 -0.000002
                                 0.000006 -0.000018  0.000046 -0.000115  0.000267 -0.000587  0.001213 -0.002281  0.003068 -0.000300
                                 0.011644 -0.236158 -0.345900  3.280154  0.294713 -0.267571  0.229803 -1.101058  0.404321 -3.215201
                                 1.321364 -0.000000  0.000000 -0.000000  0.000001 -0.000002  0.000007 -0.000021  0.000056 -0.000134
                                 0.000364 -0.001225  0.006250 -0.017215  0.039125  0.069553  0.102949  0.184483  0.146423  0.209071
                                -0.043131  0.050652  0.013835 -0.000000 -0.000000  0.000000  0.000000 -0.000002 -0.000000  0.000007
                                 0.000000 -0.000021 -0.000000  0.000052 -0.000000 -0.000129 -0.000004  0.000372 -0.000004 -0.002877
                                 0.000062 -0.008323 -0.000246 -0.008803 -0.000869  0.005704 -0.000122  0.009793 -0.000625  0.001257
                                -0.001888 -0.016453 -0.003020  0.000822  0.000162  0.001405  0.000340  0.002218  0.000651 -0.000599
                                -0.005170 -0.017283 -0.026629 -0.026592 -0.050239 -0.000356  0.000157 -0.000165 -0.002671  0.004163
                                -0.000044 -0.000052 -0.000004  0.000095  0.000014

                                   1 3d2-    1 3d2-    1 3d2-    1 3d2-    1 3d2-    1 3d2-    1 3d2-    1 3d2-    1 3d2-    1 3d2-
                                   1 3d2-    1 3d2-    1 3d2-    1 3d2-    1 3d2-    1 3d2-    1 3d2-    1 3d2-    1 3d2-    1 3d2-
                                   1 3d2-    1 3d2-    1 4f2-    1 4f2-    1 4f2-    1 4f2-    1 4f2-    1 4f2-    1 4f2-    1 4f2-
                                   1 4f2-    1 4f2-    1 4f2-    1 4f2-    1 4f2-    1 4f2-    1 4f2-    1 5g2-    1 5g4-    1 5g2-
                                   1 5g4-    1 5g2-    1 5g4-    2 3d2-    2 3d2-    2 3d2-    2 3d2-    2 4f2-    2 4f2-

   1.4   2    -0.3215   -7.1018 -0.000000  0.000000 -0.000000  0.000002 -0.000008  0.000028 -0.000081  0.000213 -0.000499  0.001242
                                -0.003704  0.016794 -0.048394  0.055974  0.194336  0.349343  0.386351  0.235551  0.048883 -0.067192
                                 0.022754 -0.001466  0.000000 -0.000000  0.000001 -0.000004  0.000010 -0.000028  0.000061 -0.000221
                                 0.001541  0.004523  0.002996 -0.003074 -0.007082 -0.012580 -0.011468  0.000569  0.000003  0.002115
                                 0.000016 -0.000907  0.000023  0.000150  0.001121 -0.000204  0.000021 -0.000155 -0.000094

   2.4   0     0.0578   -1.8335 -0.000000  0.000000 -0.000001  0.000004 -0.000016  0.000052 -0.000147  0.000368 -0.000824  0.001709
                                -0.003466  0.007353 -0.027701 -0.184429  0.097326  0.418685 -0.181439  0.186040 -0.468242  0.172521
                                -0.457079  1.262212 -0.000000  0.000002 -0.000008  0.000026 -0.000073  0.000184 -0.000457  0.001359
                                -0.010062 -0.030365 -0.029730  0.019742  0.035755  0.021429 -0.022820 -0.000052  0.000000 -0.000124
                                -0.000002  0.000156  0.000001  0.000116  0.000724  0.000737  0.000014 -0.000023  0.000198

   3.4   0     0.1895   -2.5809  0.000000 -0.000001  0.000003 -0.000013  0.000051 -0.000168  0.000481 -0.001205  0.002711 -0.005745
                                 0.012329 -0.031272  0.109773  0.516176 -0.403555 -1.481221  0.332226 -0.744106  1.924404 -0.474260
                                 1.370886 -0.972827 -0.000001  0.000006 -0.000026  0.000087 -0.000247  0.000622 -0.001550  0.004603
                                -0.034326 -0.104997 -0.106232  0.067547  0.124325  0.076901 -0.112358 -0.000130  0.000000 -0.000855
                                -0.000007  0.001944  0.000009 -0.000082  0.004737 -0.008026  0.000083  0.000313 -0.001926

 HOMO      1.4    -0.321539 =      -8.7495eV
 LUMO      6.1    -0.033809 =      -0.9200eV
 LUMO-HOMO         0.287731 =       7.8295eV

 No convergence



 **********************************************************************************************************************************
 DATASETS  * FILE   NREC   LENGTH (MB)   RECORD NAMES
              1      19       22.43       500      610      700      900      950      970     1000      129      960     1100
                                          VAR    BASINP    GEOM    SYMINP    ZMAT    AOBASIS   BASIS     P2S    ABASIS      S
                                         1400     1410     1420     1200     1210     1080     1600     1650     1700
                                           T        V       ECP      H0       H01     AOSYM     SMH    MOLCAS    OPER

              2       4        4.45       700     1000      520     2100
                                         GEOM     BASIS   MCVARS     RHF

 PROGRAMS   *        TOTAL       RHF       INT
 CPU TIMES  *       259.84    102.62    156.96
 REAL TIME  *       275.81 SEC
 DISK USED  *         9.08 GB
 SF USED    *         0.23 MB
 GA USED    *         0.00 MB       (max)       0.00 MB       (current)
 **********************************************************************************************************************************
   -->
   <time start="08:53:48" end="08:58:23" cpu="259.84" system="15.42" real="275.81"/>
   <storage units="megabyte" memory="8001.84" sf="0.23" df="388.74" eaf="8691.71" ga="0.0"/>
  </jobstep><!--
 SETTING SCF            =       -72.28958632  AU
 SETTING _CC_NORM_MAX   =         2.00000000
  --><jobstep command="RCCSD(T)" commandset="CCSD">
   <!--


 PROGRAM * CCSD (Restricted open-shell coupled cluster)     Authors: C. Hampel, H.-J. Werner, 1991, M. Deegan, P.J. Knowles, 1992


 Convergence thresholds:  THRVAR = 1.00D-08  THRDEN = 1.00D-06

 CCSD(T)     terms to be evaluated (factor= 1.000)


 Number of closed-shell orbitals:   9 (   4   2   2   1 )
 Number of active  orbitals:        1 (   1   0   0   0 )
 Number of external orbitals:     431 ( 177 103 103  48 )

 Memory could be reduced to 358.30 Mwords without degradation in triples

 Number of N-1 electron functions:              19
 Number of N-2 electron functions:             171
 Number of singly external CSFs:              2522
 Number of doubly external CSFs:           6198213
 Total number of CSFs:                     6200735

 Molecular orbitals read from record     2100.2  Type=RHF/CANONICAL (state 1.1)

 ?Error: RHF not converged. This error exit can be avoided using the IGNORE_ERROR option on the ORBITAL directive
   --><error/><!--
  --></jobstep><!--
  -->
  <input>
  <!--
 --></job><!--
--></molpro>
