<?xml version="1.0"?>
<molpro xmlns="http://www.molpro.net/schema/molpro-output"
  xmlns:xsd="http://www.w3.org/1999/XMLSchema"
  xmlns:cml="http://www.xml-cml.org/schema"
  xmlns:stm="http://www.xml-cml.org/schema"
  xmlns:xhtml="http://www.w3.org/1999/xhtml">
 <!--

 Nodes     nprocs
 nid00009    11
 Number of processes for MPI-2 version of Molpro:   nprocs(total)=   12   nprocs(compute)=   11   nprocs(helper)=    1

 Using customized tuning parameters: mindgm=7; mindgv=16; mindgc=1; mindgr=1; noblas=0; minvec=7
 default implementation of scratch files=sf

 --><job>
  <!--

 Variables initialized (889), CPU time= 0.03 sec
 Commands  initialized (702), CPU time= 0.00 sec, 572 directives.
 Default parameters read. Elapsed time= 0.15 sec

 Checking input...
 Passed
1


                                         ***  PROGRAM SYSTEM MOLPRO  ***
                                       Copyright, TTI GmbH Stuttgart, 2015
                                    Version 2015.1 linked Dec 29 2018 15:55:43


 **********************************************************************************************************************************
 LABEL *   Calculation for GdH3 atom, singlet and triplet
  64 bit mpp version                                                                     DATE: 02-Jan-23          TIME: 14:53:55
 **********************************************************************************************************************************

 SHA1:             19cd028119e0e09f93f0674bd8af7968d9b3eff6
 **********************************************************************************************************************************
  -->
  <!--

 THRESHOLDS:

 ZERO    =  1.00D-12  ONEINT  =  1.00D-12  TWOINT  =  1.00D-15  PREFAC  =  1.00D-14  LOCALI  =  1.00D-09  EORDER  =  1.00D-04
 ENERGY  =  0.00D+00  ETEST   =  0.00D+00  EDENS   =  0.00D+00  THRDEDEF=  1.00D-06  GRADIENT=  1.00D-02  STEP    =  1.00D-03
 ORBITAL =  1.00D-05  CIVEC   =  1.00D-05  COEFF   =  1.00D-04  PRINTCI =  5.00D-02  PUNCHCI =  9.90D+01  OPTGRAD =  3.00D-04
 OPTENERG=  1.00D-06  OPTSTEP =  3.00D-04  THRGRAD =  1.00D-10  COMPRESS=  1.00D-11  VARMIN  =  1.00D-07  VARMAX  =  1.00D-03
 THRDOUB =  0.00D+00  THRDIV  =  1.00D-05  THRRED  =  1.00D-07  THRPSP  =  1.00D+00  THRDC   =  1.00D-10  THRCS   =  1.00D-10
 THRNRM  =  1.00D-08  THREQ   =  0.00D+00  THRDE   =  1.00D+00  THRREF  =  1.00D-05  SPARFAC =  1.00D+00  THRDLP  =  1.00D-07
 THRDIA  =  1.00D-10  THRDLS  =  1.00D-07  THRGPS  =  0.00D+00  THRKEX  =  0.00D+00  THRDIS  =  2.00D-01  THRVAR  =  1.00D-10
 THRLOC  =  1.00D-06  THRGAP  =  1.00D-06  THRLOCT = -1.00D+00  THRGAPT = -1.00D+00  THRORB  =  1.00D-06  THRMLTP =  0.00D+00
 THRCPQCI=  1.00D-10  KEXTA   =  0.00D+00  THRCOARS=  0.00D+00  SYMTOL  =  1.00D-06  GRADTOL =  1.00D-06  THROVL  =  1.00D-08
 THRORTH =  1.00D-08  GRID    =  1.00D-06  GRIDMAX =  1.00D-03  DTMAX   =  0.00D+00  THROCCDE=  1.00D-01  THROCCDE=  1.00D-01



 THRESHOLDS:

 ZERO    =  1.00D-12  ONEINT  =  1.00D-12  TWOINT  =  1.00D-15  PREFAC  =  1.00D-14  LOCALI  =  1.00D-09  EORDER  =  1.00D-04
 ENERGY  =  0.00D+00  ETEST   =  0.00D+00  EDENS   =  0.00D+00  THRDEDEF=  1.00D-06  GRADIENT=  1.00D-02  STEP    =  1.00D-03
 ORBITAL =  1.00D-05  CIVEC   =  1.00D-05  COEFF   =  1.00D-04  PRINTCI =  5.00D-02  PUNCHCI =  9.90D+01  OPTGRAD =  3.00D-04
 OPTENERG=  1.00D-06  OPTSTEP =  3.00D-04  THRGRAD =  1.00D-10  COMPRESS=  1.00D-11  VARMIN  =  1.00D-07  VARMAX  =  1.00D-03
 THRDOUB =  0.00D+00  THRDIV  =  1.00D-05  THRRED  =  1.00D-07  THRPSP  =  1.00D+00  THRDC   =  1.00D-10  THRCS   =  1.00D-10
 THRNRM  =  1.00D-08  THREQ   =  0.00D+00  THRDE   =  1.00D+00  THRREF  =  1.00D-05  SPARFAC =  1.00D+00  THRDLP  =  1.00D-07
 THRDIA  =  1.00D-10  THRDLS  =  1.00D-07  THRGPS  =  0.00D+00  THRKEX  =  0.00D+00  THRDIS  =  2.00D-01  THRVAR  =  1.00D-10
 THRLOC  =  1.00D-06  THRGAP  =  1.00D-06  THRLOCT = -1.00D+00  THRGAPT = -1.00D+00  THRORB  =  1.00D-06  THRMLTP =  0.00D+00
 THRCPQCI=  1.00D-10  KEXTA   =  0.00D+00  THRCOARS=  0.00D+00  SYMTOL  =  1.00D-06  GRADTOL =  1.00D-06  THROVL  =  1.00D-15
 THRORTH =  1.00D-08  GRID    =  1.00D-06  GRIDMAX =  1.00D-03  DTMAX   =  0.00D+00  THROCCDE=  1.00D-01  THROCCDE=  1.00D-01



 Variable memory set to 1000000000 words,  buffer space   230000 words

 SETTING BASIS          =    USERDEF
 SETTING GD_CCSD        =      -108.94859710
 SETTING H_CCSD         =        -0.49982987
 SETTING NE             =        21.00000000
 SETTING SYMM           =         4.00000000
 SETTING SS             =         7.00000000
 SETTING A1             =         7.00000000
 SETTING B1             =         3.00000000
 SETTING B2             =         3.00000000
 SETTING A2             =         1.00000000
 ZUNIT=ANG

  --><jobstep command="RKS-SCF" commandset="SCFPRO">
   <!--


 Recomputing integrals since basis changed


 Using spherical harmonics



 PROGRAM * SEWARD (Integral evaluation for generally contracted gaussian basis sets)     Author: Roland Lindh, 1990

 Geometry written to block  1 of record 700

 Orientation using atomic masses
 Molecule type: Symmetric top,     Order of principal axis = 3
 Symmetry elements: Y,Z
 Rotational constants:      75.7971123     75.7971123     37.8985561 GHz  (calculated with average atomic masses)

 Point group  C2v


   --><cml:molecule>
    <cml:symmetry pointGroup="C2v"/>
    <cml:atomArray>
     <cml:atom id="a1" elementType="Gd" x3="-0.550785678440913E-17" y3="0.0" z3="0.0"/>
     <cml:atom id="a2" elementType="H" x3="2.1" y3="0.0" z3="0.0"/>
     <cml:atom id="a3" elementType="H" x3="-1.05" y3="-1.81865334794732" z3="0.0"/>
     <cml:atom id="a4" elementType="H" x3="-1.05" y3="1.81865334794732" z3="0.0"/>
    </cml:atomArray>
    <cml:bondArray>
     <cml:bond atomRefs2="a1 a2"/>
     <cml:bond atomRefs2="a1 a3"/>
     <cml:bond atomRefs2="a1 a4"/>
    </cml:bondArray>
   </cml:molecule><!--

 ATOMIC COORDINATES

 NR  ATOM    CHARGE       X              Y              Z

   1  GD     18.00   -0.000000000    0.000000000    0.000000000
   2  H1      1.00    3.968424862    0.000000000    0.000000000
   3  H2      1.00   -1.984212431   -3.436756743    0.000000000
   4  H3      1.00   -1.984212431    3.436756743    0.000000000

 Bond lengths in Bohr (Angstrom)

 1-2  3.968424862  1-3  3.968424862  1-4  3.968424862
     ( 2.100000000)     ( 2.100000000)     ( 2.100000000)

 Bond angles

  2-1-3  120.00000000   2-1-4  120.00000000   3-1-4  120.00000000

 NUCLEAR CHARGE:                   21
 NUMBER OF PRIMITIVE AOS:         712
 NUMBER OF SYMMETRY AOS:          556
 NUMBER OF CONTRACTIONS:          556   ( 218A1  + 139B1  + 128B2  +  71A2  )
 NUMBER OF CORE ORBITALS:           0   (   0A1  +   0B1  +   0B2  +   0A2  )
 NUMBER OF VALENCE ORBITALS:       20   (   9A1  +   5B1  +   4B2  +   2A2  )


 NUCLEAR REPULSION ENERGY   14.04387200


 Eigenvalues of metric

         1 0.111E-06 0.287E-06 0.607E-06 0.718E-06 0.719E-06 0.723E-06 0.128E-05 0.300E-05
         2 0.607E-06 0.718E-06 0.426E-05 0.127E-04 0.233E-04 0.301E-04 0.430E-04 0.579E-04
         3 0.616E-06 0.724E-06 0.439E-05 0.138E-04 0.237E-04 0.446E-04 0.880E-04 0.148E-03
         4 0.724E-06 0.237E-04 0.148E-03 0.534E-03 0.824E-03 0.910E-03 0.395E-02 0.795E-02


 Contracted 2-electron integrals neglected if value below      1.0D-15
 AO integral compression algorithm  1   Integral accuracy      1.0D-15

     11422.401 MB (compressed) written to integral file ( 46.2%)

     Node minimum: 488.636 MB, node maximum: 1415.840 MB


 NUMBER OF SORTED TWO-ELECTRON INTEGRALS:  277020103.     BUFFER LENGTH:  32768
 NUMBER OF SEGMENTS:   9  SEGMENT LENGTH:   31999799      RECORD LENGTH: 524288

 Memory used in sort:      32.56 MW

 SORT1 READ  3090918106. AND WROTE   135064563. INTEGRALS IN    390 RECORDS. CPU TIME:    61.01 SEC, REAL TIME:    84.44 SEC
 SORT2 READ  1496099727. AND WROTE  3045755575. INTEGRALS IN  35486 RECORDS. CPU TIME:    10.77 SEC, REAL TIME:    33.17 SEC

 Node minimum:   276721764.  Node maximum:   277130841. integrals

 OPERATOR DM      FOR CENTER  0  COORDINATES:    0.000000    0.000000    0.000000


 **********************************************************************************************************************************
 DATASETS  * FILE   NREC   LENGTH (MB)   RECORD NAMES
              1      19       23.64       500      610      700      900      950      970     1000      129      960     1100
                                          VAR    BASINP    GEOM    SYMINP    ZMAT    AOBASIS   BASIS     P2S    ABASIS      S
                                         1400     1410     1420     1200     1210     1080     1600     1650     1700
                                           T        V       ECP      H0       H01     AOSYM     SMH    MOLCAS    OPER

 PROGRAMS   *        TOTAL       INT
 CPU TIMES  *       608.41    608.08
 REAL TIME  *       657.54 SEC
 DISK USED  *        29.56 GB
 GA USED    *         0.00 MB       (max)       0.00 MB       (current)
 **********************************************************************************************************************************

 Density functional group PBE0=PBEX+PBEC
 Functional: PBEX(Automatically generated (new) PBEX)                          Gradient terms: 1
 Functional: PBEC(Automatically generated (new) PBEC)                          Gradient terms: 1
 Use grid at  1800.2


 Exact exchange will be calculated, factor:  0.2500

 Functional: PBEX                      Factor:  0.7500
 Functional: PBEC                      Factor:  1.0000

 Generated new metagrid on record  1800.2 with target accuracy 1.0D-06 and 5795 points in CPU time    0.1
 Computed new grid on record 1800.1 in CPU time    0.1
  443291 words reserved for DFT integration

 PROGRAM * RKS-SCF (Restricted open shell Kohn-Sham)     Authors: W. Meyer, H.-J. Werner, P.J. Knowles, 1993

 NUMBER OF ELECTRONS:      14+    7-    SPACE SYMMETRY=4    SPIN SYMMETRY: Octet
 CONVERGENCE THRESHOLDS:    1.00E-05 (Density)    1.00E-06 (Energy)
 MAX. NUMBER OF ITERATIONS:      200
 INTERPOLATION TYPE:            DIIS
 INTERPOLATION STEPS:              2 (START)      1 (STEP)
 LEVEL SHIFTS:                 -2.00 (CLOSED) -1.00 (OPEN)

 Number of closed-shell orbitals:    7 (   5   1   1   0 )
 Number of open-shell orbitals:      7 (   2   2   2   1 )


 Use fine grid record 1800.2 for energy threshold  1.0D-06
 Guess basis ATOMIC-GUESS,GD=ECP46_GUESS not found. No density guess!


 Molecular orbital dump at record        4202.2

 ITERATION    DDIFF          GRAD             ENERGY        2-EL.EN.            DIPOLE MOMENTS         DIIS   ORB.
    1      0.000D+00      0.000D+00       -71.34410638    425.050569   -0.00207    0.00000    0.00000    0    start
    2      0.000D+00      0.175D+00       -36.04844411     31.435932   -0.49325    0.00000    0.00000    0    diag,B
    3      0.118D+02      0.707D-01       -74.93794433    416.311608   -0.03744    0.00000    0.00000    1    diag,B
    4      0.118D+02      0.166D+00       -84.57286074    391.780613   -0.08752    0.00000    0.00000    2    diag,B
    5      0.670D-01      0.132D+00       -94.23070606    359.881234   -0.30081    0.00000    0.00000    3    diag,B
    6      0.146D+00      0.981D-01      -100.03969936    333.596133   -0.94590    0.00000    0.00000    4    diag,B
    7      0.519D-01      0.767D-01      -102.69533624    317.941008   -1.78758    0.00000    0.00000    5    diag,B
    8      0.176D-01      0.656D-01      -104.01942382    309.621834   -2.20084    0.00000    0.00000    6    diag,B
    9      0.179D-01      0.593D-01      -105.11898534    304.510267   -1.81514    0.00000    0.00000    7    diag,B
   10      0.206D-01      0.557D-01      -105.92436882    300.998428   -1.62593    0.00000    0.00000    8    orth
   11      0.955D-02      0.530D-01      -107.92438550    287.801936   -2.09186    0.00000    0.00000    9    diag,B
   12      0.176D-01      0.418D-01      -109.84822021    271.427035   -1.91196    0.00000    0.00000   10    diag,B
   13      0.535D-01      0.256D-01      -110.89791509    255.566631   -1.06778    0.00000    0.00000   11    diag,B
   14      0.320D-01      0.117D-01      -111.30002619    241.994307   -1.04028    0.00000    0.00000   12    diag,B
   15      0.327D-01      0.360D-02      -111.43648627    235.366064   -1.34993    0.00000    0.00000   13    diag,B
   16      0.888D-02      0.413D-02      -111.54009577    233.155490   -1.72576    0.00000    0.00000   14    diag,B
   17      0.561D-02      0.360D-02      -111.63065358    231.955517   -1.94698    0.00000    0.00000   15    diag,B
   18      0.731D-02      0.244D-02      -111.69175652    231.357174   -1.87320    0.00000    0.00000   16    diag,B
   19      0.988D-02      0.102D-02      -111.70105047    230.804950   -1.74860    0.00000    0.00000   17    diag,B
   20      0.503D-02      0.841D-03      -111.70668814    230.328525   -1.58804    0.00000    0.00000   18    orth
   21      0.320D-02      0.740D-03      -111.71013174    230.146648   -1.44999    0.00000    0.00000   19    diag,B
   22      0.167D-02      0.505D-03      -111.71262511    229.766177   -1.36019    0.00000    0.00000   20    diag,B
   23      0.146D-02      0.510D-03      -111.71507601    229.603099   -1.25908    0.00000    0.00000   21    diag,B
   24      0.135D-02      0.328D-03      -111.71656164    229.489853   -1.23137    0.00000    0.00000   22    diag,B
   25      0.756D-03      0.283D-03      -111.71767420    229.391612   -1.22294    0.00000    0.00000   23    diag,B
   26      0.465D-03      0.284D-03      -111.71800601    229.375130   -1.22319    0.00000    0.00000   24    diag,B
   27      0.982D-04      0.283D-03      -111.71497231    229.529828   -1.20509    0.00000    0.00000   25    diag,B
   28      0.841D-03      0.262D-03      -111.71427518    229.512708   -1.17637    0.00000    0.00000   26    diag,B
   29      0.578D-03      0.219D-03      -111.71231649    229.587413   -1.12171    0.00000    0.00000   27    diag,B
   30      0.133D-02      0.199D-03      -111.71272213    229.515407   -1.12311    0.00000    0.00000   28    orth
   31      0.337D-03      0.151D-03      -111.71350447    229.336439   -1.12599    0.00000    0.00000   29    diag,B
   32      0.685D-03      0.158D-03      -111.71385352    229.222030   -1.13368    0.00000    0.00000   29    diag,B
   33      0.391D-03      0.128D-03      -111.71427748    229.116970   -1.14368    0.00000    0.00000   29    diag,B
   34      0.525D-03      0.122D-03      -111.71487749    228.983647   -1.16508    0.00000    0.00000   29    diag,B
   35      0.660D-03      0.902D-04      -111.71564132    228.778938   -1.20624    0.00000    0.00000   29    diag,B
   36      0.972D-03      0.739D-04      -111.71616414    228.595603   -1.24338    0.00000    0.00000   29    diag,B
   37      0.718D-03      0.528D-04      -111.71640253    228.508919   -1.26661    0.00000    0.00000   29    diag,B
   38      0.516D-03      0.498D-04      -111.71663105    228.401707   -1.29117    0.00000    0.00000   29    diag,B
   39      0.443D-03      0.397D-04      -111.71673264    228.363678   -1.31130    0.00000    0.00000   29    diag,B
   40      0.474D-03      0.292D-04      -111.71686725    228.273335   -1.33733    0.00000    0.00000   29    orth
   41      0.539D-03      0.328D-04      -111.71691187    228.256173   -1.35319    0.00000    0.00000   29    diag,B
   42      0.630D-03      0.231D-04      -111.71694877    228.224430   -1.36708    0.00000    0.00000   29    diag,B
   43      0.268D-03      0.152D-04      -111.71696956    228.234237   -1.37949    0.00000    0.00000   29    diag,B
   44      0.429D-03      0.131D-04      -111.71698116    228.233163   -1.38898    0.00000    0.00000   29    diag,B
   45      0.376D-03      0.932D-05      -111.71698770    228.236661   -1.39619    0.00000    0.00000   29    diag,B
   46      0.444D-03      0.821D-05      -111.71699041    228.243469   -1.40039    0.00000    0.00000   29    diag,B
   47      0.221D-03      0.507D-05      -111.71699181    228.248746   -1.40332    0.00000    0.00000   29    diag,B
   48      0.174D-03      0.334D-05      -111.71699234    228.250933   -1.40483    0.00000    0.00000   29    diag,B
   49      0.218D-03      0.246D-05      -111.71699257    228.251880   -1.40537    0.00000    0.00000   29    fixocc
   50      0.151D-03      0.225D-05      -111.71699262    228.253122   -1.40562    0.00000    0.00000   29    orth
   51      0.524D-04      0.112D-05      -111.71699266    228.252421   -1.40573    0.00000    0.00000   29    diag,B
   52      0.576D-04      0.803D-06      -111.71699269    228.252470   -1.40560    0.00000    0.00000   29    diag,B
   53      0.437D-04      0.671D-06      -111.71699271    228.251784   -1.40554    0.00000    0.00000   29    diag,B
   54      0.279D-04      0.537D-06      -111.71699273    228.251127   -1.40540    0.00000    0.00000   29    diag,B
   55      0.207D-04      0.477D-06      -111.71699274    228.250215   -1.40527    0.00000    0.00000   29    diag,B
   56      0.130D-04      0.396D-06      -111.71699276    228.249333   -1.40512    0.00000    0.00000   29    diag,B
   57      0.112D-04      0.256D-06      -111.71699277    228.248680   -1.40500    0.00000    0.00000   29    diag,B
   58      0.161D-04      0.187D-06      -111.71699277    228.248041   -1.40491    0.00000    0.00000   29    diag,B
   59      0.941D-05      0.107D-06      -111.71699277    228.247993   -1.40491    0.00000    0.00000    0    orth

 Final alpha occupancy:   7   3   3   1
 Final beta  occupancy:   5   1   1   0

 !RKS STATE 1.4 Energy               -111.716992768432
   --><property name="Energy" method="RKS" principal="true" stateSymmetry="4" stateNumber="1"
     value="-111.716992768432"/><!--
 Nuclear energy                        14.04387200
 One-electron energy                 -229.73213725
 Two-electron energy                  114.12399632
 Density functional                   -10.15272384     PBEX=-12.59857098 PBEC= -0.70379561
 Virial quotient                       -0.81557832
 !RKS STATE 1.4 Dipole moment          -1.40490799     0.00000000     0.00000000
 Dipole moment /Debye                  -3.57068605     0.00000000     0.00000000
   --><property name="Dipole moment" method="RKS" principal="true" stateSymmetry="4"
     stateNumber="1" value="-1.40490799009061 0.0 0.0"/><!--

 ELECTRON ORBITALS
 =================


   Orb  Occ    Energy  Couls-En    Coefficients

                                   1 1s      1 1s      1 1s      1 1s      1 1s      1 1s      1 1s      1 1s      1 1s      1 1s
                                   1 1s      1 1s      1 1s      1 1s      1 1s      1 1s      1 1s      1 1s      1 1s      1 1s
                                   1 1s      1 1s      1 1s      1 1s      1 1s      1 1s      1 1s      1 1s      1 1s      1 1s
                                   1 1s      1 1s      1 1s      1 1s      1 1s      1 1s      1 1s      1 1s      1 2px     1 2px
                                   1 2px     1 2px     1 2px     1 2px     1 2px     1 2px     1 2px     1 2px     1 2px     1 2px
                                   1 2px     1 2px     1 2px     1 2px     1 2px     1 2px     1 2px     1 2px     1 2px     1 2px
                                   1 2px     1 2px     1 2px     1 2px     1 2px     1 2px     1 2px     1 2px     1 2px     1 2px
                                   1 2px     1 2px     1 2px     1 2px     1 2px     1 3d0     1 3d2+    1 3d0     1 3d2+    1 3d0
                                   1 3d2+    1 3d0     1 3d2+    1 3d0     1 3d2+    1 3d0     1 3d2+    1 3d0     1 3d2+    1 3d0
                                   1 3d2+    1 3d0     1 3d2+    1 3d0     1 3d2+    1 3d0     1 3d2+    1 3d0     1 3d2+    1 3d0
                                   1 3d2+    1 3d0     1 3d2+    1 3d0     1 3d2+    1 3d0     1 3d2+    1 3d0     1 3d2+    1 3d0
                                   1 3d2+    1 3d0     1 3d2+    1 3d0     1 3d2+    1 3d0     1 3d2+    1 3d0     1 3d2+    1 3d0
                                   1 3d2+    1 3d0     1 3d2+    1 4f1+    1 4f3+    1 4f1+    1 4f3+    1 4f1+    1 4f3+    1 4f1+
                                   1 4f3+    1 4f1+    1 4f3+    1 4f1+    1 4f3+    1 4f1+    1 4f3+    1 4f1+    1 4f3+    1 4f1+
                                   1 4f3+    1 4f1+    1 4f3+    1 4f1+    1 4f3+    1 4f1+    1 4f3+    1 4f1+    1 4f3+    1 4f1+
                                   1 4f3+    1 5g0     1 5g4+    1 5g2+    1 5g0     1 5g4+    1 5g2+    1 5g0     1 5g4+    1 5g2+
                                   1 5g0     1 5g4+    1 5g2+    1 5g0     1 5g4+    1 5g2+    1 5g0     1 5g4+    1 5g2+    1 5g0
                                   1 5g4+    1 5g2+    1 5g0     1 5g4+    1 5g2+    1 5g0     1 5g4+    1 5g2+    1 6h1+    1 6h3+
                                   1 6h5+    1 6h1+    1 6h3+    1 6h5+    1 6h1+    1 6h3+    1 6h5+    2 1s      2 1s      2 1s
                                   2 1s      2 1s      2 1s      2 2px     2 2px     2 2px     2 3d0     2 3d2+    2 3d0     2 3d2+
                                   3 1s      3 1s      3 1s      3 1s      3 1s      3 1s      3 2px     3 2py     3 2px     3 2py
                                   3 2px     3 2py     3 3d0     3 3d2+    3 3d2-    3 3d0     3 3d2+    3 3d2-

   1.1   2    -1.8401  -14.8245 -0.000000  0.000000 -0.000000  0.000000 -0.000000  0.000000 -0.000001  0.000002 -0.000008  0.000140
                                 0.000600  0.001846  0.003881  0.008601 -0.003407  0.006724  0.009065  0.786722 -0.050363  0.024343
                                 0.678989  0.475764  0.533947  0.366918  0.138925 -0.000244 -0.001074 -0.003147 -0.008888 -0.042074
                                -1.234636  0.222015 -0.239569 -0.665865 -0.208706 -0.006539  0.002342 -0.000511 -0.000000  0.000000
                                -0.000000  0.000000 -0.000000  0.000000 -0.000000  0.000000 -0.000000  0.000000 -0.000000  0.000000
                                -0.000000  0.000000 -0.000000  0.000001 -0.000005 -0.000060 -0.000102 -0.000758 -0.001988  0.002263
                                -0.003830 -0.000172  0.000589 -0.000176  0.000021  0.000093  0.000629  0.001128  0.002283 -0.001391
                                -0.000081 -0.000209  0.000218  0.000019 -0.000004  0.000000  0.000000 -0.000000 -0.000000  0.000000
                                 0.000000 -0.000001 -0.000000  0.000006  0.000001 -0.000027 -0.000009  0.000326  0.000265  0.000047
                                 0.002655  0.003777 -0.000160  0.000356  0.001262 -0.003640 -0.001047 -0.002437 -0.002763 -0.000559
                                -0.000704  0.001823 -0.003970 -0.005156  0.002154 -0.000125 -0.002063 -0.001151 -0.004834  0.002707
                                 0.000683  0.003262 -0.000080  0.002449  0.000268 -0.001167 -0.000155  0.000634  0.000101 -0.000236
                                -0.000037  0.000066  0.000010  0.000000 -0.000000 -0.000000  0.000000  0.000001 -0.000009 -0.000003
                                -0.000380 -0.000147 -0.000827 -0.000363 -0.000448  0.000358 -0.002001  0.000048  0.000070  0.000254
                                 0.000156  0.000056  0.001516 -0.000337 -0.003547  0.000066 -0.000124 -0.000060  0.000090  0.000008
                                -0.000046 -0.000064  0.000006 -0.000031  0.000162 -0.000303  0.000514  0.000272 -0.000063 -0.000448
                                -0.000446 -0.000361 -0.000789 -0.000120  0.000010 -0.000110  0.000950  0.000142  0.000056 -0.000563
                                 0.000170 -0.000083 -0.000027 -0.000019  0.000015  0.000060 -0.000005  0.000001 -0.000001 -0.000000
                                 0.000004  0.000002 -0.000002  0.000007 -0.000003 -0.000021  0.000026  0.000028  0.000308  0.000824
                                 0.001921  0.006637  0.000327 -0.000216 -0.001136 -0.002462 -0.000092  0.000152 -0.000115  0.000217
                                 0.000048  0.000536  0.001430  0.004285  0.010603  0.000864  0.000203  0.000339  0.001204  0.002120
                                 0.002044  0.003552 -0.000191 -0.000167  0.000279 -0.000240 -0.000218  0.000371

   2.1   2    -0.9928  -12.2148 -0.000000  0.000000 -0.000000  0.000000 -0.000000  0.000000 -0.000000  0.000000 -0.000000  0.000002
                                 0.000008  0.000026  0.000055  0.000123 -0.000050  0.000135 -0.000778  0.003688 -0.005942  0.004416
                                 0.033221 -0.013464  0.001555  0.010705  0.013732 -0.000003 -0.000015 -0.000045 -0.000127  0.001007
                                -0.006015 -0.013720  0.007760 -0.027184 -0.012128 -0.000308  0.000110 -0.000024 -0.000000  0.000000
                                -0.000000  0.000000 -0.000000  0.000000 -0.000000  0.000000 -0.000000  0.000001 -0.000003  0.000004
                                -0.000005  0.000010 -0.000029  0.000123 -0.001151 -0.011872 -0.009864  0.160887 -0.101995  0.213740
                                 0.355955  0.069975  0.012195 -0.002435  0.004596  0.015539 -0.079689 -0.189490  0.174937  0.351379
                                 0.003324  0.002408 -0.012471 -0.000835  0.000147 -0.000000  0.000000  0.000000 -0.000000 -0.000000
                                 0.000000  0.000000 -0.000000 -0.000000  0.000000  0.000002 -0.000002 -0.000033  0.000054 -0.000315
                                 0.000599  0.000516 -0.001281 -0.000048  0.000771 -0.001959  0.008791  0.003562  0.000003  0.000081
                                -0.000139  0.000584 -0.001173 -0.000791  0.001769  0.000669 -0.003772  0.000757 -0.008609 -0.003266
                                -0.007903  0.004428  0.002839 -0.000129  0.001331 -0.000250 -0.001386 -0.000472 -0.002288  0.000134
                                 0.000594 -0.000036 -0.000153 -0.000001 -0.000001  0.000007  0.000011 -0.000099 -0.000169 -0.002024
                                -0.003730 -0.003462 -0.006396 -0.005571 -0.008381 -0.003908 -0.007502 -0.000885 -0.001330  0.000171
                                -0.000245 -0.001137  0.001576  0.002328 -0.001704 -0.002175 -0.001077  0.001191  0.000395  0.000005
                                 0.000040 -0.000003  0.000012 -0.000013 -0.000003 -0.000029  0.000038 -0.000031  0.000083 -0.000115
                                 0.000171  0.000227 -0.000108 -0.000326 -0.001370  0.000276  0.000054  0.002351 -0.000523  0.000213
                                -0.003220  0.001057 -0.000473  0.001742 -0.000718  0.000091 -0.000504  0.000093  0.000007  0.000044
                                -0.000009  0.000552 -0.000134 -0.000006  0.000306 -0.000567 -0.000129  0.000228  0.002544  0.008213
                                 0.019098  0.007226  0.010985 -0.001263 -0.005810 -0.003143 -0.000382  0.000672 -0.000457  0.000511
                                -0.000203 -0.002243 -0.007379 -0.019607  0.004374 -0.011624 -0.000364 -0.001131 -0.001381 -0.007373
                                 0.000749 -0.001399  0.000416  0.000746 -0.000431  0.000850  0.001769 -0.000412

   3.1   2    -0.3546  -12.7157  0.000000 -0.000000  0.000000 -0.000000  0.000000 -0.000000  0.000000 -0.000000  0.000001 -0.000014
                                -0.000059 -0.000181 -0.000382 -0.000851  0.000343 -0.000805  0.002263 -0.055634  0.019784 -0.052349
                                -0.283259  0.027079  0.128652 -0.072683 -0.112425  0.000024  0.000105  0.000309  0.000878 -0.001616
                                 0.093577  0.182137 -0.133413  0.142989  0.126828  0.002881 -0.001050  0.000234  0.000000 -0.000000
                                 0.000000 -0.000000  0.000000 -0.000000  0.000000 -0.000000  0.000000 -0.000000  0.000001 -0.000001
                                 0.000001 -0.000003  0.000009 -0.000041  0.000400  0.002865  0.002084  0.009356 -0.021333 -0.065082
                                -0.094608  0.252090 -0.429764 -0.111549 -0.001403 -0.003129 -0.006598 -0.000207  0.034266  0.132256
                                 0.023619  0.155032 -0.025956 -0.007121  0.001346  0.000000  0.000000 -0.000000 -0.000000  0.000000
                                 0.000000 -0.000001 -0.000000  0.000002  0.000001 -0.000012 -0.000004  0.000232  0.000060  0.002269
                                 0.000309 -0.006285 -0.001710  0.004254  0.002088 -0.000610 -0.006366 -0.031260 -0.041087 -0.000564
                                -0.000123 -0.004483 -0.000521  0.007633  0.001394 -0.001352  0.001982 -0.013186 -0.003629  0.007936
                                 0.083146 -0.048123 -0.207065  0.004834 -0.036747 -0.004951  0.033310  0.003587  0.011283 -0.001161
                                -0.001631  0.000323  0.000324  0.000085  0.000018 -0.000683 -0.000141  0.009546  0.002003  0.190626
                                 0.040258  0.308498  0.064644  0.336223  0.071132  0.208304  0.048965  0.079251  0.017145  0.039253
                                 0.009059 -0.016735 -0.004844  0.085699  0.027450  0.007299  0.003073 -0.000214 -0.000089 -0.004008
                                -0.000537  0.000007 -0.000056  0.000063 -0.000112  0.000254 -0.000175  0.000061 -0.000639  0.000636
                                -0.000395  0.001590 -0.000642  0.001484 -0.003882  0.002239 -0.000100  0.006319 -0.004624  0.000721
                                 0.002555  0.001114  0.003265 -0.028662  0.015372 -0.000802  0.007291 -0.005246  0.000155  0.000104
                                 0.000096 -0.000695 -0.000347 -0.000032 -0.000582 -0.000912 -0.000189  0.000041  0.000410  0.002757
                                -0.007580  0.286604 -0.097616  0.000367  0.009336 -0.077521  0.000421 -0.000358  0.002356 -0.005476
                                 0.001686  0.018956  0.072025  0.191132 -0.133009  0.091344  0.000911  0.001541  0.012551  0.024808
                                -0.023704 -0.058307 -0.001004 -0.001127  0.001188 -0.006396 -0.007074  0.006350

   4.1   2    -0.3336   -7.6785 -0.000000  0.000000 -0.000000  0.000000 -0.000000  0.000000 -0.000000  0.000000 -0.000002  0.000028
                                 0.000121  0.000374  0.000788  0.001758 -0.000708  0.001593 -0.002713  0.140136 -0.010712  0.026534
                                 0.272769  0.145829 -0.021193  0.120364  0.224586 -0.000049 -0.000217 -0.000638 -0.001813 -0.000292
                                -0.237722 -0.039285 -0.103369 -0.136772 -0.282553 -0.006790  0.002423 -0.000535  0.000000 -0.000000
                                 0.000000 -0.000000  0.000000 -0.000000  0.000000 -0.000000  0.000000 -0.000000  0.000001 -0.000001
                                 0.000001 -0.000002  0.000006 -0.000030  0.000288  0.002324  0.001434 -0.022424 -0.007025 -0.070708
                                -0.095141  0.117445 -0.197105 -0.071406 -0.001055 -0.002655  0.011731  0.034593 -0.001116  0.014966
                                 0.024454  0.117275 -0.056703 -0.006702  0.001225 -0.000000 -0.000000  0.000000  0.000000 -0.000000
                                -0.000000  0.000000  0.000000 -0.000002 -0.000002  0.000009  0.000008 -0.000181 -0.000114 -0.002095
                                -0.000893  0.008045  0.004961 -0.007232 -0.005088  0.004744  0.000356  0.051861  0.029585  0.000461
                                 0.000248  0.004394  0.001922 -0.008672 -0.004739  0.000655  0.000970  0.028727  0.023896  0.035247
                                 0.069924  0.008100 -0.095027 -0.006384 -0.025338  0.008306  0.021734 -0.004764  0.000038  0.001328
                                 0.000655 -0.000347 -0.000215  0.000044  0.000005 -0.000351 -0.000038  0.004911  0.000541  0.098052
                                 0.010630  0.158606  0.016163  0.172736  0.016521  0.104915  0.005114  0.040771  0.004791  0.020218
                                 0.003681 -0.012402 -0.012107  0.043032 -0.007403  0.002763  0.004179  0.000221 -0.002971 -0.001628
                                 0.001254 -0.000028 -0.000020  0.000017 -0.000022  0.000051  0.000067 -0.000081 -0.000243  0.000112
                                -0.000643  0.000531 -0.000658 -0.000244 -0.000706  0.000364 -0.002726  0.002328 -0.004155  0.000136
                                 0.000073  0.001271 -0.000415 -0.012493  0.006861 -0.000036  0.003724 -0.002180  0.000079  0.000058
                                 0.000054 -0.000451 -0.000144  0.000013 -0.000230 -0.000114  0.000085 -0.000500 -0.005605 -0.020253
                                -0.049084  0.120255 -0.043187  0.000908  0.009160 -0.039876  0.000394 -0.000445  0.002587 -0.003278
                                -0.003218 -0.036218 -0.141324 -0.340894 -0.432912 -0.004752 -0.000736 -0.001172 -0.010605 -0.014315
                                -0.029301 -0.051813  0.000372  0.000037 -0.000893  0.001476 -0.002861 -0.000548

   5.1   2    -0.2299   -6.0365  0.000000 -0.000000  0.000000 -0.000000  0.000000 -0.000000  0.000000 -0.000000  0.000001 -0.000019
                                -0.000080 -0.000246 -0.000520 -0.001162  0.000469 -0.001101  0.002717 -0.084886  0.010571 -0.026369
                                -0.213609 -0.075257  0.121216  0.022997 -0.064736  0.000032  0.000143  0.000420  0.001197 -0.001264
                                 0.144925  0.063782 -0.017163  0.083242  0.133071  0.003627 -0.001345  0.000301  0.000000 -0.000000
                                 0.000000 -0.000000  0.000000 -0.000000  0.000000 -0.000000  0.000000 -0.000000  0.000000 -0.000000
                                 0.000001 -0.000001  0.000004 -0.000017  0.000168  0.001639  0.000972 -0.039990  0.006483 -0.049614
                                -0.080117  0.009260  0.026947 -0.002680 -0.000660 -0.002040  0.021544  0.053242 -0.035510 -0.086634
                                 0.026293  0.095493 -0.085250 -0.006676  0.001194  0.000000 -0.000000 -0.000000  0.000000  0.000000
                                -0.000000 -0.000000  0.000002  0.000002 -0.000007 -0.000008  0.000039  0.000151 -0.000679  0.001601
                                -0.005701 -0.005658  0.017600  0.004754 -0.017577 -0.002103  0.007435 -0.034814  0.117852 -0.000375
                                 0.001583 -0.003287  0.010658  0.006267 -0.019030 -0.000647  0.004176 -0.018501  0.072012 -0.017429
                                 0.086450 -0.031517  0.040360 -0.004921  0.008464 -0.009471  0.022900  0.000507 -0.010329 -0.000394
                                 0.003074  0.000118 -0.000823  0.000005  0.000005 -0.000036 -0.000042  0.000504  0.000605  0.009864
                                 0.012447  0.015365  0.020780  0.016461  0.023819  0.007144  0.017932  0.004349  0.004966  0.002825
                                 0.001585 -0.008054  0.000858 -0.001635  0.015341 -0.000906 -0.000108 -0.002971  0.003508  0.001256
                                -0.000446  0.000013  0.000014 -0.000012 -0.000040  0.000028 -0.000075  0.000054  0.000119 -0.000073
                                 0.000164 -0.000177 -0.000202  0.000573  0.000923 -0.000690  0.000556  0.000323 -0.003348  0.001085
                                -0.000027  0.000398  0.001425  0.000173 -0.000783  0.000159  0.001073 -0.000327  0.000015 -0.000007
                                 0.000008 -0.000157 -0.000028 -0.000041  0.000121 -0.000030  0.000075  0.003280  0.037070  0.138479
                                 0.321045  0.323333  0.048943 -0.001795 -0.020363 -0.023438 -0.000628  0.001225 -0.002841  0.001505
                                -0.000771 -0.008744 -0.034633 -0.089258 -0.131112 -0.036898 -0.000648  0.000651 -0.005615  0.001705
                                -0.012475 -0.007603 -0.000026 -0.000615 -0.000486 -0.000895 -0.001768 -0.000795

   6.1   +    -0.5409  -14.7153  0.000000 -0.000000  0.000000 -0.000000  0.000000 -0.000000  0.000000 -0.000000  0.000000 -0.000001
                                -0.000005 -0.000015 -0.000031 -0.000067  0.000025 -0.000229  0.004499  0.045915  0.057968 -0.148217
                                -0.572168  0.347495  0.414020 -0.096106 -0.036092  0.000002  0.000009  0.000025  0.000070 -0.007565
                                -0.082916  0.621109 -0.718773  0.481860 -0.006594 -0.001104  0.000378 -0.000081  0.000000 -0.000000
                                 0.000000 -0.000000  0.000000 -0.000000  0.000000 -0.000000  0.000000 -0.000000  0.000000 -0.000000
                                 0.000000 -0.000001  0.000002 -0.000008  0.000046  0.000055  0.000351  0.006154  0.000320  0.022136
                                 0.029159 -0.036991  0.079853  0.024763 -0.000083 -0.000106 -0.004013 -0.005904 -0.005178 -0.014201
                                -0.007704 -0.041359  0.014338  0.002186 -0.000404  0.000000  0.000000 -0.000000 -0.000000  0.000000
                                 0.000000 -0.000001 -0.000000  0.000004  0.000001 -0.000020 -0.000006  0.000364  0.000102  0.003189
                                 0.000926 -0.005642 -0.002190  0.001076  0.001368  0.002226  0.002513 -0.010328 -0.004510 -0.000860
                                -0.000244 -0.005957 -0.001779  0.008418  0.002836 -0.003589 -0.001117  0.007863 -0.005557  0.104848
                                -0.018455 -0.179178  0.033666 -0.002252  0.008900  0.002553 -0.009726  0.003523 -0.000909 -0.001255
                                -0.000144  0.000364  0.000067 -0.000018  0.000097  0.000145 -0.000777 -0.002078  0.010906 -0.041912
                                 0.219651 -0.067660  0.346716 -0.072109  0.366547 -0.041432  0.215599 -0.018260  0.098314 -0.009822
                                 0.059962  0.004443 -0.054424 -0.016254  0.102362 -0.000630  0.021971  0.000146 -0.006266  0.000722
                                 0.000197  0.000071  0.000038 -0.000015 -0.000212  0.000065 -0.000001  0.000772  0.000289 -0.000193
                                -0.001580  0.000155 -0.000028  0.003694 -0.000213  0.000007 -0.008000 -0.001480  0.001011  0.002472
                                -0.000818 -0.000740  0.012780  0.005225 -0.002741 -0.003473 -0.001620  0.000991  0.000199  0.000453
                                -0.000493  0.000609  0.000438 -0.000914  0.000281  0.000196 -0.001099 -0.000144 -0.001853 -0.007689
                                -0.010066 -0.278096  0.029555 -0.001072 -0.014158  0.069114 -0.000441  0.001060 -0.005896  0.008940
                                -0.000111 -0.001487 -0.006982 -0.007044 -0.245557  0.004728  0.000617  0.001013  0.010245  0.015274
                                -0.029559 -0.051246 -0.000571 -0.000673  0.001518 -0.007149 -0.004256  0.009905

   7.1   +    -0.1333   -6.3863  0.000000 -0.000000  0.000000 -0.000000  0.000000 -0.000000  0.000000 -0.000000  0.000001 -0.000024
                                -0.000104 -0.000320 -0.000675 -0.001507  0.000614 -0.001359  0.001738 -0.146804 -0.033266  0.069484
                                 0.000388 -0.232382  0.327253  0.475066  0.305159  0.000042  0.000186  0.000547  0.001552  0.000547
                                 0.265803 -0.291041  0.004451 -0.107892 -0.066961  0.010968 -0.001864  0.000339  0.000000 -0.000000
                                 0.000000 -0.000000  0.000000 -0.000000  0.000000 -0.000000  0.000000 -0.000000  0.000000 -0.000000
                                 0.000000 -0.000000  0.000001 -0.000003  0.000022  0.000229  0.000453  0.010897  0.004358  0.030559
                                 0.035985 -0.012878 -0.016607 -0.019172 -0.000084 -0.000348 -0.006714 -0.015229 -0.001130 -0.006145
                                -0.012191 -0.057741  0.021773  0.002868 -0.000534 -0.000000 -0.000000  0.000000  0.000000 -0.000001
                                -0.000000  0.000004  0.000000 -0.000017 -0.000001  0.000089  0.000004 -0.001546 -0.000064 -0.013797
                                -0.000482  0.042659  0.002089 -0.038159 -0.003113  0.007924  0.003739  0.232199  0.024622  0.003640
                                 0.000141  0.026713  0.000876 -0.047851 -0.001865  0.017546  0.000903  0.152895  0.013866  0.192142
                                 0.005206  0.168525  0.024862  0.112855  0.006978  0.051432  0.003394  0.006114  0.002825 -0.000025
                                -0.000626  0.000041  0.000158  0.000001  0.000002 -0.000011 -0.000016  0.000162  0.000225  0.003353
                                 0.004646  0.005504  0.007421  0.005662  0.006930  0.002132  0.001680  0.001333  0.001896  0.000538
                                 0.001092 -0.002891 -0.009104 -0.019267 -0.000399 -0.019415 -0.009789 -0.003653 -0.002188 -0.001230
                                 0.000667  0.000027 -0.000022 -0.000002  0.000036 -0.000074  0.000007  0.000198 -0.000245 -0.000034
                                -0.000144 -0.000274 -0.000482 -0.000791 -0.000269 -0.000897  0.002379  0.000044 -0.001863  0.011103
                                -0.000735 -0.000991  0.005860  0.005882 -0.002667  0.000827  0.001206 -0.000460  0.000002  0.000002
                                -0.000016 -0.000048  0.000010 -0.000016  0.000029 -0.000047 -0.000074 -0.000528 -0.005957 -0.022959
                                -0.058932 -0.100045 -0.041127  0.000439  0.003144  0.007270  0.000485 -0.000307  0.002435  0.000996
                                -0.000689 -0.007611 -0.032762 -0.088125 -0.056847 -0.029288 -0.001125 -0.001051 -0.007551 -0.004679
                                -0.015279  0.003412  0.001246  0.000173 -0.000705  0.005088 -0.000077 -0.002510

   8.1   0    -0.0453   -5.3749 -0.000000  0.000000 -0.000000  0.000000 -0.000000  0.000000 -0.000000  0.000000 -0.000000  0.000008
                                 0.000036  0.000110  0.000231  0.000517 -0.000210  0.000525 -0.002174  0.031714 -0.006948  0.007792
                                 0.055971  0.058051  0.037434 -0.077709  0.130033 -0.000014 -0.000064 -0.000187 -0.000532  0.002543
                                -0.057918  0.011469 -0.049598 -0.121217 -0.086737  0.030617  0.000210  0.000498 -0.000000  0.000000
                                -0.000000  0.000000 -0.000000  0.000000 -0.000000  0.000000 -0.000000  0.000000 -0.000000  0.000000
                                -0.000000  0.000001 -0.000002  0.000010 -0.000105 -0.001121 -0.000787  0.032283 -0.003561  0.094724
                                 0.112421 -0.039714 -0.079527 -0.080741  0.000429  0.001472 -0.016651 -0.048755  0.021422  0.028123
                                -0.124466 -0.233841  0.109028  0.003597 -0.003362  0.000000 -0.000000 -0.000000  0.000000  0.000000
                                -0.000001 -0.000001  0.000002  0.000003 -0.000010 -0.000014  0.000050  0.000243 -0.000849  0.002184
                                -0.007452 -0.005910  0.027205  0.004455 -0.028885  0.000357  0.019019 -0.020567  0.206381 -0.000577
                                 0.001979 -0.004197  0.014489  0.007075 -0.028139 -0.002810  0.006426 -0.015941  0.122679 -0.023846
                                 0.128846 -0.016801  0.150291 -0.011969  0.075727 -0.037829  0.134520 -0.017783  0.080985 -0.002027
                                -0.004002 -0.000311  0.003343 -0.000001  0.000001  0.000005 -0.000007 -0.000066  0.000095 -0.001186
                                 0.001924 -0.001644  0.003064 -0.002142  0.002977 -0.001169  0.000116 -0.000695  0.000823 -0.000626
                                 0.000432  0.005585 -0.002440 -0.003120 -0.015278 -0.013214 -0.015051  0.002845 -0.001854 -0.004783
                                -0.001987 -0.000016  0.000005 -0.000007  0.000005 -0.000029 -0.000024 -0.000145  0.000053 -0.000123
                                 0.000170 -0.000573 -0.000446 -0.000272 -0.001320  0.000160 -0.000233 -0.001521 -0.002810 -0.004262
                                -0.009261  0.002915 -0.004178  0.013500  0.000374 -0.001092  0.000116  0.002871 -0.000007  0.000011
                                -0.000008 -0.000078 -0.000092  0.000110 -0.000161 -0.000055 -0.000105 -0.000221 -0.002569 -0.009635
                                -0.018634 -0.080591 -0.227569 -0.002053 -0.008749 -0.007037 -0.000322  0.000594 -0.000023  0.003377
                                 0.000121  0.001432  0.005597  0.014029  0.111313  0.151409 -0.005635  0.000588 -0.041600  0.009666
                                -0.114484  0.047330  0.000189 -0.001289 -0.001716 -0.000809 -0.006271 -0.009363

   9.1   0    -0.0038   -1.8760  0.000000 -0.000000  0.000000 -0.000000  0.000000 -0.000000  0.000000 -0.000000  0.000001 -0.000011
                                -0.000049 -0.000151 -0.000319 -0.000713  0.000291 -0.000761  0.003791 -0.034951  0.016705 -0.035830
                                -0.170860 -0.018082  1.062217  2.007882  1.785204  0.000020  0.000088  0.000258  0.000735 -0.004829
                                 0.065076  0.091558 -0.209915 -2.019308 -2.118476 -0.697158  0.047996 -0.602951  0.000000 -0.000000
                                 0.000000 -0.000000  0.000000 -0.000000  0.000000 -0.000000  0.000000 -0.000000  0.000000 -0.000000
                                 0.000000 -0.000000  0.000001 -0.000002  0.000019  0.000220  0.000499  0.012579  0.005001  0.037418
                                 0.039754 -0.027268  0.018862 -0.168724 -0.000076 -0.000353 -0.007754 -0.017663 -0.001112 -0.007743
                                 0.323404  0.208280 -0.239526 -0.037934  0.237146 -0.000000 -0.000000  0.000000  0.000000 -0.000000
                                -0.000000  0.000001  0.000000 -0.000003 -0.000002  0.000013  0.000008 -0.000226 -0.000136 -0.001970
                                -0.001177  0.006029  0.004470 -0.005484 -0.005142  0.000532  0.003976  0.031380  0.037235  0.000528
                                 0.000316  0.003795  0.002270 -0.006770 -0.004495  0.003058  0.001228  0.022311  0.022205  0.035066
                                 0.022329  0.021855  0.032683  0.026955  0.010976  0.009956  0.034914 -0.007639  0.008407 -0.005938
                                 0.002054  0.009923 -0.009773 -0.000000 -0.000001  0.000004  0.000005 -0.000049 -0.000073 -0.000985
                                -0.001334 -0.001541 -0.001786 -0.001649 -0.001832 -0.000506 -0.000045 -0.000437 -0.000757 -0.000270
                                -0.000815  0.001051  0.001313 -0.001723  0.001674  0.000681  0.003851  0.001050 -0.005332  0.012403
                                -0.002395  0.000006 -0.000004 -0.000001  0.000006 -0.000029 -0.000005  0.000042 -0.000043  0.000003
                                 0.000065 -0.000209 -0.000072 -0.000020 -0.000286 -0.000108  0.000887 -0.000658 -0.000473  0.001999
                                -0.001371  0.000268  0.000503 -0.000719  0.000047 -0.000732 -0.001215  0.000740 -0.000002 -0.000003
                                 0.000004 -0.000020 -0.000010  0.000033 -0.000037 -0.000070 -0.000036  0.000002  0.000021  0.000084
                                 0.000172 -0.006381 -0.027552 -0.000561 -0.003252 -0.004040 -0.000006  0.000120  0.000146  0.001350
                                 0.000359  0.004196  0.016939  0.049884  0.080336  0.008421 -0.000533  0.000954 -0.003254  0.009263
                                 0.000649  0.039161  0.000099 -0.000311 -0.000243 -0.000167 -0.002478 -0.000183

                                   1 2py     1 2py     1 2py     1 2py     1 2py     1 2py     1 2py     1 2py     1 2py     1 2py
                                   1 2py     1 2py     1 2py     1 2py     1 2py     1 2py     1 2py     1 2py     1 2py     1 2py
                                   1 2py     1 2py     1 2py     1 2py     1 2py     1 2py     1 2py     1 2py     1 2py     1 2py
                                   1 2py     1 2py     1 2py     1 2py     1 2py     1 2py     1 2py     1 3d2-    1 3d2-    1 3d2-
                                   1 3d2-    1 3d2-    1 3d2-    1 3d2-    1 3d2-    1 3d2-    1 3d2-    1 3d2-    1 3d2-    1 3d2-
                                   1 3d2-    1 3d2-    1 3d2-    1 3d2-    1 3d2-    1 3d2-    1 3d2-    1 3d2-    1 3d2-    1 3d2-
                                   1 3d2-    1 4f1-    1 4f3-    1 4f1-    1 4f3-    1 4f1-    1 4f3-    1 4f1-    1 4f3-    1 4f1-
                                   1 4f3-    1 4f1-    1 4f3-    1 4f1-    1 4f3-    1 4f1-    1 4f3-    1 4f1-    1 4f3-    1 4f1-
                                   1 4f3-    1 4f1-    1 4f3-    1 4f1-    1 4f3-    1 4f1-    1 4f3-    1 4f1-    1 4f3-    1 5g2-
                                   1 5g4-    1 5g2-    1 5g4-    1 5g2-    1 5g4-    1 5g2-    1 5g4-    1 5g2-    1 5g4-    1 5g2-
                                   1 5g4-    1 5g2-    1 5g4-    1 5g2-    1 5g4-    1 5g2-    1 5g4-    1 6h1-    1 6h3-    1 6h5-
                                   1 6h1-    1 6h3-    1 6h5-    1 6h1-    1 6h3-    1 6h5-    2 2py     2 2py     2 2py     2 3d2-
                                   2 3d2-    3 1s      3 1s      3 1s      3 1s      3 1s      3 1s      3 2py     3 2px     3 2py
                                   3 2px     3 2py     3 2px     3 3d2-    3 3d0     3 3d2+    3 3d2-    3 3d0     3 3d2+

   1.2   2    -1.0207  -12.2243  0.000000 -0.000000  0.000000 -0.000000  0.000000 -0.000000  0.000000 -0.000000  0.000000 -0.000001
                                 0.000003 -0.000004  0.000005 -0.000010  0.000029 -0.000120  0.001145  0.012288  0.011339 -0.155758
                                 0.098496 -0.219539 -0.356883 -0.065526 -0.011129  0.002206 -0.004645 -0.016549  0.073754  0.192619
                                -0.173356 -0.345006 -0.003578 -0.001853  0.014044  0.000885 -0.000155  0.000000 -0.000000  0.000000
                                -0.000000  0.000000 -0.000002  0.000041  0.000532 -0.001196  0.000676  0.005039  0.010299 -0.000111
                                -0.001098  0.001704 -0.002982 -0.005446 -0.002310  0.002622  0.002424 -0.002020 -0.002561  0.000633
                                -0.000160  0.000001 -0.000001 -0.000007  0.000008  0.000103 -0.000103  0.002150 -0.001583  0.003928
                                -0.002761  0.004959 -0.001297  0.004405  0.001339  0.000798 -0.000964  0.000209 -0.000694  0.002634
                                 0.001749 -0.002591 -0.000294  0.002617  0.000009 -0.001393 -0.000133 -0.000002  0.000053 -0.000008
                                -0.000011  0.000019  0.000048 -0.000088 -0.000023  0.000196 -0.000265 -0.000063  0.001683 -0.001115
                                -0.002550  0.001345  0.003417 -0.000858 -0.001939  0.000108  0.000542 -0.000010 -0.000069  0.000077
                                -0.000269  0.000090  0.000202  0.000389  0.000556  0.000258 -0.000095 -0.001544 -0.000904  0.000214
                                 0.001030  0.000393  0.004327  0.014952  0.037203  0.007869  0.018744  0.001683  0.001058  0.008394
                                 0.006605  0.002812  0.002985  0.001092 -0.000628 -0.000391  0.001603 -0.001131  0.000165

   2.2   +    -0.5382  -14.7457 -0.000000  0.000000 -0.000000  0.000000 -0.000000  0.000000 -0.000000  0.000000 -0.000000  0.000000
                                -0.000000  0.000000 -0.000000  0.000001 -0.000001 -0.000000  0.000144  0.002432  0.001570 -0.004691
                                -0.018333 -0.044916 -0.052826  0.126248 -0.203127 -0.057703 -0.000874 -0.002803  0.002113  0.017638
                                 0.002870  0.051250  0.013663  0.083372 -0.021061 -0.003923  0.000723  0.000000 -0.000000  0.000000
                                -0.000000  0.000001 -0.000004  0.000066  0.000553 -0.001259  0.000713  0.003326  0.006537 -0.000153
                                -0.001071  0.001690 -0.001381 -0.004684 -0.043849  0.096552  0.021543 -0.018359 -0.004023  0.000365
                                -0.000043  0.000045  0.000083 -0.000363 -0.000668  0.005282  0.009570  0.108172  0.196049  0.172612
                                 0.314128  0.183388  0.331843  0.104187  0.183174  0.048294  0.085439  0.027897  0.046830 -0.013888
                                -0.016030  0.038892  0.032576  0.002835 -0.028761 -0.000332  0.012755 -0.001739 -0.004496 -0.000010
                                 0.000001  0.000073  0.000170 -0.000168 -0.000100  0.000545  0.001006 -0.000816 -0.002017  0.002248
                                 0.002064 -0.001503  0.000957 -0.007153 -0.013353  0.002337  0.003601 -0.000339  0.000163 -0.000558
                                -0.000491 -0.000375 -0.000811 -0.000496 -0.000522 -0.001133  0.000276  0.001855  0.011279 -0.000749
                                -0.003247  0.000017  0.000135  0.000073  0.007219 -0.193371  0.057795  0.000271  0.000525  0.002840
                                 0.008327 -0.052193 -0.016102  0.001084 -0.000294  0.001293  0.007775 -0.002102  0.005605

   3.2   +    -0.3650   -8.5542  0.000000 -0.000000  0.000000 -0.000000  0.000000 -0.000000  0.000000 -0.000000  0.000000 -0.000000
                                 0.000000 -0.000000  0.000001 -0.000001  0.000003 -0.000006 -0.000058 -0.001077 -0.000020 -0.035122
                                 0.019650 -0.002483  0.001176 -0.137310  0.258394  0.031486  0.000428  0.000798  0.017603  0.049132
                                -0.063142 -0.167075  0.002819 -0.040223 -0.045181  0.000119 -0.000085  0.000000 -0.000000  0.000000
                                -0.000002  0.000006 -0.000033  0.000561  0.004886 -0.014591  0.012603 -0.007368 -0.095418 -0.001311
                                -0.009369  0.016500 -0.003014 -0.047526  0.009418 -0.139334 -0.012042  0.011530  0.015441 -0.003385
                                 0.000827 -0.000041  0.000023  0.000329 -0.000188 -0.004894  0.002754 -0.100907  0.056841 -0.163787
                                 0.092659 -0.179814  0.101086 -0.114838  0.060656 -0.044220  0.024244 -0.023156  0.011994  0.002317
                                -0.001138 -0.048232  0.015466 -0.004482 -0.008579  0.001318  0.004847  0.002715 -0.001717  0.000020
                                 0.000061 -0.000132 -0.000108  0.000263  0.000606 -0.000436 -0.000515  0.002234  0.003676  0.000463
                                -0.001998 -0.000617 -0.002851  0.010120  0.017817 -0.003678 -0.004882  0.000032  0.000107 -0.000004
                                 0.000090  0.000334  0.000007  0.000752  0.000470 -0.000391 -0.000243  0.000705 -0.002677 -0.000264
                                -0.002756 -0.003305 -0.037445 -0.146365 -0.380899 -0.087881 -0.127768 -0.002086 -0.000333 -0.032210
                                -0.014722  0.025180  0.023658 -0.001216  0.001130  0.001606 -0.005805  0.005704  0.004996

   4.2   0    -0.2713  -11.7774 -0.000000  0.000000 -0.000000  0.000000 -0.000000  0.000000 -0.000000  0.000000 -0.000000  0.000000
                                -0.000000  0.000000 -0.000000  0.000000 -0.000002  0.000020 -0.000382 -0.004826 -0.002401  0.029011
                                 0.006881  0.102862  0.147727 -0.203430  0.364015  0.132131  0.001864  0.005423 -0.015373 -0.043829
                                 0.001381 -0.031157 -0.042715 -0.202407  0.102447  0.011694 -0.002147 -0.000000  0.000000 -0.000000
                                 0.000001 -0.000004  0.000019 -0.000348 -0.003208  0.009464 -0.007538 -0.002659  0.023658  0.000830
                                 0.006232 -0.010933  0.004896  0.033427  0.106956 -0.164030 -0.040041  0.039253 -0.001522  0.001668
                                -0.000526 -0.000064  0.000036  0.000520 -0.000295 -0.007726  0.004306 -0.159167  0.088848 -0.257987
                                 0.144879 -0.282011  0.157395 -0.171925  0.093882 -0.069784  0.037853 -0.037040  0.018491  0.019126
                                -0.003213 -0.075197  0.020629 -0.008419 -0.016249  0.000141  0.007698  0.002529 -0.002859  0.000014
                                 0.000044 -0.000143 -0.000126  0.000309  0.000483 -0.001107 -0.001116  0.001619  0.001056 -0.005185
                                -0.006463  0.003517 -0.000464  0.012731  0.023333 -0.003957 -0.005419  0.000012  0.000199  0.000000
                                -0.000028  0.000590  0.000036  0.000320  0.000637 -0.000302  0.000443  0.002997 -0.001274 -0.000942
                                -0.004287  0.002133  0.024219  0.096933  0.231975  0.584000 -0.045307 -0.000561 -0.000390 -0.002389
                                 0.000080  0.086704  0.063638  0.000114  0.000416  0.000392 -0.004493  0.002634  0.005592

   5.2   0    -0.0280   -5.3330  0.000000 -0.000000  0.000000 -0.000000  0.000000 -0.000000  0.000000 -0.000000  0.000000 -0.000000
                                 0.000000 -0.000000  0.000000 -0.000001  0.000002 -0.000008  0.000075  0.000772  0.000624 -0.023957
                                 0.001171 -0.080066 -0.101688  0.054269  0.019928  0.039287 -0.000294 -0.001055  0.012166  0.037792
                                -0.015009 -0.005748  0.180025  0.260330 -0.108074  0.021623  0.007378 -0.000000  0.000000 -0.000001
                                 0.000002 -0.000009  0.000046 -0.000769 -0.006675  0.026750 -0.030506  0.022728  0.231852  0.001783
                                 0.013025 -0.026564  0.004457  0.134082  0.142516  0.152412  0.090483  0.072025  0.052251 -0.013438
                                 0.003530 -0.000002  0.000002  0.000016 -0.000013 -0.000249  0.000196 -0.005414  0.004029 -0.009306
                                 0.006499 -0.009819  0.006941 -0.004505  0.002681 -0.002017  0.001724 -0.000429  0.000921 -0.001415
                                -0.009039  0.008023 -0.012187  0.023665 -0.010344  0.000069 -0.019623  0.008970 -0.006838  0.000011
                                -0.000030  0.000063 -0.000030  0.000108 -0.000300 -0.000053 -0.000550 -0.000250 -0.000782 -0.002176
                                -0.003768  0.001709  0.006765 -0.004259 -0.021548  0.001744  0.001196  0.000004  0.000004 -0.000015
                                 0.000057 -0.000018  0.000045  0.000049  0.000174 -0.000142  0.002851  0.016685  0.057471 -0.000952
                                -0.006606 -0.000010 -0.000198 -0.000442  0.007117 -0.152586 -0.312150  0.005481 -0.000686  0.034679
                                -0.010423  0.073773 -0.056719  0.000560 -0.000715 -0.001780  0.003705  0.000048 -0.010456

                                   1 2pz     1 2pz     1 2pz     1 2pz     1 2pz     1 2pz     1 2pz     1 2pz     1 2pz     1 2pz
                                   1 2pz     1 2pz     1 2pz     1 2pz     1 2pz     1 2pz     1 2pz     1 2pz     1 2pz     1 2pz
                                   1 2pz     1 2pz     1 2pz     1 2pz     1 2pz     1 2pz     1 2pz     1 2pz     1 2pz     1 2pz
                                   1 2pz     1 2pz     1 2pz     1 2pz     1 2pz     1 2pz     1 2pz     1 3d1+    1 3d1+    1 3d1+
                                   1 3d1+    1 3d1+    1 3d1+    1 3d1+    1 3d1+    1 3d1+    1 3d1+    1 3d1+    1 3d1+    1 3d1+
                                   1 3d1+    1 3d1+    1 3d1+    1 3d1+    1 3d1+    1 3d1+    1 3d1+    1 3d1+    1 3d1+    1 3d1+
                                   1 3d1+    1 4f0     1 4f2+    1 4f0     1 4f2+    1 4f0     1 4f2+    1 4f0     1 4f2+    1 4f0
                                   1 4f2+    1 4f0     1 4f2+    1 4f0     1 4f2+    1 4f0     1 4f2+    1 4f0     1 4f2+    1 4f0
                                   1 4f2+    1 4f0     1 4f2+    1 4f0     1 4f2+    1 4f0     1 4f2+    1 4f0     1 4f2+    1 5g1+
                                   1 5g3+    1 5g1+    1 5g3+    1 5g1+    1 5g3+    1 5g1+    1 5g3+    1 5g1+    1 5g3+    1 5g1+
                                   1 5g3+    1 5g1+    1 5g3+    1 5g1+    1 5g3+    1 5g1+    1 5g3+    1 6h2+    1 6h4+    1 6h0
                                   1 6h2+    1 6h4+    1 6h0     1 6h2+    1 6h4+    1 6h0     2 2pz     2 2pz     2 2pz     2 3d1+
                                   2 3d1+    3 2pz     3 2pz     3 2pz     3 3d1+    3 3d1-    3 3d1+    3 3d1-

   1.3   2    -0.9840  -12.1939 -0.000000  0.000000 -0.000000  0.000000 -0.000000  0.000000 -0.000000  0.000000 -0.000000  0.000001
                                -0.000002  0.000003 -0.000004  0.000008 -0.000022  0.000093 -0.000880 -0.009333 -0.007899  0.163412
                                -0.099835  0.199627  0.342490  0.089852  0.009599 -0.003192  0.003546  0.012463 -0.082153 -0.192686
                                 0.176815  0.373113  0.001079  0.003831 -0.002730 -0.000297  0.000054 -0.000000  0.000000 -0.000000
                                 0.000000 -0.000000  0.000000 -0.000006 -0.000089  0.000075  0.000013  0.001309 -0.003084  0.000018
                                 0.000168 -0.000178 -0.000258 -0.000571 -0.002797  0.000239 -0.000519  0.000253 -0.000103  0.000044
                                -0.000013 -0.000000  0.000001  0.000001 -0.000008 -0.000012  0.000081 -0.000150  0.001032 -0.000729
                                 0.001535 -0.002624 -0.001261 -0.003070 -0.002812 -0.000282  0.000757  0.001289  0.001345  0.002202
                                -0.000312  0.002228 -0.000165  0.000212  0.000201  0.000334 -0.000091 -0.000113  0.000030 -0.000001
                                 0.000002 -0.000001  0.000002  0.000001 -0.000046 -0.000255  0.000309  0.000302 -0.001277  0.000093
                                 0.001213 -0.000199 -0.001410  0.000044  0.000282 -0.000027 -0.000345  0.000157 -0.000053 -0.000019
                                 0.000092 -0.000125 -0.000339 -0.000465 -0.000160 -0.000467  0.000151  0.001365  0.001433 -0.000269
                                -0.000855  0.000290  0.002585  0.002167  0.000278  0.000496  0.000809  0.001244

   2.3   +    -0.5540  -14.7713  0.000000 -0.000000  0.000000 -0.000000  0.000000 -0.000000  0.000000 -0.000000  0.000000 -0.000000
                                 0.000001 -0.000001  0.000001 -0.000002  0.000006 -0.000028  0.000264  0.002497  0.002674  0.002932
                                -0.009425 -0.015386 -0.003253  0.023718  0.005997  0.002496 -0.001014 -0.003298 -0.004373  0.011184
                                -0.009251  0.006901  0.000673  0.000977 -0.001286 -0.000211  0.000041  0.000000 -0.000000  0.000000
                                -0.000000  0.000001 -0.000006  0.000103  0.000957 -0.002108  0.000908  0.002835  0.002517 -0.000247
                                -0.001851  0.002864 -0.001974 -0.003048 -0.006348  0.001339 -0.002229  0.000260  0.000006 -0.000018
                                 0.000007  0.000077  0.000058 -0.000615 -0.000469  0.008769  0.006668  0.180125  0.136614  0.287301
                                 0.218566  0.300988  0.229717  0.163956  0.124937  0.077993  0.058674  0.042750  0.031615 -0.012071
                                -0.010705  0.037075  0.027779 -0.023172 -0.018665  0.013269  0.010437 -0.004744 -0.003733  0.000007
                                 0.000005  0.000037  0.000065 -0.000004 -0.000056  0.000231  0.000364 -0.000205 -0.000109 -0.000355
                                -0.000496  0.001476  0.003100 -0.001188 -0.002476  0.000658  0.001089 -0.001138 -0.000047 -0.000308
                                -0.001885 -0.000098 -0.000667 -0.001448 -0.000565 -0.000584  0.000029 -0.000011  0.000879 -0.000015
                                -0.000011 -0.000320 -0.003804 -0.005477 -0.000814 -0.001029 -0.003001 -0.004833

   3.3   +    -0.5091  -14.7114  0.000000 -0.000000  0.000000 -0.000000  0.000000 -0.000000  0.000000 -0.000000  0.000000 -0.000000
                                 0.000000 -0.000000  0.000001 -0.000001  0.000002  0.000003 -0.000266 -0.004334 -0.002518 -0.002806
                                -0.000122  0.008125  0.005639 -0.008429 -0.001529 -0.000753  0.001567  0.004888  0.003122  0.001345
                                -0.002744 -0.008581 -0.000618 -0.001363  0.001324  0.000188 -0.000036  0.000000 -0.000000  0.000000
                                -0.000000  0.000002 -0.000008  0.000146  0.001313 -0.002784  0.001148  0.004430  0.000547 -0.000348
                                -0.002524  0.003857 -0.002010 -0.003777 -0.007177  0.000940 -0.001289 -0.000078  0.000082 -0.000026
                                 0.000009 -0.000057  0.000075  0.000456 -0.000604 -0.006590  0.008698 -0.136123  0.179227 -0.217102
                                 0.286794 -0.228817  0.303282 -0.126108  0.166889 -0.059097  0.077140 -0.032444  0.041544  0.008279
                                -0.012807 -0.029596  0.039256  0.018165 -0.025327 -0.010550  0.014534  0.003788 -0.005222 -0.000032
                                 0.000028 -0.000050  0.000046 -0.000258  0.000231 -0.000160  0.000164  0.000377 -0.000322  0.000473
                                -0.000179  0.002267 -0.002667 -0.001325  0.001780  0.000707 -0.000777 -0.000658  0.000022 -0.000235
                                -0.000434 -0.000335  0.000198 -0.000360 -0.000806  0.000331  0.000384  0.002689  0.004533 -0.001150
                                -0.004721  0.000011  0.000650  0.000149 -0.000188  0.000237  0.000250  0.000608

   4.3   0    -0.0473   -4.8270  0.000000 -0.000000  0.000000 -0.000000  0.000000 -0.000000  0.000000 -0.000000  0.000000 -0.000000
                                 0.000000 -0.000000  0.000000 -0.000001  0.000002 -0.000007  0.000072  0.000758  0.000303 -0.040519
                                 0.002097 -0.086220 -0.113584 -0.015569  0.211840  0.180602 -0.000291 -0.000980  0.021837  0.059197
                                -0.029366 -0.060457  0.103914  0.293603  0.062811  0.003741  0.002044  0.000000 -0.000000  0.000001
                                -0.000003  0.000012 -0.000061  0.001073  0.009765 -0.029619  0.025303 -0.000619 -0.144426 -0.002541
                                -0.019004  0.033724 -0.013537 -0.102616 -0.111320 -0.128784 -0.081463 -0.114296 -0.052503 -0.005366
                                -0.000815 -0.000001 -0.000001  0.000008  0.000005 -0.000112 -0.000077 -0.002038 -0.001683 -0.002613
                                -0.002969 -0.002409 -0.002568 -0.002072 -0.000020 -0.001222 -0.000548 -0.001412  0.000060 -0.000575
                                -0.000270  0.017445  0.006858  0.024810  0.012040 -0.001310 -0.000146  0.001887  0.001740  0.000010
                                 0.000004  0.000040  0.000024  0.000127  0.000088  0.000820  0.000426 -0.000208  0.001369  0.000569
                                -0.000037 -0.007060  0.003364 -0.007901 -0.008212 -0.004394  0.001059 -0.000010  0.000009 -0.000002
                                 0.000144  0.000002 -0.000120  0.000184  0.000117  0.000048 -0.000670 -0.004087  0.002517  0.000642
                                 0.000944  0.003639  0.033052  0.092805  0.000279  0.001614  0.000067  0.006720

   5.3   0    -0.0196   -5.4774 -0.000000  0.000000 -0.000000  0.000000 -0.000000  0.000000 -0.000000  0.000000 -0.000000  0.000000
                                -0.000000  0.000000 -0.000000  0.000000 -0.000001  0.000005 -0.000048 -0.000499 -0.000318  0.020940
                                -0.003130  0.037788  0.057197  0.014396 -0.098418 -0.068135  0.000190  0.000671 -0.011000 -0.030688
                                 0.020028  0.041355 -0.150084 -0.233282 -0.062063 -0.046348 -0.012750  0.000000 -0.000000  0.000001
                                -0.000004  0.000016 -0.000083  0.001469  0.013355 -0.042001  0.037482 -0.003930 -0.225805 -0.003473
                                -0.026039  0.046998 -0.018240 -0.155232 -0.186597 -0.150498 -0.111426 -0.102036 -0.051995 -0.007901
                                -0.002484  0.000001  0.000000 -0.000010 -0.000001  0.000145  0.000003  0.002881 -0.000158  0.004308
                                -0.000748  0.004157 -0.000964  0.001496  0.000851  0.001374  0.000216  0.001047  0.000746 -0.004935
                                 0.003327 -0.029031  0.013541 -0.036678  0.027769 -0.018801  0.011474 -0.015132  0.009259  0.000017
                                 0.000000  0.000053  0.000056  0.000211  0.000070  0.001114  0.000861  0.000012  0.000578  0.000018
                                 0.002889 -0.008468  0.000334 -0.005669  0.011133 -0.003535  0.002245  0.000002  0.000006  0.000010
                                -0.000056 -0.000052  0.000034 -0.000117  0.000116  0.000092 -0.002813 -0.021135 -0.069482  0.001224
                                 0.007934  0.001222  0.008424 -0.007839 -0.000036  0.001415 -0.004164  0.004047

                                   1 3d1-    1 3d1-    1 3d1-    1 3d1-    1 3d1-    1 3d1-    1 3d1-    1 3d1-    1 3d1-    1 3d1-
                                   1 3d1-    1 3d1-    1 3d1-    1 3d1-    1 3d1-    1 3d1-    1 3d1-    1 3d1-    1 3d1-    1 3d1-
                                   1 3d1-    1 3d1-    1 3d1-    1 3d1-    1 4f2-    1 4f2-    1 4f2-    1 4f2-    1 4f2-    1 4f2-
                                   1 4f2-    1 4f2-    1 4f2-    1 4f2-    1 4f2-    1 4f2-    1 4f2-    1 4f2-    1 5g1-    1 5g3-
                                   1 5g1-    1 5g3-    1 5g1-    1 5g3-    1 5g1-    1 5g3-    1 5g1-    1 5g3-    1 5g1-    1 5g3-
                                   1 5g1-    1 5g3-    1 5g1-    1 5g3-    1 5g1-    1 5g3-    1 6h4-    1 6h2-    1 6h4-    1 6h2-
                                   1 6h4-    1 6h2-    2 3d1-    2 3d1-    3 2pz     3 2pz     3 2pz     3 3d1-    3 3d1+    3 3d1-
                                   3 3d1+

   1.4   +    -0.5410  -14.7646 -0.000000  0.000000 -0.000000  0.000000 -0.000002  0.000009 -0.000163 -0.001513  0.003332 -0.001448
                                -0.004453 -0.005622  0.000388  0.002926 -0.004507  0.003482  0.005402  0.009564 -0.003748  0.003975
                                -0.000704  0.000014  0.000037 -0.000014  0.000095 -0.000766  0.010972  0.225236  0.360846  0.379725
                                 0.206747  0.097785  0.053269 -0.017671  0.046422 -0.030999  0.017340 -0.006210  0.000002  0.000025
                                -0.000047  0.000057  0.000043  0.000169 -0.000286  0.000295  0.000346 -0.000444  0.000409 -0.000521
                                -0.003036 -0.000397  0.001848 -0.000037 -0.001109  0.000006 -0.000606 -0.000793 -0.001253 -0.001235
                                -0.001239 -0.000973  0.000239 -0.000260  0.000344  0.003981  0.006710  0.001231  0.000475  0.004853
                                 0.002916

   2.4   0    -0.0441   -6.5930 -0.000000  0.000000 -0.000001  0.000005 -0.000019  0.000098 -0.001732 -0.015851  0.050326 -0.046486
                                 0.005916  0.277543  0.004112  0.030846 -0.055888  0.022337  0.194787  0.223569  0.185729  0.135126
                                 0.132372  0.060519  0.004063  0.001515  0.000001 -0.000009  0.000124  0.002343  0.003246  0.003237
                                 0.002008  0.001278  0.001282 -0.006748 -0.018676 -0.004708 -0.021864 -0.005396 -0.000040  0.000001
                                -0.000201  0.000012 -0.000223 -0.000021 -0.001580 -0.000726 -0.000532 -0.000920 -0.002410 -0.002184
                                 0.009296 -0.000649  0.005671 -0.001968  0.003848 -0.001009 -0.000022 -0.000001  0.000048 -0.000038
                                -0.000247  0.000119  0.000297  0.003662 -0.005140 -0.043235 -0.085900 -0.002523 -0.001802 -0.005003
                                -0.007978

   3.4   0     0.0104   -1.0178 -0.000000  0.000000 -0.000001  0.000003 -0.000013  0.000071 -0.001314 -0.011948  0.023101 -0.006432
                                -0.032956 -0.055293  0.003138  0.022754 -0.033404  0.021780  0.008065  0.060598 -0.178206  0.289559
                                -0.412847  0.614581 -0.889850  1.468236  0.000000 -0.000000 -0.000001 -0.000115 -0.000361 -0.000301
                                 0.000337  0.000062  0.000239 -0.000896  0.006306 -0.012101  0.019416 -0.052368  0.000009  0.000000
                                -0.000001 -0.000003  0.000074  0.000007  0.000006  0.000056  0.000366  0.000111 -0.000584  0.000138
                                 0.001385  0.000192 -0.003010  0.000069  0.002932 -0.000297  0.000001 -0.000001 -0.000004  0.000003
                                 0.000020 -0.000012 -0.000040 -0.000088  0.000347  0.001311  0.002587  0.000375  0.000261  0.000177
                                 0.000244

 HOMO      7.1    -0.133313 =      -3.6276eV
 LUMO      4.2    -0.271335 =      -7.3834eV
 LUMO-HOMO        -0.138021 =      -3.7557eV


 **********************************************************************************************************************************
 DATASETS  * FILE   NREC   LENGTH (MB)   RECORD NAMES
              1      20       23.74       500      610      700      900      950      970     1000      129      960     1100
                                          VAR    BASINP    GEOM    SYMINP    ZMAT    AOBASIS   BASIS     P2S    ABASIS      S
                                         1400     1410     1420     1200     1210     1080     1600     1650     1700     1800
                                           T        V       ECP      H0       H01     AOSYM     SMH    MOLCAS    OPER     GRID

              2       5        5.35       700     1000      520     1800     4202
                                         GEOM     BASIS   MCVARS    GRID      RKS

 PROGRAMS   *        TOTAL       RKS       INT
 CPU TIMES  *       702.40     93.94    608.08
 REAL TIME  *       761.45 SEC
 DISK USED  *        30.34 GB
 SF USED    *         0.36 MB
 GA USED    *         0.25 MB       (max)       0.25 MB       (current)
 **********************************************************************************************************************************
   -->
   <time start="14:53:55" end="15:06:36" cpu="702.4" system="34.21" real="761.45"/>
   <storage units="megabyte" memory="8001.84" sf="0.36" df="774.66" eaf="29562.22"
     ga="0.25"/>
  </jobstep><!--
  --><jobstep command="MULTI" commandset="MULTI">
   <!--


 PROGRAM * MULTI (Direct Multiconfiguration SCF)       Authors: P.J. Knowles, H.-J. Werner (1984)     S.T. Elbert (1988)


 Number of closed-shell orbitals:   7 (   5   1   1   0 )
 Number of active  orbitals:        7 (   2   2   2   1 )
 Number of external orbitals:     542 ( 211 136 125  70 )

 State symmetry 1

 Number of electrons:     7    Spin symmetry=Octet     Space symmetry=4
 Number of states:        1
 Number of CSFs:          1   (1 determinants, 1 intermediate states)

 Molecular orbitals read from record     4202.2  Type=RKS/CANONICAL (state 1.4)

 Wavefunction dump at record             5202.2

 Convergence thresholds  0.10E-01 (gradient)  0.10E-05 (energy)  0.10E-02 (step length)

 Number of orbital rotations:     2344   (    14 Core/Active   1316 Core/Virtual   0 Active/Active   1014 Active/Virtual)
 Total number of variables:       2345


 ITER. MIC  NCI  NEG     ENERGY(VAR)     ENERGY(PROJ)   ENERGY CHANGE     GRAD(0)  GRAD(ORB)   GRAD(CI)     STEP       TIME

   1   60    7    0    -109.36848362    -109.55798344   -0.18949982    0.44167817 0.00238797 0.00000000  0.87D+00     10.94
   2   50    8    0    -109.35200888    -109.57097737   -0.21896849    0.30157068 0.00007842 0.00000000  0.47D+00     29.59
   3   40    8    0    -109.07294634    -109.32601554   -0.25306920    1.14954748 0.00000143 0.00000000  0.30D+00     47.53
   4  123    8    0    -109.34733304    -110.00309492   -0.65576188    0.13557219 0.00001549 0.00000000  0.82D+00     65.96
   5   40    8    0    -108.49162981    -109.28130928   -0.78967947    2.28713191 0.00000055 0.00000000  0.43D+00     82.78
   6   32    8    0    -109.37623428    -109.42370462   -0.04747034    0.37419104 0.00000000 0.00000000  0.24D+00     99.06
   7   29    8    0    -109.42912858    -109.43359850   -0.00446992    0.04753625 0.00000000 0.00000000  0.18D+00    116.19
   8   29    8    0    -109.43411749    -109.43442367   -0.00030618    0.01336159 0.00000000 0.00000000  0.50D-01    133.67
   9   30    8    0    -109.43443759    -109.43443933   -0.00000174    0.00098978 0.00000000 0.00000000  0.39D-02    152.26
  10   29    5    0    -109.43443933    -109.43443933   -0.00000000    0.00000587 0.00000000 0.00000000  0.21D-04    169.68

 ** WVFN ****  CONVERGENCE REACHED, FINAL GRADIENT:  0.21D-09


 First order charge density matrix for state 1.4 saved on record  5202.2 (density set 1)

 Results for state 1.4
 =====================

 !MCSCF STATE 1.4 Energy             -109.434439333988
   --><property name="Energy" method="MCSCF" principal="true" stateSymmetry="4" stateNumber="1"
     value="-109.434439333988"/><!--
 Nuclear energy                        14.04387200
 Kinetic energy                       132.65311506
 One electron energy                 -227.71604618
 Two electron energy                  104.23773484
 Virial ratio                           1.82496698

 !MCSCF STATE 1.4 Dipole moment        -0.59768912     0.00000000     0.00000000
 Dipole moment /Debye                  -1.51907472     0.00000000     0.00000000
   --><property name="Dipole moment" method="MCSCF" principal="true" stateSymmetry="4"
     stateNumber="1" value="-0.597689123244628 0.0 0.0"/><!--


 NATURAL ORBITALS
 ================

   Orb     Occ        Energy       Coefficients

                                   1 1s      1 1s      1 1s      1 1s      1 1s      1 1s      1 1s      1 1s      1 1s      1 1s
                                   1 1s      1 1s      1 1s      1 1s      1 1s      1 1s      1 1s      1 1s      1 1s      1 1s
                                   1 1s      1 1s      1 1s      1 1s      1 1s      1 1s      1 1s      1 1s      1 1s      1 1s
                                   1 1s      1 1s      1 1s      1 1s      1 1s      1 1s      1 1s      1 1s      1 2px     1 2px
                                   1 2px     1 2px     1 2px     1 2px     1 2px     1 2px     1 2px     1 2px     1 2px     1 2px
                                   1 2px     1 2px     1 2px     1 2px     1 2px     1 2px     1 2px     1 2px     1 2px     1 2px
                                   1 2px     1 2px     1 2px     1 2px     1 2px     1 2px     1 2px     1 2px     1 2px     1 2px
                                   1 2px     1 2px     1 2px     1 2px     1 2px     1 3d0     1 3d2+    1 3d0     1 3d2+    1 3d0
                                   1 3d2+    1 3d0     1 3d2+    1 3d0     1 3d2+    1 3d0     1 3d2+    1 3d0     1 3d2+    1 3d0
                                   1 3d2+    1 3d0     1 3d2+    1 3d0     1 3d2+    1 3d0     1 3d2+    1 3d0     1 3d2+    1 3d0
                                   1 3d2+    1 3d0     1 3d2+    1 3d0     1 3d2+    1 3d0     1 3d2+    1 3d0     1 3d2+    1 3d0
                                   1 3d2+    1 3d0     1 3d2+    1 3d0     1 3d2+    1 3d0     1 3d2+    1 3d0     1 3d2+    1 3d0
                                   1 3d2+    1 3d0     1 3d2+    1 4f1+    1 4f3+    1 4f1+    1 4f3+    1 4f1+    1 4f3+    1 4f1+
                                   1 4f3+    1 4f1+    1 4f3+    1 4f1+    1 4f3+    1 4f1+    1 4f3+    1 4f1+    1 4f3+    1 4f1+
                                   1 4f3+    1 4f1+    1 4f3+    1 4f1+    1 4f3+    1 4f1+    1 4f3+    1 4f1+    1 4f3+    1 4f1+
                                   1 4f3+    1 5g0     1 5g4+    1 5g2+    1 5g0     1 5g4+    1 5g2+    1 5g0     1 5g4+    1 5g2+
                                   1 5g0     1 5g4+    1 5g2+    1 5g0     1 5g4+    1 5g2+    1 5g0     1 5g4+    1 5g2+    1 5g0
                                   1 5g4+    1 5g2+    1 5g0     1 5g4+    1 5g2+    1 5g0     1 5g4+    1 5g2+    1 6h1+    1 6h3+
                                   1 6h5+    1 6h1+    1 6h3+    1 6h5+    1 6h1+    1 6h3+    1 6h5+    2 1s      2 1s      2 1s
                                   2 1s      2 1s      2 1s      2 2px     2 2px     2 2px     2 3d0     2 3d2+    2 3d0     2 3d2+
[...]
                                 0.000000 -0.000001 -0.000000  0.000003  0.000001 -0.000018 -0.000005  0.000321  0.000099  0.002840
                                 0.000901 -0.004449 -0.001777 -0.000597  0.000246  0.005031  0.002985 -0.000587  0.003268 -0.000762
                                -0.000237 -0.005336 -0.001756  0.007273  0.002638 -0.002449 -0.000636  0.013452  0.000738  0.107615
                                -0.006554 -0.170332  0.031625  0.000710  0.007881  0.003441 -0.005473  0.003074 -0.000228 -0.001044
                                -0.000157  0.000301  0.000060 -0.000020  0.000104  0.000157 -0.000837 -0.002171  0.011546 -0.041323
                                 0.217882 -0.066392  0.346012 -0.070975  0.371807 -0.038194  0.219755 -0.017458  0.094686 -0.010510
                                 0.061560  0.006610 -0.056366 -0.012608  0.100398  0.000726  0.020526 -0.000255 -0.005529  0.000612
                                 0.000236  0.000060  0.000040 -0.000009 -0.000226  0.000071 -0.000009  0.000654  0.000382 -0.000129
                                -0.001662  0.000218 -0.000032  0.003680 -0.000238  0.000116 -0.008081 -0.001760  0.000738  0.002807
                                -0.001012 -0.001177  0.012151  0.003579 -0.002167 -0.003263 -0.001461  0.000644 -0.000001  0.000008
                                -0.000023  0.000044  0.000035  0.000148  0.000111  0.000197 -0.000001 -0.000067 -0.000959 -0.004194
                                -0.003221 -0.252512  0.020731 -0.001016 -0.013520  0.064524 -0.000351  0.000953 -0.005897  0.008315
                                -0.000078 -0.001093 -0.005470 -0.003935 -0.248451  0.005369  0.000363  0.001052  0.008961  0.015641
                                -0.031306 -0.052018 -0.000533 -0.000763  0.001376 -0.007253 -0.004143  0.009601

                                   1 2py     1 2py     1 2py     1 2py     1 2py     1 2py     1 2py     1 2py     1 2py     1 2py
                                   1 2py     1 2py     1 2py     1 2py     1 2py     1 2py     1 2py     1 2py     1 2py     1 2py
                                   1 2py     1 2py     1 2py     1 2py     1 2py     1 2py     1 2py     1 2py     1 2py     1 2py
                                   1 2py     1 2py     1 2py     1 2py     1 2py     1 2py     1 2py     1 3d2-    1 3d2-    1 3d2-
                                   1 3d2-    1 3d2-    1 3d2-    1 3d2-    1 3d2-    1 3d2-    1 3d2-    1 3d2-    1 3d2-    1 3d2-
                                   1 3d2-    1 3d2-    1 3d2-    1 3d2-    1 3d2-    1 3d2-    1 3d2-    1 3d2-    1 3d2-    1 3d2-
                                   1 3d2-    1 4f1-    1 4f3-    1 4f1-    1 4f3-    1 4f1-    1 4f3-    1 4f1-    1 4f3-    1 4f1-
                                   1 4f3-    1 4f1-    1 4f3-    1 4f1-    1 4f3-    1 4f1-    1 4f3-    1 4f1-    1 4f3-    1 4f1-
                                   1 4f3-    1 4f1-    1 4f3-    1 4f1-    1 4f3-    1 4f1-    1 4f3-    1 4f1-    1 4f3-    1 5g2-
                                   1 5g4-    1 5g2-    1 5g4-    1 5g2-    1 5g4-    1 5g2-    1 5g4-    1 5g2-    1 5g4-    1 5g2-
                                   1 5g4-    1 5g2-    1 5g4-    1 5g2-    1 5g4-    1 5g2-    1 5g4-    1 6h1-    1 6h3-    1 6h5-
                                   1 6h1-    1 6h3-    1 6h5-    1 6h1-    1 6h3-    1 6h5-    2 2py     2 2py     2 2py     2 3d2-
                                   2 3d2-    3 1s      3 1s      3 1s      3 1s      3 1s      3 1s      3 2py     3 2px     3 2py
                                   3 2px     3 2py     3 2px     3 3d2-    3 3d0     3 3d2+    3 3d2-    3 3d0     3 3d2+

   1.2  2.00000    -1.258610     0.000000 -0.000000  0.000000 -0.000000  0.000000 -0.000000  0.000000 -0.000000  0.000000 -0.000001
                                 0.000002 -0.000002  0.000003 -0.000006  0.000016 -0.000067  0.000618  0.006697  0.005724 -0.161769
                                 0.085034 -0.188813 -0.359111 -0.054595 -0.017653  0.003750 -0.002497 -0.009147  0.081586  0.204488
                                -0.187045 -0.365446 -0.003401 -0.001871  0.013472  0.000834 -0.000145 -0.000000  0.000000 -0.000000
                                 0.000000 -0.000001  0.000004 -0.000067 -0.000592  0.001300 -0.000530  0.001099  0.013153  0.000159
                                 0.001113 -0.001709 -0.000260 -0.001247 -0.006389  0.006080  0.001826 -0.002261 -0.002404  0.000582
                                -0.000146  0.000001  0.000001 -0.000007 -0.000004  0.000096  0.000059  0.001874  0.001111  0.003234
                                 0.001802  0.004309  0.002333  0.007087  0.003841  0.000748  0.000489  0.000170  0.000316  0.006498
                                 0.007331  0.001024  0.001663  0.002499 -0.001370 -0.001206  0.000113 -0.000044 -0.000007 -0.000011
                                -0.000012  0.000031  0.000044 -0.000110 -0.000119  0.000270  0.000165 -0.000811 -0.000222 -0.001342
                                -0.001934  0.001111  0.002485 -0.001070 -0.001849  0.000184  0.000596  0.000002  0.000002  0.000015
                                -0.000000 -0.000003 -0.000053  0.000237  0.000159  0.000449 -0.000165 -0.001089  0.000241  0.000183
                                 0.000299  0.000409  0.004313  0.015869  0.040422  0.001586  0.017845  0.001885  0.001388  0.008582
                                 0.008379 -0.000133  0.004239  0.001298 -0.000750 -0.000327  0.001964 -0.001272  0.000467

   2.2  1.00000    -0.096597    -0.000000  0.000000 -0.000000  0.000000 -0.000000  0.000000 -0.000000  0.000000 -0.000000  0.000000
                                -0.000000  0.000001 -0.000001  0.000001 -0.000004  0.000016 -0.000150 -0.001648 -0.002224 -0.009567
                                -0.018060 -0.072885 -0.111208  0.225582 -0.382593 -0.092266  0.000606  0.002371  0.008828  0.009594
                                 0.033483  0.110339  0.019539  0.130442 -0.027550 -0.005574  0.001016 -0.000000  0.000000 -0.000000
                                 0.000000 -0.000001  0.000006 -0.000103 -0.000899  0.002048 -0.001147  0.002650  0.026372  0.000243
                                 0.001698 -0.002653 -0.000420 -0.001494 -0.089181  0.184034  0.031464 -0.027890 -0.007800  0.001052
                                -0.000202  0.000099 -0.000035 -0.000797  0.000280  0.011024 -0.003878  0.209446 -0.073866  0.335804
                                -0.118826  0.359862 -0.127035  0.203780 -0.068582  0.089079 -0.031129  0.054442 -0.018564 -0.031078
                                 0.009008  0.068904 -0.010976  0.005185  0.009388 -0.000358 -0.004557 -0.002955  0.001599 -0.000018
                                -0.000062  0.000208  0.000207 -0.000264 -0.000695  0.001303  0.001478 -0.002804 -0.003518  0.004465
                                 0.006690 -0.001524  0.002343 -0.013425 -0.024190  0.004195  0.006138 -0.000010 -0.000010  0.000006
                                 0.000019  0.000043 -0.000018 -0.000353 -0.000014  0.000058 -0.000027 -0.001962  0.002292  0.000633
                                 0.003981  0.000198  0.002251  0.006444  0.037503 -0.335699  0.096830  0.000991  0.000381  0.016851
                                 0.010119 -0.076543 -0.050333  0.000801 -0.000792 -0.000747  0.007556 -0.004933 -0.004417

   3.2  1.00000    -0.098749    -0.000000  0.000000 -0.000000  0.000000 -0.000000  0.000000 -0.000000  0.000000 -0.000000  0.000000
                                -0.000000  0.000000 -0.000000  0.000001 -0.000002  0.000009 -0.000082 -0.000908 -0.001190 -0.001852
                                -0.008682 -0.029326 -0.039828  0.072655 -0.133775 -0.031857  0.000332  0.001308  0.002967 -0.000522
                                 0.021088  0.055732  0.007087  0.050559 -0.007221 -0.002086  0.000385  0.000000 -0.000000  0.000000
                                -0.000000  0.000000 -0.000000  0.000008  0.000086 -0.000213 -0.000102  0.001728  0.005563 -0.000020
                                -0.000201  0.000353  0.000070 -0.000539 -0.025489  0.061652  0.014495 -0.012819 -0.003445  0.000431
                                -0.000077  0.000034  0.000099 -0.000275 -0.000794  0.003813  0.011014  0.072538  0.209971  0.116573
                                 0.338290  0.124987  0.361900  0.072095  0.200166  0.030726  0.088296  0.018456  0.052028 -0.007322
                                -0.018507  0.025313  0.033666  0.001693 -0.029840 -0.000459  0.012983 -0.001164 -0.004472 -0.000004
                                 0.000016  0.000053  0.000177 -0.000118  0.000106  0.000320  0.000917 -0.000523 -0.001729  0.001475
                                 0.000519 -0.001064  0.001760 -0.004614 -0.008642  0.001450  0.002726 -0.000003 -0.000004 -0.000022
                                 0.000060  0.000087  0.000155 -0.000043  0.000040  0.000050  0.000352  0.001173  0.008927 -0.000759
                                -0.003065  0.000139  0.001477  0.005507  0.019481 -0.114710  0.043855  0.000392  0.000596  0.002646
                                 0.008538 -0.035801 -0.003636  0.001130 -0.000254  0.001267  0.006708 -0.001647  0.006554

                                   1 2pz     1 2pz     1 2pz     1 2pz     1 2pz     1 2pz     1 2pz     1 2pz     1 2pz     1 2pz
                                   1 2pz     1 2pz     1 2pz     1 2pz     1 2pz     1 2pz     1 2pz     1 2pz     1 2pz     1 2pz
                                   1 2pz     1 2pz     1 2pz     1 2pz     1 2pz     1 2pz     1 2pz     1 2pz     1 2pz     1 2pz
                                   1 2pz     1 2pz     1 2pz     1 2pz     1 2pz     1 2pz     1 2pz     1 3d1+    1 3d1+    1 3d1+
                                   1 3d1+    1 3d1+    1 3d1+    1 3d1+    1 3d1+    1 3d1+    1 3d1+    1 3d1+    1 3d1+    1 3d1+
                                   1 3d1+    1 3d1+    1 3d1+    1 3d1+    1 3d1+    1 3d1+    1 3d1+    1 3d1+    1 3d1+    1 3d1+
                                   1 3d1+    1 4f0     1 4f2+    1 4f0     1 4f2+    1 4f0     1 4f2+    1 4f0     1 4f2+    1 4f0
                                   1 4f2+    1 4f0     1 4f2+    1 4f0     1 4f2+    1 4f0     1 4f2+    1 4f0     1 4f2+    1 4f0
                                   1 4f2+    1 4f0     1 4f2+    1 4f0     1 4f2+    1 4f0     1 4f2+    1 4f0     1 4f2+    1 5g1+
                                   1 5g3+    1 5g1+    1 5g3+    1 5g1+    1 5g3+    1 5g1+    1 5g3+    1 5g1+    1 5g3+    1 5g1+
                                   1 5g3+    1 5g1+    1 5g3+    1 5g1+    1 5g3+    1 5g1+    1 5g3+    1 6h2+    1 6h4+    1 6h0
                                   1 6h2+    1 6h4+    1 6h0     1 6h2+    1 6h4+    1 6h0     2 2pz     2 2pz     2 2pz     2 3d1+
                                   2 3d1+    3 2pz     3 2pz     3 2pz     3 3d1+    3 3d1-    3 3d1+    3 3d1-

   1.3  2.00000    -1.239820    -0.000000  0.000000 -0.000000  0.000000 -0.000000  0.000000 -0.000000  0.000000 -0.000000  0.000001
                                -0.000002  0.000002 -0.000003  0.000006 -0.000016  0.000067 -0.000622 -0.006751 -0.005757  0.164753
                                -0.086327  0.178655  0.336681  0.073023  0.014156 -0.002960  0.002516  0.009222 -0.083165 -0.208434
                                 0.193767  0.395774  0.002014  0.006811 -0.004918 -0.000557  0.000102 -0.000000  0.000000 -0.000000
                                 0.000000 -0.000000  0.000002 -0.000031 -0.000276  0.000639 -0.000605 -0.000015 -0.001983  0.000074
                                 0.000517 -0.000806  0.000834  0.002240 -0.002816 -0.001339 -0.001267  0.000055 -0.000151  0.000058
                                -0.000017  0.000000  0.000000 -0.000002 -0.000001  0.000038  0.000019  0.000839  0.000609  0.001655
                                 0.001590  0.002100  0.001896  0.002408  0.001530  0.000199 -0.000074 -0.000239 -0.000805  0.002883
                                -0.000907  0.003909  0.001834 -0.000098 -0.000101  0.000513  0.000335 -0.000158 -0.000103  0.000000
                                 0.000001 -0.000001  0.000005  0.000011  0.000001 -0.000184  0.000031  0.000479 -0.000422  0.000993
                                 0.000439 -0.000274 -0.000749  0.000008 -0.000010 -0.000063 -0.000130 -0.000002 -0.000008 -0.000007
                                 0.000008  0.000029  0.000028 -0.000183 -0.000251 -0.000387  0.000221  0.000581  0.000166 -0.000187
                                -0.000085  0.000305  0.001586  0.001269  0.000189  0.000325  0.000263  0.000668

   2.3  1.00000    -0.093560     0.000000 -0.000000  0.000000 -0.000000  0.000000 -0.000000  0.000000 -0.000000  0.000000 -0.000000
                                 0.000000 -0.000000  0.000000 -0.000000  0.000000 -0.000002  0.000015  0.000159  0.000228  0.002244
                                 0.002110  0.008605  0.006432 -0.008420 -0.001266 -0.001914 -0.000059 -0.000228 -0.001581 -0.003136
                                -0.001701 -0.006815 -0.000369 -0.000296  0.000651  0.000120 -0.000024  0.000000 -0.000000  0.000000
                                -0.000000  0.000001 -0.000005  0.000100  0.000915 -0.002025  0.000774  0.002798  0.001014 -0.000239
                                -0.001790  0.002803 -0.000975 -0.001975 -0.005748  0.001932 -0.001854  0.000295  0.000002 -0.000008
                                 0.000004 -0.000065  0.000083  0.000519 -0.000664 -0.007205  0.009220 -0.137499  0.175991 -0.221783
                                 0.283938 -0.236904  0.303325 -0.128459  0.164082 -0.057608  0.073695 -0.033661  0.042994  0.013016
                                -0.016626 -0.025900  0.034294  0.017761 -0.023461 -0.009709  0.012956  0.003414 -0.004556 -0.000027
                                 0.000028 -0.000038  0.000028 -0.000267  0.000262 -0.000091  0.000077  0.000135  0.000070  0.000802
                                -0.000535  0.001615 -0.002529 -0.001029  0.001424  0.000606 -0.000830  0.000003 -0.000016 -0.000002
                                -0.000016  0.000041  0.000073 -0.000049 -0.000218  0.000381  0.000340  0.002160  0.005493 -0.000986
                                -0.004581 -0.000062  0.000752  0.001148 -0.000140  0.000196  0.000490  0.000964

   3.3  1.00000    -0.097396    -0.000000  0.000000 -0.000000  0.000000 -0.000000  0.000000 -0.000000  0.000000 -0.000000  0.000000
                                -0.000000  0.000000 -0.000000  0.000000 -0.000000  0.000001 -0.000007 -0.000070 -0.000124 -0.003490
                                -0.002320 -0.014639 -0.015728  0.016471  0.003055  0.007732  0.000027  0.000099  0.002095  0.005790
                                 0.000051  0.009867 -0.000220 -0.002961  0.001301  0.000022 -0.000000  0.000000 -0.000000  0.000000
                                -0.000000  0.000001 -0.000004  0.000076  0.000695 -0.001421  0.000464  0.002452  0.004066 -0.000181
                                -0.001336  0.002012 -0.001421 -0.001438 -0.006975  0.001119 -0.003499  0.000440 -0.000110  0.000025
                                -0.000005  0.000082  0.000064 -0.000662 -0.000518  0.009191  0.007184  0.175395  0.137117  0.282940
                                 0.221229  0.302355  0.236413  0.166217  0.129677  0.073519  0.057453  0.042927  0.033518 -0.013236
                                -0.010302  0.033591  0.026770 -0.022696 -0.018215  0.012200  0.009898 -0.004268 -0.003462  0.000010
                                 0.000013  0.000056  0.000092  0.000034  0.000050  0.000291  0.000479 -0.000263 -0.000503 -0.000136
                                -0.000495  0.001753  0.003789 -0.001028 -0.002031  0.000691  0.001319 -0.000013 -0.000010 -0.000007
                                 0.000086  0.000067  0.000032 -0.000103  0.000098 -0.000314  0.000056 -0.000384 -0.000296 -0.000001
                                 0.000332 -0.000235 -0.004576 -0.008565 -0.000779 -0.001032 -0.003699 -0.005490

                                   1 3d1-    1 3d1-    1 3d1-    1 3d1-    1 3d1-    1 3d1-    1 3d1-    1 3d1-    1 3d1-    1 3d1-
                                   1 3d1-    1 3d1-    1 3d1-    1 3d1-    1 3d1-    1 3d1-    1 3d1-    1 3d1-    1 3d1-    1 3d1-
                                   1 3d1-    1 3d1-    1 3d1-    1 3d1-    1 4f2-    1 4f2-    1 4f2-    1 4f2-    1 4f2-    1 4f2-
                                   1 4f2-    1 4f2-    1 4f2-    1 4f2-    1 4f2-    1 4f2-    1 4f2-    1 4f2-    1 5g1-    1 5g3-
                                   1 5g1-    1 5g3-    1 5g1-    1 5g3-    1 5g1-    1 5g3-    1 5g1-    1 5g3-    1 5g1-    1 5g3-
                                   1 5g1-    1 5g3-    1 5g1-    1 5g3-    1 5g1-    1 5g3-    1 6h4-    1 6h2-    1 6h4-    1 6h2-
                                   1 6h4-    1 6h2-    2 3d1-    2 3d1-    3 2pz     3 2pz     3 2pz     3 3d1-    3 3d1+    3 3d1-
                                   3 3d1+

   1.4  1.00000    -0.094401    -0.000000  0.000000 -0.000000  0.000000 -0.000001  0.000008 -0.000139 -0.001283  0.002709 -0.001206
                                -0.003733 -0.005900  0.000333  0.002443 -0.003690  0.003178  0.004503  0.010077 -0.002554  0.004252
                                -0.000677  0.000032  0.000016 -0.000008  0.000105 -0.000843  0.011699  0.223218  0.359947  0.384651
                                 0.208940  0.093598  0.054836 -0.020866  0.041748 -0.029516  0.015861 -0.005568  0.000001  0.000029
                                -0.000062  0.000071 -0.000006  0.000229 -0.000383  0.000306  0.000618 -0.000216  0.000304 -0.000582
                                -0.003203 -0.000094  0.001557  0.000032 -0.001111 -0.000011 -0.000019 -0.000007  0.000072  0.000016
                                -0.000108 -0.000250  0.000207 -0.000541  0.000221  0.003522  0.007601  0.001080  0.000419  0.004983
                                 0.003034


 Natural orbital dump at molpro section  5202.2    (Orbital set 2)


 CI vector
 =========

 aa aa aa a      1.0000000

 TOTAL ENERGIES                      -109.43443933



 **********************************************************************************************************************************
 DATASETS  * FILE   NREC   LENGTH (MB)   RECORD NAMES
              1      21      125.90       500      610      700      900      950      970     1000      129      960     1100
                                          VAR    BASINP    GEOM    SYMINP    ZMAT    AOBASIS   BASIS     P2S    ABASIS      S
                                         1400     1410     1420     1200     1210     1080     1600     1650     1700     1800
                                           T        V       ECP      H0       H01     AOSYM     SMH    MOLCAS    OPER     GRID
                                         1380
                                         JKOP

              2       6       11.04       700     1000      520     1800     4202     5202
                                         GEOM     BASIS   MCVARS    GRID      RKS     MCSCF

 PROGRAMS   *        TOTAL     MULTI       RKS       INT
 CPU TIMES  *       895.84    193.42     93.94    608.08
 REAL TIME  *       999.78 SEC
 DISK USED  *        30.34 GB
 SF USED    *       413.64 MB
 GA USED    *         0.25 MB       (max)       0.25 MB       (current)
 **********************************************************************************************************************************
   -->
   <time start="15:06:36" end="15:10:34" cpu="193.44" system="11.58" real="238.33"/>
   <storage units="megabyte" memory="8001.84" sf="413.64" df="774.66" eaf="29562.22"
     ga="0.25"/>
  </jobstep><!--
  --><jobstep command="RHF-SCF" commandset="SCFPRO">
   <!--

 ? Error
 ? Illegal extra symmetry on sym card
 ? The problem occurs in scfpr0
   --><error type="Error" location="scfpr0" message="Illegal extra symmetry on sym card"/><!--
  --></jobstep><!--
  -->
  <input>
  <!--
 --></job><!--
--></molpro>
