<?xml version="1.0"?>
<molpro xmlns="http://www.molpro.net/schema/molpro-output"
  xmlns:xsd="http://www.w3.org/1999/XMLSchema"
  xmlns:cml="http://www.xml-cml.org/schema"
  xmlns:stm="http://www.xml-cml.org/schema"
  xmlns:xhtml="http://www.w3.org/1999/xhtml">
 <!--

 Nodes     nprocs
 nid00882    11
 Number of processes for MPI-2 version of Molpro:   nprocs(total)=   12   nprocs(compute)=   11   nprocs(helper)=    1

 Using customized tuning parameters: mindgm=7; mindgv=16; mindgc=1; mindgr=1; noblas=0; minvec=7
 default implementation of scratch files=sf

 --><job>
  <!--

 Variables initialized (889), CPU time= 0.02 sec
 Commands  initialized (702), CPU time= 0.01 sec, 572 directives.
 Default parameters read. Elapsed time= 0.11 sec

 Checking input...
 Passed
1


                                         ***  PROGRAM SYSTEM MOLPRO  ***
                                       Copyright, TTI GmbH Stuttgart, 2015
                                    Version 2015.1 linked Dec 29 2018 15:55:43


 **********************************************************************************************************************************
 LABEL *   Calculation for Rh atom, singlet and triplet
  64 bit mpp version                                                                     DATE: 23-Sep-22          TIME: 12:23:48
 **********************************************************************************************************************************

 SHA1:             19cd028119e0e09f93f0674bd8af7968d9b3eff6
 **********************************************************************************************************************************
  -->
  <!--

Geometry recognized as XYZ


 THRESHOLDS:

 ZERO    =  1.00D-12  ONEINT  =  1.00D-12  TWOINT  =  1.00D-15  PREFAC  =  1.00D-14  LOCALI  =  1.00D-09  EORDER  =  1.00D-04
 ENERGY  =  0.00D+00  ETEST   =  0.00D+00  EDENS   =  0.00D+00  THRDEDEF=  1.00D-06  GRADIENT=  1.00D-02  STEP    =  1.00D-03
 ORBITAL =  1.00D-05  CIVEC   =  1.00D-05  COEFF   =  1.00D-04  PRINTCI =  5.00D-02  PUNCHCI =  9.90D+01  OPTGRAD =  3.00D-04
 OPTENERG=  1.00D-06  OPTSTEP =  3.00D-04  THRGRAD =  1.00D-10  COMPRESS=  1.00D-11  VARMIN  =  1.00D-07  VARMAX  =  1.00D-03
 THRDOUB =  0.00D+00  THRDIV  =  1.00D-05  THRRED  =  1.00D-07  THRPSP  =  1.00D+00  THRDC   =  1.00D-10  THRCS   =  1.00D-10
 THRNRM  =  1.00D-08  THREQ   =  0.00D+00  THRDE   =  1.00D+00  THRREF  =  1.00D-05  SPARFAC =  1.00D+00  THRDLP  =  1.00D-07
 THRDIA  =  1.00D-10  THRDLS  =  1.00D-07  THRGPS  =  0.00D+00  THRKEX  =  0.00D+00  THRDIS  =  2.00D-01  THRVAR  =  1.00D-10
 THRLOC  =  1.00D-06  THRGAP  =  1.00D-06  THRLOCT = -1.00D+00  THRGAPT = -1.00D+00  THRORB  =  1.00D-06  THRMLTP =  0.00D+00
 THRCPQCI=  1.00D-10  KEXTA   =  0.00D+00  THRCOARS=  0.00D+00  SYMTOL  =  1.00D-06  GRADTOL =  1.00D-06  THROVL  =  1.00D-08
 THRORTH =  1.00D-08  GRID    =  1.00D-06  GRIDMAX =  1.00D-03  DTMAX   =  0.00D+00  THROCCDE=  1.00D-01  THROCCDE=  1.00D-01



 THRESHOLDS:

 ZERO    =  1.00D-12  ONEINT  =  1.00D-15  TWOINT  =  1.00D-15  PREFAC  =  1.00D-14  LOCALI  =  1.00D-09  EORDER  =  1.00D-04
 ENERGY  =  0.00D+00  ETEST   =  0.00D+00  EDENS   =  0.00D+00  THRDEDEF=  1.00D-06  GRADIENT=  1.00D-02  STEP    =  1.00D-03
 ORBITAL =  1.00D-05  CIVEC   =  1.00D-05  COEFF   =  1.00D-04  PRINTCI =  5.00D-02  PUNCHCI =  9.90D+01  OPTGRAD =  3.00D-04
 OPTENERG=  1.00D-06  OPTSTEP =  3.00D-04  THRGRAD =  1.00D-10  COMPRESS=  1.00D-11  VARMIN  =  1.00D-07  VARMAX  =  1.00D-03
 THRDOUB =  0.00D+00  THRDIV  =  1.00D-05  THRRED  =  1.00D-07  THRPSP  =  1.00D+00  THRDC   =  1.00D-10  THRCS   =  1.00D-10
 THRNRM  =  1.00D-08  THREQ   =  0.00D+00  THRDE   =  1.00D+00  THRREF  =  1.00D-05  SPARFAC =  1.00D+00  THRDLP  =  1.00D-07
 THRDIA  =  1.00D-10  THRDLS  =  1.00D-07  THRGPS  =  0.00D+00  THRKEX  =  0.00D+00  THRDIS  =  2.00D-01  THRVAR  =  1.00D-10
 THRLOC  =  1.00D-06  THRGAP  =  1.00D-06  THRLOCT = -1.00D+00  THRGAPT = -1.00D+00  THRORB  =  1.00D-06  THRMLTP =  0.00D+00
 THRCPQCI=  1.00D-10  KEXTA   =  0.00D+00  THRCOARS=  0.00D+00  SYMTOL  =  1.00D-06  GRADTOL =  1.00D-06  THROVL  =  1.00D-08
 THRORTH =  1.00D-08  GRID    =  1.00D-06  GRIDMAX =  1.00D-03  DTMAX   =  0.00D+00  THROCCDE=  1.00D-01  THROCCDE=  1.00D-01



 Variable memory set to 1000000000 words,  buffer space   230000 words

 SETTING BASIS          =    USERDEF

 DO I                   =         1.00000000

 Running procedure=ID8S1
  --><jobstep command="RHF-SCF" commandset="SCFPRO">
   <!--


 Recomputing integrals since basis changed


 Using spherical harmonics



 PROGRAM * SEWARD (Integral evaluation for generally contracted gaussian basis sets)     Author: Roland Lindh, 1990

 Geometry written to block  1 of record 700

 Orientation using atomic masses
 Molecule type: Atom
 Symmetry elements: X,Y,Z
 Rotational constants:       0.0000000      0.0000000      0.0000000 GHz  (calculated with average atomic masses)

 Point group  D2h


   --><cml:molecule>
    <cml:symmetry pointGroup="D2h"/>
    <cml:atomArray>
     <cml:atom id="a1" elementType="Rh" x3="0.0" y3="0.0" z3="0.0"/>
    </cml:atomArray>
    <cml:bondArray>
    </cml:bondArray>
   </cml:molecule><!--

 ATOMIC COORDINATES

 NR  ATOM    CHARGE       X              Y              Z

   1  RH      9.00    0.000000000    0.000000000    0.000000000

 NUCLEAR CHARGE:                    9
 NUMBER OF PRIMITIVE AOS:         310
 NUMBER OF SYMMETRY AOS:          259
 NUMBER OF CONTRACTIONS:          259   (  77Ag  +  35B3u +  35B2u +  24B1g +  35B1u +  24B2g +  24B3g +   5Au  )
 NUMBER OF CORE ORBITALS:           0   (   0Ag  +   0B3u +   0B2u +   0B1g +   0B1u +   0B2g +   0B3g +   0Au  )
 NUMBER OF VALENCE ORBITALS:        6   (   3Ag  +   0B3u +   0B2u +   1B1g +   0B1u +   1B2g +   1B3g +   0Au  )


 NUCLEAR REPULSION ENERGY    0.00000000

 EXTRA SYMMETRY OF AOS IN SYMMETRY 1:   1 1 1 1 1 1 1 1 1 1   1 1 1 1 1 1 1 1 1 1   1 1 1 1 1 1 1 1 1 1   1 1 2 3 2 3 2 3 2 3
                                        2 3 2 3 2 3 2 3 2 3   2 3 2 3 2 3 2 3 2 3   2 3 2 3 2 3 2 3 4 5   6 4 5 6 4 5 6
 EXTRA SYMMETRY OF AOS IN SYMMETRY 2:   1 1 1 1 1 1 1 1 1 1   1 1 1 1 1 1 1 1 1 1   1 1 1 1 1 2 3 2 3 2   3 2 3 2 3
 EXTRA SYMMETRY OF AOS IN SYMMETRY 3:   1 1 1 1 1 1 1 1 1 1   1 1 1 1 1 1 1 1 1 1   1 1 1 1 1 2 3 2 3 2   3 2 3 2 3
 EXTRA SYMMETRY OF AOS IN SYMMETRY 4:   1 1 1 1 1 1 1 1 1 1   1 1 1 1 1 1 1 1 2 3   2 3 2 3
 EXTRA SYMMETRY OF AOS IN SYMMETRY 5:   1 1 1 1 1 1 1 1 1 1   1 1 1 1 1 1 1 1 1 1   1 1 1 1 1 2 3 2 3 2   3 2 3 2 3
 EXTRA SYMMETRY OF AOS IN SYMMETRY 6:   1 1 1 1 1 1 1 1 1 1   1 1 1 1 1 1 1 1 2 3   2 3 2 3
 EXTRA SYMMETRY OF AOS IN SYMMETRY 7:   1 1 1 1 1 1 1 1 1 1   1 1 1 1 1 1 1 1 2 3   2 3 2 3

 Eigenvalues of metric

         1 0.117E-07 0.869E-06 0.276E-05 0.276E-05 0.433E-05 0.193E-04 0.493E-04 0.493E-04
         2 0.883E-06 0.615E-05 0.331E-04 0.538E-03 0.165E-02 0.165E-02 0.168E-02 0.425E-02
         3 0.883E-06 0.615E-05 0.331E-04 0.538E-03 0.165E-02 0.165E-02 0.168E-02 0.425E-02
         4 0.276E-05 0.493E-04 0.686E-03 0.452E-02 0.127E-01 0.271E-01 0.556E-01 0.113E+00
         5 0.883E-06 0.615E-05 0.331E-04 0.538E-03 0.165E-02 0.165E-02 0.168E-02 0.425E-02
         6 0.276E-05 0.493E-04 0.686E-03 0.452E-02 0.127E-01 0.271E-01 0.556E-01 0.113E+00
         7 0.276E-05 0.493E-04 0.686E-03 0.452E-02 0.127E-01 0.271E-01 0.556E-01 0.113E+00
         8 0.165E-02 0.129E+00 0.410E+00 0.133E+01 0.313E+01


 Contracted 2-electron integrals neglected if value below      1.0D-15
 AO integral compression algorithm  1   Integral accuracy      1.0D-15

     693.633 MB (compressed) written to integral file ( 58.9%)

     Node minimum: 27.787 MB, node maximum: 88.605 MB


 NUMBER OF SORTED TWO-ELECTRON INTEGRALS:    6733434.     BUFFER LENGTH:  32768
 NUMBER OF SEGMENTS:   1  SEGMENT LENGTH:    6733434      RECORD LENGTH: 524288

 Memory used in sort:       7.29 MW

 SORT1 READ   147238993. AND WROTE     4669287. INTEGRALS IN     14 RECORDS. CPU TIME:     3.89 SEC, REAL TIME:     4.02 SEC
 SORT2 READ    51215103. AND WROTE    74502135. INTEGRALS IN   3718 RECORDS. CPU TIME:     0.24 SEC, REAL TIME:     0.72 SEC

 Node minimum:     6702589.  Node maximum:     6868997. integrals

 OPERATOR DM      FOR CENTER  0  COORDINATES:    0.000000    0.000000    0.000000


 **********************************************************************************************************************************
 DATASETS  * FILE   NREC   LENGTH (MB)   RECORD NAMES
              1      19       20.43       500      610      700      900      950      970     1000      129      960     1100
                                          VAR    BASINP    GEOM    SYMINP    ZMAT    AOBASIS   BASIS     P2S    ABASIS      S
                                         1400     1410     1420     1200     1210     1080     1600     1650     1700
                                           T        V       ECP      H0       H01     AOSYM     SMH    MOLCAS    OPER

 PROGRAMS   *        TOTAL       INT
 CPU TIMES  *        34.37     33.94
 REAL TIME  *        36.43 SEC
 DISK USED  *         1.31 GB
 GA USED    *         0.00 MB       (max)       0.00 MB       (current)
 **********************************************************************************************************************************


 PROGRAM * RHF-SCF (OPEN SHELL)       Authors: W. Meyer, H.-J. Werner


 NUMBER OF ELECTRONS:      10+    7-    SPACE SYMMETRY=1    SPIN SYMMETRY: Quartet
 CONVERGENCE THRESHOLDS:    1.00E-05 (Density)    1.00E-07 (Energy)
 MAX. NUMBER OF ITERATIONS:       60
 INTERPOLATION TYPE:            DIIS
 INTERPOLATION STEPS:              2 (START)      1 (STEP)
 LEVEL SHIFTS:                 -0.60 (CLOSED) -0.30 (OPEN)

 Number of closed-shell orbitals:    7 (   1   1   1   1   1   1   1   0 )
 Number of open-shell orbitals:      3 (   3   0   0   0   0   0   0   0 )



 Extra symmetries of mos in symmetry 1:   1   1   3   2
     Symmetry restrictions:    1             1
 Orbital guess generated from atomic densities. Full valence occupancy:    3   0   0   1   0   1   1   0


 Molecular orbital dump at record        4202.2

 ITERATION    DDIFF          GRAD             ENERGY        2-EL.EN.            DIPOLE MOMENTS         DIIS   ORB.
    1      0.000D+00      0.000D+00       -19.22636552     60.373738    0.00000    0.00000    0.00000    0    start
    2      0.000D+00      0.101D-01       -19.43056573     58.315381    0.00000    0.00000    0.00000    1    diag,B
    3      0.750D+00      0.622D-02       -19.56857415     55.928412    0.00000    0.00000    0.00000    2    diag,B
    4      0.711D+00      0.317D-02       -19.62339695     54.631557    0.00000    0.00000    0.00000    3    diag,B
    5      0.349D+00      0.158D-02       -19.64874047     53.994648    0.00000    0.00000    0.00000    4    diag,B
    6      0.785D-01      0.914D-03       -19.65777833     53.918603    0.00000    0.00000    0.00000    5    diag,B
    7      0.292D-01      0.505D-03       -19.65949439     53.952665    0.00000    0.00000    0.00000    6    fixocc
    8      0.667D-01      0.218D-03       -19.65974141     53.939799    0.00000    0.00000    0.00000    7    diag,B
    9      0.619D-01      0.109D-03       -19.65978441     53.914828    0.00000    0.00000    0.00000    8    diag,B
   10      0.230D-01      0.512D-04       -19.65979627     53.899419    0.00000    0.00000    0.00000    9    orth
   11      0.181D-01      0.223D-04       -19.65979908     53.894565    0.00000    0.00000    0.00000    9    diag,B
   12      0.820D-02      0.101D-04       -19.65979958     53.894318    0.00000    0.00000    0.00000    9    diag,B
   13      0.298D-02      0.422D-05       -19.65979965     53.895575    0.00000    0.00000    0.00000    9    diag,B
   14      0.311D-03      0.845D-06       -19.65979966     53.895503    0.00000    0.00000    0.00000    9    diag,B
   15      0.205D-03      0.349D-06       -19.65979966     53.895577    0.00000    0.00000    0.00000    9    diag,B
   16      0.286D-04      0.103D-06       -19.65979966     53.895587    0.00000    0.00000    0.00000    9    diag,B
   17      0.846D-05      0.939D-07       -19.65979966     53.895588    0.00000    0.00000    0.00000    0    orth

 Final alpha occupancy:   4   1   1   1   1   1   1   0
 Final beta  occupancy:   1   1   1   1   1   1   1   0

 !RHF STATE 1.1 Energy                -19.659799657647
   --><property name="Energy" method="RHF" principal="true" stateSymmetry="1" stateNumber="1"
     value="-19.6597996576465"/><!--
 Nuclear energy                         0.00000000
 One-electron energy                  -46.60759364
 Two-electron energy                   26.94779399
 Virial quotient                       -0.88552641
 !RHF STATE 1.1 Dipole moment           0.00000000     0.00000000     0.00000000
 Dipole moment /Debye                   0.00000000     0.00000000     0.00000000
   --><property name="Dipole moment" method="RHF" principal="true" stateSymmetry="1"
     stateNumber="1" value="0.0 0.0 0.0"/><!--

 ELECTRON ORBITALS
 =================


   Orb  Occ    Energy  Couls-En    Coefficients

                                   1 1s      1 1s      1 1s      1 1s      1 1s      1 1s      1 1s      1 1s      1 1s      1 1s
                                   1 1s      1 1s      1 1s      1 1s      1 1s      1 1s      1 1s      1 1s      1 1s      1 1s
                                   1 1s      1 1s      1 1s      1 1s      1 1s      1 1s      1 1s      1 1s      1 1s      1 1s
                                   1 1s      1 1s      1 3d0     1 3d2+    1 3d0     1 3d2+    1 3d0     1 3d2+    1 3d0     1 3d2+
                                   1 3d0     1 3d2+    1 3d0     1 3d2+    1 3d0     1 3d2+    1 3d0     1 3d2+    1 3d0     1 3d2+
                                   1 3d0     1 3d2+    1 3d0     1 3d2+    1 3d0     1 3d2+    1 3d0     1 3d2+    1 3d0     1 3d2+
                                   1 3d0     1 3d2+    1 3d0     1 3d2+    1 3d0     1 3d2+    1 3d0     1 3d2+    1 5g0     1 5g4+
                                   1 5g2+    1 5g0     1 5g4+    1 5g2+    1 5g0     1 5g4+    1 5g2+

   1.1   2     0.5355   -0.2975 -0.000000  0.000000 -0.000000  0.000000 -0.000000  0.000000 -0.000001  0.000003 -0.000008  0.000024
                                -0.000069  0.000215 -0.000837  0.007723 -0.013807  0.012298 -0.016134  0.044389 -0.270079  3.109281
                                -5.168755  4.180973 -3.104719  1.827930 -1.553648  1.381562 -1.079554  1.674272 -2.439494  3.253517
                                -4.036185  2.896454 -0.000000  0.000000  0.000000 -0.000000  0.000000 -0.000000 -0.000000  0.000000
                                 0.000000 -0.000000 -0.000000  0.000000  0.000000 -0.000000 -0.000000  0.000000  0.000000 -0.000000
                                -0.000000  0.000000  0.000000 -0.000000 -0.000000  0.000000  0.000000 -0.000000 -0.000000  0.000000
                                 0.000000 -0.000000 -0.000000  0.000000  0.000000 -0.000000 -0.000000  0.000000 -0.000015 -0.000012
                                -0.000000 -0.000042 -0.000035  0.000000 -0.000028 -0.000024 -0.000000

   2.1   +     0.4810   -2.2700 -0.000000  0.000000 -0.000000  0.000000 -0.000000  0.000000 -0.000000  0.000001 -0.000002  0.000007
                                -0.000020  0.000062 -0.000243  0.002237 -0.003999  0.003563 -0.004670  0.012817 -0.078122  0.900764
                                -1.496777  1.205971 -0.885664  0.506234 -0.384318  0.261906  0.120611  0.346129 -0.734612  0.066389
                                -1.202004  0.597259  0.000000  0.000000 -0.000000 -0.000000  0.000000  0.000000  0.000000 -0.000000
                                -0.000000  0.000000  0.000000 -0.000000 -0.000000  0.000000 -0.000000 -0.000000  0.000000  0.000000
                                -0.000000 -0.000000  0.000000  0.000000 -0.000000 -0.000000  0.000000  0.000000 -0.000000 -0.000000
                                 0.000000  0.000000 -0.000000 -0.000000  0.000000  0.000000 -0.000000 -0.000000 -0.000206 -0.000174
                                 0.000000 -0.000269 -0.000227  0.000000 -0.003373 -0.002851 -0.000000

   3.1   +     0.2565   -4.4664 -0.000000  0.000000 -0.000000  0.000000 -0.000000  0.000000 -0.000000  0.000000 -0.000000  0.000000
                                 0.000000 -0.000000  0.000000 -0.000000  0.000000 -0.000000  0.000000 -0.000000  0.000000 -0.000000
                                 0.000000 -0.000000  0.000000 -0.000000  0.000000 -0.000000  0.000000 -0.000000  0.000000 -0.000000
                                -0.000000  0.000000 -0.000000  0.000000  0.000002 -0.000003 -0.000014  0.000019  0.000042 -0.000059
                                -0.000186  0.000261 -0.000146  0.000206 -0.008540  0.011989  0.011648 -0.016353 -0.005602  0.007864
                                 0.017588 -0.024692  0.043380 -0.060903  0.167595 -0.235292 -0.033199  0.046609  0.251826 -0.353547
                                 0.150581 -0.211406  0.093323 -0.131020  0.027795 -0.039022 -0.001467  0.002059  0.000410 -0.000485
                                 0.000891  0.000923 -0.001092  0.002008  0.000971 -0.001149  0.002113

   4.1   +     0.2565   -4.4664 -0.000000 -0.000000  0.000000 -0.000000  0.000000 -0.000000  0.000000 -0.000000  0.000000 -0.000000
                                 0.000000 -0.000000  0.000000 -0.000000  0.000000 -0.000000  0.000000 -0.000000  0.000000 -0.000000
                                 0.000000 -0.000000  0.000000 -0.000000  0.000000 -0.000000  0.000000 -0.000000  0.000000 -0.000000
                                -0.000000  0.000000  0.000000  0.000000 -0.000003 -0.000002  0.000019  0.000014 -0.000059 -0.000042
                                 0.000261  0.000186  0.000206  0.000146  0.011989  0.008540 -0.016353 -0.011648  0.007864  0.005602
                                -0.024692 -0.017588 -0.060903 -0.043380 -0.235292 -0.167595  0.046609  0.033199 -0.353547 -0.251826
                                -0.211406 -0.150581 -0.131020 -0.093323 -0.039022 -0.027795  0.002060  0.001467 -0.000575  0.000681
                                 0.000635 -0.001296  0.001534  0.001430 -0.001364  0.001614  0.001505

   5.1   0     0.7607   -0.2479 -0.000000 -0.000000  0.000000 -0.000000 -0.000000  0.000000 -0.000000  0.000000 -0.000000  0.000000
                                -0.000000  0.000000 -0.000000  0.000000 -0.000000  0.000000 -0.000000  0.000000 -0.000000  0.000000
                                -0.000000  0.000000 -0.000000  0.000000 -0.000000  0.000000 -0.000000  0.000000 -0.000000  0.000000
                                -0.000000  0.000000  0.000001 -0.000001 -0.000008  0.000005  0.000043 -0.000024 -0.000181  0.000100
                                 0.000628 -0.000349 -0.002057  0.001141  0.005989 -0.003323 -0.027510  0.015266  0.462059 -0.256403
                                -0.843162  0.467884  0.818998 -0.454478 -0.812990  0.451145  1.390175 -0.771440 -1.158495  0.642876
                                 0.427378 -0.237163 -0.416084  0.230896  0.614026 -0.340739 -1.174209  0.651599  0.000028 -0.000033
                                 0.000024  0.000088 -0.000105  0.000076  0.000016 -0.000019  0.000014

   6.1   0     0.7607   -0.2479 -0.000000  0.000000 -0.000000  0.000000 -0.000000  0.000000 -0.000000  0.000000 -0.000000  0.000000
                                -0.000000  0.000000 -0.000000  0.000000 -0.000000  0.000000 -0.000000  0.000000 -0.000000  0.000000
                                -0.000000  0.000000 -0.000000  0.000000 -0.000000  0.000000 -0.000000  0.000000 -0.000000  0.000000
                                -0.000000  0.000000 -0.000001 -0.000001  0.000005  0.000008 -0.000024 -0.000043  0.000100  0.000181
                                -0.000349 -0.000628  0.001141  0.002057 -0.003323 -0.005989  0.015266  0.027510 -0.256407 -0.462056
                                 0.467890  0.843158 -0.454482 -0.818996  0.451148  0.812988 -0.771443 -1.390172  0.642878  1.158493
                                -0.237163 -0.427377  0.230896  0.416084 -0.340739 -0.614026  0.651599  1.174209 -0.000015  0.000018
                                 0.000043 -0.000049  0.000058  0.000137 -0.000009  0.000011  0.000025

                                   1 2px     1 2px     1 2px     1 2px     1 2px     1 2px     1 2px     1 2px     1 2px     1 2px
                                   1 2px     1 2px     1 2px     1 2px     1 2px     1 2px     1 2px     1 2px     1 2px     1 2px
                                   1 2px     1 2px     1 2px     1 2px     1 2px     1 4f1+    1 4f3+    1 4f1+    1 4f3+    1 4f1+
                                   1 4f3+    1 4f1+    1 4f3+    1 4f1+    1 4f3+

   1.2   2     0.5486   -0.2162  0.000000 -0.000000  0.000000 -0.000001  0.000002 -0.000010  0.000039 -0.000131  0.000423 -0.001423
                                 0.006014 -0.078070  0.115769 -0.094718  0.381633 -0.550965  0.393571 -0.912839  1.041238 -0.433108
                                 0.241530 -0.326807  0.698241 -1.402341  1.709022  0.000033 -0.000043 -0.000047  0.000060  0.000090
                                -0.000116  0.000085 -0.000110  0.000085 -0.000110

   2.2   0     0.7599   -1.0293 -0.000000  0.000000 -0.000000  0.000000 -0.000002  0.000007 -0.000025  0.000086 -0.000278  0.000933
                                -0.003941  0.051140 -0.075820  0.061883 -0.247848  0.356558 -0.253699  0.584807 -0.677549  0.304623
                                -0.244196  0.347237 -0.315024  1.558251 -0.641293 -0.000191  0.000247  0.000545 -0.000704 -0.000790
                                 0.001020 -0.000585  0.000755 -0.001577  0.002035

   3.2   0     0.9285   -0.8280  0.000000 -0.000000  0.000000 -0.000001  0.000006 -0.000024  0.000091 -0.000307  0.000991 -0.003334
                                 0.014101 -0.183253  0.271846 -0.222891  0.902643 -1.306751  0.938382 -2.203740  2.511621 -1.029496
                                 0.488978 -0.721523  2.543005 -2.406122  0.779961 -0.000371  0.000478  0.001063 -0.001373 -0.001524
                                 0.001967 -0.001029  0.001328 -0.002896  0.003738

                                   1 2py     1 2py     1 2py     1 2py     1 2py     1 2py     1 2py     1 2py     1 2py     1 2py
                                   1 2py     1 2py     1 2py     1 2py     1 2py     1 2py     1 2py     1 2py     1 2py     1 2py
                                   1 2py     1 2py     1 2py     1 2py     1 2py     1 4f1-    1 4f3-    1 4f1-    1 4f3-    1 4f1-
                                   1 4f3-    1 4f1-    1 4f3-    1 4f1-    1 4f3-

   1.3   2     0.5486   -0.2162  0.000000 -0.000000  0.000000 -0.000001  0.000002 -0.000010  0.000039 -0.000131  0.000423 -0.001423
                                 0.006014 -0.078070  0.115769 -0.094718  0.381633 -0.550965  0.393571 -0.912839  1.041238 -0.433108
                                 0.241530 -0.326807  0.698241 -1.402341  1.709022  0.000033  0.000043 -0.000047 -0.000060  0.000090
                                 0.000116  0.000085  0.000110  0.000085  0.000110

   2.3   0     0.7599   -1.0293 -0.000000  0.000000 -0.000000  0.000000 -0.000002  0.000007 -0.000025  0.000086 -0.000278  0.000933
                                -0.003941  0.051140 -0.075820  0.061883 -0.247848  0.356558 -0.253699  0.584807 -0.677549  0.304623
                                -0.244196  0.347237 -0.315024  1.558251 -0.641293 -0.000191 -0.000247  0.000545  0.000704 -0.000790
                                -0.001020 -0.000585 -0.000755 -0.001577 -0.002035

   3.3   0     0.9285   -0.8280  0.000000 -0.000000  0.000000 -0.000001  0.000006 -0.000024  0.000091 -0.000307  0.000991 -0.003334
                                 0.014101 -0.183253  0.271846 -0.222891  0.902643 -1.306751  0.938382 -2.203740  2.511621 -1.029496
                                 0.488978 -0.721523  2.543005 -2.406122  0.779961 -0.000371 -0.000478  0.001063  0.001373 -0.001524
                                -0.001967 -0.001029 -0.001328 -0.002896 -0.003738

                                   1 3d2-    1 3d2-    1 3d2-    1 3d2-    1 3d2-    1 3d2-    1 3d2-    1 3d2-    1 3d2-    1 3d2-
                                   1 3d2-    1 3d2-    1 3d2-    1 3d2-    1 3d2-    1 3d2-    1 3d2-    1 3d2-    1 5g2-    1 5g4-
                                   1 5g2-    1 5g4-    1 5g2-    1 5g4-

   1.4   2     0.3218   -4.3707 -0.000001  0.000004 -0.000024  0.000072 -0.000318 -0.000250 -0.014627  0.020015 -0.011498  0.034575
                                 0.070726  0.288521 -0.065014  0.433926  0.256927  0.172628  0.058212 -0.001174  0.000155 -0.000000
                                 0.000088 -0.000000  0.000511 -0.000000

   2.4   0     0.7610   -0.2478 -0.000001  0.000009 -0.000050  0.000207 -0.000719  0.002360 -0.006788  0.031434 -0.529670  0.966408
                                -0.939236  0.930396 -1.593004  1.325567 -0.491437  0.475025 -0.706361  1.344630  0.000025 -0.000000
                                 0.000078  0.000000  0.000014 -0.000000

   3.4   0     0.9971   -0.5984  0.000002 -0.000019  0.000099 -0.000404  0.001429 -0.004198  0.017979 -0.065230  0.978864 -1.793444
                                 1.705688 -1.837114  3.012491 -2.672468  0.871609 -1.055759  1.904299 -0.790810  0.000105  0.000000
                                 0.000407  0.000000 -0.000127 -0.000000

                                   1 2pz     1 2pz     1 2pz     1 2pz     1 2pz     1 2pz     1 2pz     1 2pz     1 2pz     1 2pz
                                   1 2pz     1 2pz     1 2pz     1 2pz     1 2pz     1 2pz     1 2pz     1 2pz     1 2pz     1 2pz
                                   1 2pz     1 2pz     1 2pz     1 2pz     1 2pz     1 4f0     1 4f2+    1 4f0     1 4f2+    1 4f0
                                   1 4f2+    1 4f0     1 4f2+    1 4f0     1 4f2+

   1.5   2     0.5486   -0.2162  0.000000 -0.000000  0.000000 -0.000001  0.000002 -0.000010  0.000039 -0.000131  0.000423 -0.001423
                                 0.006014 -0.078070  0.115769 -0.094718  0.381633 -0.550965  0.393571 -0.912839  1.041238 -0.433108
                                 0.241530 -0.326807  0.698241 -1.402341  1.709022 -0.000054  0.000000  0.000076 -0.000000 -0.000147
                                 0.000000 -0.000139  0.000000 -0.000139  0.000000

   2.5   0     0.7599   -1.0293 -0.000000  0.000000 -0.000000  0.000000 -0.000002  0.000007 -0.000025  0.000086 -0.000278  0.000933
                                -0.003941  0.051140 -0.075820  0.061883 -0.247848  0.356558 -0.253699  0.584807 -0.677549  0.304623
                                -0.244196  0.347237 -0.315024  1.558251 -0.641293  0.000313  0.000000 -0.000891 -0.000000  0.001290
                                 0.000000  0.000955  0.000000  0.002574  0.000000

   3.5   0     0.9285   -0.8280  0.000000 -0.000000  0.000000 -0.000001  0.000006 -0.000024  0.000091 -0.000307  0.000991 -0.003334
                                 0.014101 -0.183253  0.271846 -0.222891  0.902643 -1.306751  0.938382 -2.203740  2.511621 -1.029496
                                 0.488978 -0.721523  2.543005 -2.406122  0.779961  0.000605 -0.000000 -0.001737  0.000000  0.002489
                                -0.000000  0.001680  0.000000  0.004728 -0.000000

                                   1 3d1+    1 3d1+    1 3d1+    1 3d1+    1 3d1+    1 3d1+    1 3d1+    1 3d1+    1 3d1+    1 3d1+
                                   1 3d1+    1 3d1+    1 3d1+    1 3d1+    1 3d1+    1 3d1+    1 3d1+    1 3d1+    1 5g1+    1 5g3+
                                   1 5g1+    1 5g3+    1 5g1+    1 5g3+

   1.6   2     0.3218   -4.3707 -0.000001  0.000004 -0.000024  0.000072 -0.000318 -0.000250 -0.014627  0.020015 -0.011498  0.034575
                                 0.070726  0.288521 -0.065014  0.433926  0.256927  0.172628  0.058212 -0.001174 -0.000055 -0.000145
                                -0.000031 -0.000083 -0.000181 -0.000478

   2.6   0     0.7610   -0.2478 -0.000001  0.000009 -0.000050  0.000207 -0.000719  0.002360 -0.006788  0.031434 -0.529670  0.966408
                                -0.939236  0.930396 -1.593004  1.325567 -0.491437  0.475025 -0.706361  1.344630 -0.000009 -0.000023
                                -0.000028 -0.000073 -0.000005 -0.000014

   3.6   0     0.9971   -0.5984  0.000002 -0.000019  0.000099 -0.000404  0.001429 -0.004198  0.017979 -0.065230  0.978864 -1.793444
                                 1.705688 -1.837114  3.012491 -2.672468  0.871609 -1.055759  1.904299 -0.790810 -0.000037 -0.000098
                                -0.000144 -0.000381  0.000045  0.000119

                                   1 3d1-    1 3d1-    1 3d1-    1 3d1-    1 3d1-    1 3d1-    1 3d1-    1 3d1-    1 3d1-    1 3d1-
                                   1 3d1-    1 3d1-    1 3d1-    1 3d1-    1 3d1-    1 3d1-    1 3d1-    1 3d1-    1 5g1-    1 5g3-
                                   1 5g1-    1 5g3-    1 5g1-    1 5g3-

   1.7   2     0.3218   -4.3707 -0.000001  0.000004 -0.000024  0.000072 -0.000318 -0.000250 -0.014627  0.020015 -0.011498  0.034575
                                 0.070726  0.288521 -0.065014  0.433926  0.256927  0.172628  0.058212 -0.001174 -0.000055  0.000145
                                -0.000031  0.000083 -0.000181  0.000478

   2.7   0     0.7610   -0.2478 -0.000001  0.000009 -0.000050  0.000207 -0.000719  0.002360 -0.006788  0.031434 -0.529670  0.966408
                                -0.939236  0.930396 -1.593004  1.325567 -0.491437  0.475025 -0.706361  1.344630 -0.000009  0.000023
                                -0.000028  0.000073 -0.000005  0.000014

   3.7   0     0.9971   -0.5984  0.000002 -0.000019  0.000099 -0.000404  0.001429 -0.004198  0.017979 -0.065230  0.978864 -1.793444
                                 1.705688 -1.837114  3.012491 -2.672468  0.871609 -1.055759  1.904299 -0.790810 -0.000037  0.000098
                                -0.000144  0.000381  0.000045 -0.000119

                                   1 4f2-    1 4f2-    1 4f2-    1 4f2-    1 4f2-

   1.8   0     1.4445   -0.5472  0.093463 -0.665887  0.790138 -0.333748  1.143815

   2.8   0     2.4623    0.2180  0.029437  1.092858 -1.150416  1.465695 -0.805834

 HOMO      1.2     0.548638 =      14.9292eV
 LUMO      2.3     0.759931 =      20.6788eV
 LUMO-HOMO         0.211292 =       5.7496eV


 **********************************************************************************************************************************
 DATASETS  * FILE   NREC   LENGTH (MB)   RECORD NAMES
              1      19       20.46       500      610      700      900      950      970     1000      129      960     1100
                                          VAR    BASINP    GEOM    SYMINP    ZMAT    AOBASIS   BASIS     P2S    ABASIS      S
                                         1400     1410     1420     1200     1210     1080     1600     1650     1700
                                           T        V       ECP      H0       H01     AOSYM     SMH    MOLCAS    OPER

              2       5        5.70       200      700     1000      520     4202
                                        OPTIONS   GEOM     BASIS   MCVARS     RHF

 PROGRAMS   *        TOTAL       RHF       INT
 CPU TIMES  *        35.38      1.01     33.94
 REAL TIME  *        37.62 SEC
 DISK USED  *         1.62 GB
 SF USED    *         0.05 MB
 GA USED    *         0.00 MB       (max)       0.00 MB       (current)
 **********************************************************************************************************************************
   -->
   <time start="12:23:48" end="12:24:25" cpu="35.38" system="1.5" real="37.62"/>
   <storage units="megabyte" memory="8001.84" sf="0.05" df="307.03" eaf="1313.6" ga="0.0"/>
  </jobstep><!--
  --><jobstep command="POP" commandset="POP">
   <!--


 PROGRAM * POP (Mulliken population analysis)


 Density matrix read from record         4202.2  Type=RHF/CHARGE (state 1.1)

 Population analysis by basis function type

 Unique atom        s        p        d        f        g    Total    Charge
   1  RH      2.99998  6.00000  7.99994  0.00000  0.00008 17.00000  - 8.00000


 **********************************************************************************************************************************
 DATASETS  * FILE   NREC   LENGTH (MB)   RECORD NAMES
              1      19       20.46       500      610      700      900      950      970     1000      129      960     1100
                                          VAR    BASINP    GEOM    SYMINP    ZMAT    AOBASIS   BASIS     P2S    ABASIS      S
                                         1400     1410     1420     1200     1210     1080     1600     1650     1700
                                           T        V       ECP      H0       H01     AOSYM     SMH    MOLCAS    OPER

              2       5        5.70       200      700     1000      520     4202
                                        OPTIONS   GEOM     BASIS   MCVARS     RHF

 PROGRAMS   *        TOTAL       POP       RHF       INT
 CPU TIMES  *        35.39      0.00      1.01     33.94
 REAL TIME  *        37.63 SEC
 DISK USED  *         1.62 GB
 SF USED    *         0.05 MB
 GA USED    *         0.00 MB       (max)       0.00 MB       (current)
 **********************************************************************************************************************************
   -->
   <time start="12:24:25" end="12:24:25" cpu="0.01" system="0.0" real="0.01"/>
   <storage units="megabyte" memory="8001.84" sf="0.05" df="307.03" eaf="1313.6" ga="0.0"/>
  </jobstep><!--
  --><jobstep command="MULTI" commandset="MULTI">
   <!--


 PROGRAM * MULTI (Direct Multiconfiguration SCF)       Authors: P.J. Knowles, H.-J. Werner (1984)     S.T. Elbert (1988)


 Number of closed-shell orbitals:   4 (   1   1   1   0   1   0   0   0 )
 Number of active  orbitals:        6 (   3   0   0   1   0   1   1   0 )
 Number of external orbitals:     249 (  73  34  34  23  34  23  23   5 )

 State symmetry 1

 Orbital occupancy restrictions for symmetry 4
  1      1       200000

 Number of electrons:     9    Spin symmetry=Quartet   Space symmetry=4
 Number of states:        3
 Number of CSFs:          3

 State symmetry 2

 Orbital occupancy restrictions for symmetry 6
  1      1       200000

 Number of electrons:     9    Spin symmetry=Quartet   Space symmetry=6
 Number of states:        3
 Number of CSFs:          3

 State symmetry 3

 Orbital occupancy restrictions for symmetry 7
  1      1       200000

 Number of electrons:     9    Spin symmetry=Quartet   Space symmetry=7
 Number of states:        3
 Number of CSFs:          3

 State symmetry 4

 Orbital occupancy restrictions for symmetry 1
  1      1       200000

 Number of electrons:     9    Spin symmetry=Quartet   Space symmetry=1
 Number of states:        1
 Number of CSFs:          1

 Maximum number of shells:             3
 Maximum number of spin couplings:    14

 Storage for configuration lists     145, coupling coefficients   1867, address lists    670

 Molecular orbitals read from record     4202.2  Type=RHF/CANONICAL (state 1.1)
 *** IN SYMMETRY 1 ORBITAL  2 SYMMETRY CONTAMINATION OF 0.805D-03 HAS BEEN REMOVED
 *** IN SYMMETRY 1 ORBITAL  3 SYMMETRY CONTAMINATION OF 0.419D+00 HAS BEEN REMOVED
 *** IN SYMMETRY 1 ORBITAL  4 SYMMETRY CONTAMINATION OF 0.419D+00 HAS BEEN REMOVED

 EXTRA SYMMETRY OF MOS IN SYMMETRY 1:   1 1 3 2 2 3 1 3 2 1   3 2 1 2 3 4 6 5 1 2   3 4 6 5 2 3 1 1 6 5   2 3 1 3 2 1 3 2 1 3
                                        2 1 1 3 2 1 3 2 1 1   3 2 1 3 2 1 1 2 3 1   1 3 2 1 1 3 2 1 1 1   1 1 1 1 1 1 4
 *** IN SYMMETRY 2 ORBITAL  1 SYMMETRY CONTAMINATION OF 0.930D-04 HAS BEEN REMOVED
 EXTRA SYMMETRY OF MOS IN SYMMETRY 2:   1 1 1 1 1 2 3 2 1 3   2 1 3 2 1 3 2 1 1 1   1 1 1 1 1 1 1 1 1 1   1 1 1 1 3
 *** IN SYMMETRY 3 ORBITAL  1 SYMMETRY CONTAMINATION OF 0.930D-04 HAS BEEN REMOVED
 EXTRA SYMMETRY OF MOS IN SYMMETRY 3:   1 1 1 1 1 2 3 2 1 3   2 1 3 2 1 3 2 1 1 1   1 1 1 1 1 1 1 1 1 1   1 1 1 1 3
 *** IN SYMMETRY 4 ORBITAL  1 SYMMETRY CONTAMINATION OF 0.528D-03 HAS BEEN REMOVED
 EXTRA SYMMETRY OF MOS IN SYMMETRY 4:   1 1 1 1 1 3 2 1 3 2   1 3 2 1 1 1 1 1 1 1   1 1 1 1
 *** IN SYMMETRY 5 ORBITAL  1 SYMMETRY CONTAMINATION OF 0.663D-04 HAS BEEN REMOVED
 EXTRA SYMMETRY OF MOS IN SYMMETRY 5:   1 1 1 1 1 3 2 3 1 2   3 1 2 3 1 2 3 1 1 1   1 1 1 1 1 1 1 1 1 1   1 1 1 1 2
 *** IN SYMMETRY 6 ORBITAL  1 SYMMETRY CONTAMINATION OF 0.680D-03 HAS BEEN REMOVED
 EXTRA SYMMETRY OF MOS IN SYMMETRY 6:   1 1 1 1 1 2 3 1 2 3   1 2 3 1 1 1 1 1 1 1   1 1 1 1
 *** IN SYMMETRY 7 ORBITAL  1 SYMMETRY CONTAMINATION OF 0.680D-03 HAS BEEN REMOVED
 EXTRA SYMMETRY OF MOS IN SYMMETRY 7:   1 1 1 1 1 2 3 1 2 3   1 2 3 1 1 1 1 1 1 1   1 1 1 1

 Wavefunction dump at record             5202.2

 Convergence thresholds  0.10E-01 (gradient)  0.10E-05 (energy)  0.10E-02 (step length)

 Weight factors for state symmetry  1:    0.10000   0.10000   0.10000
 Weight factors for state symmetry  2:    0.10000   0.10000   0.10000
 Weight factors for state symmetry  3:    0.10000   0.10000   0.10000
 Weight factors for state symmetry  4:    0.10000

 Eigenvalues of redundancy matrix
   1-  3    0.000000    0.725775    2.999801

 Non-redundant active-active orbital rotations:
     1  2  3  4  5
  2  +
  3  +
  4
  5
  6

 Number of orbital rotations:      468   (     3 Core/Active    175 Core/Virtual   2 Active/Active    288 Active/Virtual)
 Total number of variables:        496


 ITER. MIC  NCI  NEG     ENERGY(VAR)     ENERGY(PROJ)   ENERGY CHANGE     GRAD(0)  GRAD(ORB)   GRAD(CI)     STEP       TIME

   1   30   28    0     -19.64119368     -19.64174740   -0.00055372    0.13188442 0.00000000 0.00000000  0.24D-01      0.52
   2   19   32    0     -19.64174616     -19.64174836   -0.00000220   84.41507711 0.00000000 0.00000000  0.22D-03      1.01
   3  104   48    0     -19.64174836     -19.64174836    0.00000000    0.00000001 0.00000000 0.00000000  0.32D-07      1.57

 ** WVFN ****  CONVERGENCE REACHED, FINAL GRADIENT:  0.83D-08



 Results for state 1.4
 =====================

 !MCSCF STATE 1.4 Energy              -19.659221470838
   --><property name="Energy" method="MCSCF" principal="true" stateSymmetry="4" stateNumber="1"
     value="-19.6592214708377"/><!--
 Nuclear energy                         0.00000000
 Kinetic energy                        22.18181558
 One electron energy                  -46.59834636
 Two electron energy                   26.93912489
 Virial ratio                           1.88627648

 !MCSCF STATE 1.4 Dipole moment         0.00000000     0.00000000     0.00000000
 Dipole moment /Debye                   0.00000000     0.00000000     0.00000000
   --><property name="Dipole moment" method="MCSCF" principal="true" stateSymmetry="4"
     stateNumber="1" value="0.0 0.0 0.0"/><!--

 Results for state 2.4
 =====================

 !MCSCF STATE 2.4 Energy              -19.659221470838
   --><property name="Energy" method="MCSCF" principal="true" stateSymmetry="4" stateNumber="2"
     value="-19.6592214708377"/><!--
 Nuclear energy                         0.00000000
 Kinetic energy                        22.18181558
 One electron energy                  -46.59834636
 Two electron energy                   26.93912489
 Virial ratio                           1.88627648

 !MCSCF STATE 2.4 Dipole moment         0.00000000     0.00000000     0.00000000
 Dipole moment /Debye                   0.00000000     0.00000000     0.00000000
   --><property name="Dipole moment" method="MCSCF" principal="true" stateSymmetry="4"
     stateNumber="2" value="0.0 0.0 0.0"/><!--

 Results for state 3.4
 =====================

 !MCSCF STATE 3.4 Energy              -19.600977775954
   --><property name="Energy" method="MCSCF" principal="true" stateSymmetry="4" stateNumber="3"
     value="-19.6009777759541"/><!--
 Nuclear energy                         0.00000000
 Kinetic energy                        22.18181558
 One electron energy                  -46.59834636
 Two electron energy                   26.99736858
 Virial ratio                           1.88365074

 !MCSCF STATE 3.4 Dipole moment         0.00000000     0.00000000     0.00000000
 Dipole moment /Debye                   0.00000000     0.00000000     0.00000000
   --><property name="Dipole moment" method="MCSCF" principal="true" stateSymmetry="4"
     stateNumber="3" value="0.0 0.0 0.0"/><!--



 Results for state 1.6
 =====================

 !MCSCF STATE 1.6 Energy              -19.659221470838
   --><property name="Energy" method="MCSCF" principal="true" stateSymmetry="6" stateNumber="1"
     value="-19.6592214708377"/><!--
 Nuclear energy                         0.00000000
 Kinetic energy                        22.18181558
 One electron energy                  -46.59834636
 Two electron energy                   26.93912489
 Virial ratio                           1.88627648

 !MCSCF STATE 1.6 Dipole moment         0.00000000     0.00000000     0.00000000
 Dipole moment /Debye                   0.00000000     0.00000000     0.00000000
   --><property name="Dipole moment" method="MCSCF" principal="true" stateSymmetry="6"
     stateNumber="1" value="0.0 0.0 0.0"/><!--

 Results for state 2.6
 =====================

 !MCSCF STATE 2.6 Energy              -19.659221470838
   --><property name="Energy" method="MCSCF" principal="true" stateSymmetry="6" stateNumber="2"
     value="-19.6592214708377"/><!--
 Nuclear energy                         0.00000000
 Kinetic energy                        22.18181558
 One electron energy                  -46.59834636
 Two electron energy                   26.93912489
 Virial ratio                           1.88627648

 !MCSCF STATE 2.6 Dipole moment         0.00000000     0.00000000     0.00000000
 Dipole moment /Debye                   0.00000000     0.00000000     0.00000000
   --><property name="Dipole moment" method="MCSCF" principal="true" stateSymmetry="6"
     stateNumber="2" value="0.0 0.0 0.0"/><!--

 Results for state 3.6
 =====================

 !MCSCF STATE 3.6 Energy              -19.600977775954
   --><property name="Energy" method="MCSCF" principal="true" stateSymmetry="6" stateNumber="3"
     value="-19.6009777759541"/><!--
 Nuclear energy                         0.00000000
 Kinetic energy                        22.18181558
 One electron energy                  -46.59834636
 Two electron energy                   26.99736858
 Virial ratio                           1.88365074

 !MCSCF STATE 3.6 Dipole moment         0.00000000     0.00000000     0.00000000
 Dipole moment /Debye                   0.00000000     0.00000000     0.00000000
   --><property name="Dipole moment" method="MCSCF" principal="true" stateSymmetry="6"
     stateNumber="3" value="0.0 0.0 0.0"/><!--



 Results for state 1.7
 =====================

 !MCSCF STATE 1.7 Energy              -19.659221470838
   --><property name="Energy" method="MCSCF" principal="true" stateSymmetry="7" stateNumber="1"
     value="-19.6592214708377"/><!--
 Nuclear energy                         0.00000000
 Kinetic energy                        22.18181558
 One electron energy                  -46.59834636
 Two electron energy                   26.93912489
 Virial ratio                           1.88627648

 !MCSCF STATE 1.7 Dipole moment         0.00000000     0.00000000     0.00000000
 Dipole moment /Debye                   0.00000000     0.00000000     0.00000000
   --><property name="Dipole moment" method="MCSCF" principal="true" stateSymmetry="7"
     stateNumber="1" value="0.0 0.0 0.0"/><!--

 Results for state 2.7
 =====================

 !MCSCF STATE 2.7 Energy              -19.659221470838
   --><property name="Energy" method="MCSCF" principal="true" stateSymmetry="7" stateNumber="2"
     value="-19.6592214708377"/><!--
 Nuclear energy                         0.00000000
 Kinetic energy                        22.18181558
 One electron energy                  -46.59834636
 Two electron energy                   26.93912489
 Virial ratio                           1.88627648

 !MCSCF STATE 2.7 Dipole moment         0.00000000     0.00000000     0.00000000
 Dipole moment /Debye                   0.00000000     0.00000000     0.00000000
   --><property name="Dipole moment" method="MCSCF" principal="true" stateSymmetry="7"
     stateNumber="2" value="0.0 0.0 0.0"/><!--

 Results for state 3.7
 =====================

 !MCSCF STATE 3.7 Energy              -19.600977775954
   --><property name="Energy" method="MCSCF" principal="true" stateSymmetry="7" stateNumber="3"
     value="-19.6009777759541"/><!--
 Nuclear energy                         0.00000000
 Kinetic energy                        22.18181558
 One electron energy                  -46.59834636
 Two electron energy                   26.99736858
 Virial ratio                           1.88365074

 !MCSCF STATE 3.7 Dipole moment         0.00000000     0.00000000     0.00000000
 Dipole moment /Debye                   0.00000000     0.00000000     0.00000000
   --><property name="Dipole moment" method="MCSCF" principal="true" stateSymmetry="7"
     stateNumber="3" value="0.0 0.0 0.0"/><!--



 Results for state 1.1
 =====================

 !MCSCF STATE 1.1 Energy              -19.659221470838
   --><property name="Energy" method="MCSCF" principal="true" stateSymmetry="1" stateNumber="1"
     value="-19.6592214708377"/><!--
 Nuclear energy                         0.00000000
 Kinetic energy                        22.18181558
 One electron energy                  -46.59834636
 Two electron energy                   26.93912489
 Virial ratio                           1.88627648

 !MCSCF STATE 1.1 Dipole moment         0.00000000     0.00000000     0.00000000
 Dipole moment /Debye                   0.00000000     0.00000000     0.00000000
   --><property name="Dipole moment" method="MCSCF" principal="true" stateSymmetry="1"
     stateNumber="1" value="0.0 0.0 0.0"/><!--

 State-averaged charge density matrix saved on record  5202.2 (density set 1)


 EXTRA SYMMETRY OF MOS IN SYMMETRY 1:   1 1 2 3 2 3 1 3 2 1   3 2 1 3 2 4 5 6 1 3   2 6 4 5 3 2 1 4 6 5   3 2 1 3 2 1 3 2 1 3
                                        2 1 1 3 2 1 2 3 1 1   2 3 1 2 3 1 1 3 2 1   1 3 2 1 1 3 2 1 1 1   1 1 1 1 1 1 1
 EXTRA SYMMETRY OF MOS IN SYMMETRY 2:   1 1 1 1 3 2 3 2 1 2   3 1 2 3 1 2 3 1 1 1   1 1 1 1 1 1 1 1 1 1   1 1 1 1 1
 EXTRA SYMMETRY OF MOS IN SYMMETRY 3:   1 1 1 1 3 2 3 2 1 2   3 1 2 3 1 2 3 1 1 1   1 1 1 1 1 1 1 1 1 1   1 1 1 1 1
 EXTRA SYMMETRY OF MOS IN SYMMETRY 4:   1 1 1 1 1 2 3 1 3 2   1 3 2 1 1 1 1 1 1 1   1 1 1 1
 EXTRA SYMMETRY OF MOS IN SYMMETRY 5:   1 1 1 1 2 3 3 2 1 2   3 1 3 2 1 2 3 1 1 1   1 1 1 1 1 1 1 1 1 1   1 1 1 1 1
 EXTRA SYMMETRY OF MOS IN SYMMETRY 6:   1 1 1 1 1 3 2 1 3 2   1 3 2 1 1 1 1 1 1 1   1 1 1 1
 EXTRA SYMMETRY OF MOS IN SYMMETRY 7:   1 1 1 1 1 2 3 1 3 2   1 2 3 1 1 1 1 1 1 1   1 1 1 1

 Natural orbital dump (state averaged) at molpro section  5202.2    (Orbital set 2)



 **********************************************************************************************************************************
 DATASETS  * FILE   NREC   LENGTH (MB)   RECORD NAMES
              1      20       26.65       500      610      700      900      950      970     1000      129      960     1100
                                          VAR    BASINP    GEOM    SYMINP    ZMAT    AOBASIS   BASIS     P2S    ABASIS      S
                                         1400     1410     1420     1200     1210     1080     1600     1650     1700     1380
                                           T        V       ECP      H0       H01     AOSYM     SMH    MOLCAS    OPER     JKOP

              2       6        8.61       200      700     1000      520     4202     5202
                                        OPTIONS   GEOM     BASIS   MCVARS     RHF     MCSCF

 PROGRAMS   *        TOTAL     MULTI       POP       RHF       INT
 CPU TIMES  *        37.35      1.94      0.00      1.01     33.94
 REAL TIME  *        39.78 SEC
 DISK USED  *         1.62 GB
 SF USED    *        37.01 MB
 GA USED    *         0.00 MB       (max)       0.00 MB       (current)
 **********************************************************************************************************************************
   -->
   <time start="12:24:25" end="12:24:27" cpu="1.96" system="0.13" real="2.15"/>
   <storage units="megabyte" memory="8001.84" sf="37.01" df="307.03" eaf="1313.6" ga="0.0"/>
  </jobstep><!--
  --><jobstep command="RHF-SCF" commandset="SCFPRO">
   <!--


 PROGRAM * RHF-SCF (OPEN SHELL)       Authors: W. Meyer, H.-J. Werner


 NUMBER OF ELECTRONS:      10+    7-    SPACE SYMMETRY=1    SPIN SYMMETRY: Quartet
 CONVERGENCE THRESHOLDS:    1.00E-05 (Density)    1.00E-07 (Energy)
 MAX. NUMBER OF ITERATIONS:        0
 INTERPOLATION TYPE:            DIIS
 INTERPOLATION STEPS:              2 (START)      1 (STEP)
 LEVEL SHIFTS:                 -0.60 (CLOSED) -0.30 (OPEN)

 Number of closed-shell orbitals:    7 (   1   1   1   1   1   1   1   0 )
 Number of open-shell orbitals:      3 (   3   0   0   0   0   0   0   0 )



 Extra symmetries of mos in symmetry 1:   1   1   3   2
     Symmetry restrictions:    1             1
 Molecular orbitals read from record     5202.2  Type=MCSCF/NATURAL (state averaged)

 Molecular orbital dump at record        2101.2

 ITERATION    DDIFF          GRAD             ENERGY        2-EL.EN.            DIPOLE MOMENTS         DIIS   ORB.
    1      0.000D+00      0.000D+00       -19.65922147     53.878250    0.00000    0.00000    0.00000    0    start

 Final alpha occupancy:   4   1   1   1   1   1   1   0
 Final beta  occupancy:   1   1   1   1   1   1   1   0

 !RHF STATE 1.1 Energy                -19.659221470835
   --><property name="Energy" method="RHF" principal="true" stateSymmetry="1" stateNumber="1"
     value="-19.6592214708348"/><!--
 Nuclear energy                         0.00000000
 One-electron energy                  -46.59834636
 Two-electron energy                   26.93912489
 Virial quotient                       -0.88627648
 !RHF STATE 1.1 Dipole moment           0.00000000     0.00000000     0.00000000
 Dipole moment /Debye                   0.00000000     0.00000000     0.00000000
   --><property name="Dipole moment" method="RHF" principal="true" stateSymmetry="1"
     stateNumber="1" value="0.0 0.0 0.0"/><!--

 Orbital energies:

         1.1          2.1          3.1          4.1          5.1          6.1
      0.535541     0.625243     0.429093     0.429093     0.761480     0.761480

         1.2          2.2          3.2
      0.548638     0.778790     0.951400

         1.3          2.3          3.3
      0.548638     0.778790     0.951400

         1.4          2.4          3.4
      0.429093     0.761480     1.005154

         1.5          2.5          3.5
      0.548638     0.778790     0.951400

         1.6          2.6          3.6
      0.429093     0.761480     1.005154

         1.7          2.7          3.7
      0.429093     0.761480     1.005154

         1.8          2.8
      1.455994     2.480313

 HOMO      1.2     0.548638 =      14.9292eV
 LUMO      2.4     0.761480 =      20.7209eV
 LUMO-HOMO         0.212842 =       5.7917eV


 **********************************************************************************************************************************
 DATASETS  * FILE   NREC   LENGTH (MB)   RECORD NAMES
              1      20       26.65       500      610      700      900      950      970     1000      129      960     1100
                                          VAR    BASINP    GEOM    SYMINP    ZMAT    AOBASIS   BASIS     P2S    ABASIS      S
                                         1400     1410     1420     1200     1210     1080     1600     1650     1700     1380
                                           T        V       ECP      H0       H01     AOSYM     SMH    MOLCAS    OPER     JKOP

              2       7       11.95       200      700     1000      520     4202     5202     2101
                                        OPTIONS   GEOM     BASIS   MCVARS     RHF     MCSCF     RHF

 PROGRAMS   *        TOTAL       RHF     MULTI       POP       RHF       INT
 CPU TIMES  *        37.42      0.06      1.94      0.00      1.01     33.94
 REAL TIME  *        39.86 SEC
 DISK USED  *         1.62 GB
 SF USED    *        37.01 MB
 GA USED    *         0.00 MB       (max)       0.00 MB       (current)
 **********************************************************************************************************************************
   -->
   <time start="12:24:27" end="12:24:27" cpu="0.07" system="0.0" real="0.08"/>
   <storage units="megabyte" memory="8001.84" sf="37.01" df="307.03" eaf="1313.6" ga="0.0"/>
  </jobstep><!--
 SETTING SCF(1)         =       -19.65922147  AU
 SETTING _CC_NORM_MAX   =         2.00000000
  --><jobstep command="RCCSD(T)" commandset="CCSD">
   <!--


 PROGRAM * CCSD (Restricted open-shell coupled cluster)     Authors: C. Hampel, H.-J. Werner, 1991, M. Deegan, P.J. Knowles, 1992


 Input parameters for THRESH:

 THRDIS =    1.000000
 ONEINT =    1.00D-15
 TWOINT =    1.00D-15
 ENERGY =    1.00D-05
 COEFF  =    0.001000

 Convergence thresholds:  THRVAR = 1.00D-06  THRDEN = 1.00D-05

 CCSD(T)     terms to be evaluated (factor= 1.000)


 Number of closed-shell orbitals:   7 (   1   1   1   1   1   1   1   0 )
 Number of active  orbitals:        3 (   3   0   0   0   0   0   0   0 )
 Number of external orbitals:     249 (  73  34  34  23  34  23  23   5 )

 Memory could be reduced to 37.65 Mwords without degradation in triples

 Number of N-1 electron functions:              17
 Number of N-2 electron functions:             136
 Number of singly external CSFs:               722
 Number of doubly external CSFs:            826586
 Total number of CSFs:                      827308

 Molecular orbitals read from record     2101.2  Type=RHF/CANONICAL (state 1.1)

 Integral transformation finished. Total CPU:   0.90 sec, npass=  1  Memory used:   6.28 MW

 Starting RMP2 calculation

 Wavefunction is spin-projected

 ITER.      SQ.NORM     CORR.ENERGY   TOTAL ENERGY   ENERGY CHANGE        DEN1      VAR(S)    VAR(P)  DIIS     TIME
   1      1.13651597    -0.45399687   -20.11321834    -0.45399687    -0.00929829  0.25D-04  0.45D-02  1  1     1.38
   2      1.15193281    -0.46509698   -20.12431845    -0.01110011    -0.00039975  0.32D-05  0.38D-03  2  2     1.46
   3      1.15790626    -0.46684483   -20.12606630    -0.00174785    -0.00002308  0.24D-06  0.22D-04  3  3     1.54
   4      1.15930112    -0.46707303   -20.12629450    -0.00022820    -0.00000056  0.31D-07  0.42D-06  4  4     1.76
   5      1.15938388    -0.46708192   -20.12630339    -0.00000888    -0.00000003  0.80D-08  0.17D-07  5  5     2.20

 Norm of t1 vector:      0.02166184      S-energy:    -0.00067222      T1 diagnostic:  0.00283752
 Norm of t2 vector:      0.39864100      P-energy:    -0.46640970
                                         Alpha-Beta:  -0.31974176
                                         Alpha-Alpha: -0.11807959
                                         Beta-Beta:   -0.02858835

 Spin contamination <S**2-Sz**2-Sz>     0.00000000
  Reference energy                    -19.659221470844
   --><property name="energy" method="Reference" stateSymmetry="1" stateNumber="1"
     value="-19.6592214708444"/><!--
  RHF-RMP2 correlation energy          -0.467081918999
   --><property name="energy" method="RHF-RMP2 correlation" stateSymmetry="1" stateNumber="1"
     value="-0.467081918998653"/><!--
 !RHF-RMP2 energy                     -20.126303389843
   --><property name="energy" method="RHF-RMP2" principal="true" stateSymmetry="1"
     stateNumber="1" value="-20.126303389843"/><!--
 (NB above energy spin projected)

 Starting RCCSD calculation

 ITER.      SQ.NORM     CORR.ENERGY   TOTAL ENERGY   ENERGY CHANGE        DEN1      VAR(S)    VAR(P)  DIIS     TIME
   1      1.11326921    -0.40411855   -20.06334002    -0.40411855    -0.00619609  0.65D-03  0.32D-02  1  1     3.39
   2      1.12684952    -0.41088220   -20.07010367    -0.00676366    -0.00119895  0.21D-03  0.83D-03  2  2     4.89
   3      1.13987742    -0.41410763   -20.07332911    -0.00322543    -0.00023184  0.13D-03  0.11D-03  3  3     5.79
   4      1.14818011    -0.41541092   -20.07463239    -0.00130328    -0.00007214  0.76D-04  0.11D-04  4  4     7.02
   5      1.15310800    -0.41584869   -20.07507017    -0.00043778    -0.00003425  0.39D-04  0.40D-05  5  5     8.12
   6      1.15824408    -0.41607725   -20.07529872    -0.00022856    -0.00001328  0.14D-04  0.21D-05  6  6     9.45
   7      1.16245473    -0.41622019   -20.07544166    -0.00014294    -0.00000528  0.53D-05  0.99D-06  7  7    10.47
   8      1.16478888    -0.41628458   -20.07550606    -0.00006440    -0.00000231  0.24D-05  0.42D-06  8  8    11.03
   9      1.16617431    -0.41631940   -20.07554087    -0.00003482    -0.00000098  0.98D-06  0.20D-06  9  9    11.61
  10      1.16698418    -0.41633924   -20.07556072    -0.00001984    -0.00000036  0.33D-06  0.89D-07 10 10    13.22
  11      1.16745723    -0.41634876   -20.07557023    -0.00000951    -0.00000009  0.70D-07  0.26D-07 11 11    14.39

 Norm of t1 vector:      0.14360807      S-energy:    -0.00084421      T1 diagnostic:  0.02417885
                                                                       D1 diagnostic:  0.07683599
 Norm of t2 vector:      0.38318918      P-energy:    -0.41550455
                                         Alpha-Beta:  -0.29315395
                                         Alpha-Alpha: -0.09909411
                                         Beta-Beta:   -0.02325648

 Singles amplitudes (print threshold =  0.500E-01):

         I         SYM. A    A   T(IA) [Beta-Beta]

         1         1         1     -0.10866251

 Spin contamination <S**2-Sz**2-Sz>     0.00000000

 Memory could be reduced to 39.74 Mwords without degradation in triples


 RESULTS
 =======

  Reference energy                    -19.659221470844
   --><property name="energy" method="Reference" stateSymmetry="1" stateNumber="1"
     value="-19.6592214708444"/><!--
  RCCSD singles energy                 -0.000844209152
   --><property name="energy" method="RCCSD singles" stateSymmetry="1" stateNumber="1"
     value="-0.844209151560471E-03"/><!--
  RCCSD pair energy                    -0.415504548245
   --><property name="energy" method="RCCSD pair" stateSymmetry="1" stateNumber="1"
     value="-0.415504548245024"/><!--
  RCCSD correlation energy             -0.416348757397
   --><property name="energy" method="RCCSD correlation" stateSymmetry="1" stateNumber="1"
     value="-0.416348757396585"/><!--
  Triples (T) contribution             -0.022058040959
   --><property name="contribution" method="Triples (T)" stateSymmetry="1" stateNumber="1"
     value="-0.220580409590297E-01"/><!--
  Total correlation energy             -0.438406798356
   --><property name="energy" method="Total correlation" stateSymmetry="1" stateNumber="1"
     value="-0.438406798355615"/><!--

  RHF-RCCSD energy                    -20.075570228241
   --><property name="energy" method="RHF-RCCSD" stateSymmetry="1" stateNumber="1"
     value="-20.0755702282409"/><!--
  RHF-RCCSD[T] energy                 -20.098006864759
   --><property name="energy" method="RHF-RCCSD[T]" stateSymmetry="1" stateNumber="1"
     value="-20.0980068647588"/><!--
  RHF-RCCSD-T energy                  -20.097690770301
   --><property name="energy" method="RHF-RCCSD-T" stateSymmetry="1" stateNumber="1"
     value="-20.0976907703011"/><!--
 !RHF-RCCSD(T) energy                 -20.097628269200
   --><property name="energy" method="RHF-RCCSD(T)" principal="true" stateSymmetry="1"
     stateNumber="1" value="-20.0976282692"/><!--

 Program statistics:

 Available memory in ccsd:               999999000
 Min. memory needed in ccsd:               2578640
 Max. memory used in ccsd:                 3572008
 Max. memory used in cckext:               2756355 (11 integral passes)
 Max. memory used in cckint:               6277629 ( 1 integral passes)



 **********************************************************************************************************************************
 DATASETS  * FILE   NREC   LENGTH (MB)   RECORD NAMES
              1      20       26.65       500      610      700      900      950      970     1000      129      960     1100
                                          VAR    BASINP    GEOM    SYMINP    ZMAT    AOBASIS   BASIS     P2S    ABASIS      S
                                         1400     1410     1420     1200     1210     1080     1600     1650     1700     1380
                                           T        V       ECP      H0       H01     AOSYM     SMH    MOLCAS    OPER     JKOP

              2       7       11.95       200      700     1000      520     4202     5202     2101
                                        OPTIONS   GEOM     BASIS   MCVARS     RHF     MCSCF     RHF

 PROGRAMS   *        TOTAL  RCCSD(T)       RHF     MULTI       POP       RHF       INT
 CPU TIMES  *        61.52     24.01      0.06      1.94      0.00      1.01     33.94
 REAL TIME  *        75.46 SEC
 DISK USED  *         3.85 GB
 SF USED    *       600.41 MB
 GA USED    *         0.00 MB       (max)       0.00 MB       (current)
 **********************************************************************************************************************************
   -->
   <time start="12:24:27" end="12:25:03" cpu="24.1" system="3.33" real="35.6"/>
   <storage units="megabyte" memory="8001.84" sf="600.41" df="2534.94" eaf="1313.6"
     ga="0.0"/>
  </jobstep><!--
 SETTING CCSD(1)        =       -20.09762827  AU

 DO I                   =         2.00000000

 Running procedure=ID8P1
  --><jobstep command="RHF-SCF" commandset="SCFPRO">
   <!--


 PROGRAM * RHF-SCF (OPEN SHELL)       Authors: W. Meyer, H.-J. Werner


 NUMBER OF ELECTRONS:      10+    7-    SPACE SYMMETRY=5    SPIN SYMMETRY: Quartet
 CONVERGENCE THRESHOLDS:    1.00E-05 (Density)    1.00E-07 (Energy)
 MAX. NUMBER OF ITERATIONS:       60
 INTERPOLATION TYPE:            DIIS
 INTERPOLATION STEPS:              2 (START)      1 (STEP)
 LEVEL SHIFTS:                 -0.60 (CLOSED) -0.30 (OPEN)

 Number of closed-shell orbitals:    7 (   1   1   1   1   1   1   1   0 )
 Number of open-shell orbitals:      3 (   2   0   0   0   1   0   0   0 )



 Extra symmetries of mos in symmetry 1:   1   3   2
 Orbital guess generated from atomic densities. Full valence occupancy:    3   0   0   1   0   1   1   0


 Molecular orbital dump at record        4202.2

 ITERATION    DDIFF          GRAD             ENERGY        2-EL.EN.            DIPOLE MOMENTS         DIIS   ORB.
    1      0.000D+00      0.000D+00       -19.04118256     61.811645    0.00000    0.00000    0.00000    0    start
    2      0.000D+00      0.108D-01       -19.26299286     59.537964    0.00000    0.00000    0.00000    1    diag,B
    3      0.131D+00      0.677D-02       -19.40060141     57.360015    0.00000    0.00000    0.00000    2    diag,B
    4      0.113D+00      0.389D-02       -19.46256469     56.004413    0.00000    0.00000    0.00000    3    diag,B
    5      0.134D+00      0.261D-02       -19.50770865     54.799137    0.00000    0.00000    0.00000    4    diag,B
    6      0.432D+00      0.194D-02       -19.53708911     54.021918    0.00000    0.00000    0.00000    5    diag,B
    7      0.702D+00      0.117D-02       -19.54862919     53.547657    0.00000    0.00000    0.00000    6    fixocc
    8      0.621D+00      0.593D-03       -19.55098829     53.319428    0.00000    0.00000    0.00000    7    diag,B
    9      0.159D+00      0.293D-03       -19.55151210     53.217215    0.00000    0.00000    0.00000    8    diag,B
   10      0.185D-01      0.106D-03       -19.55156726     53.201736    0.00000    0.00000    0.00000    9    orth
   11      0.946D-02      0.476D-04       -19.55157808     53.205093    0.00000    0.00000    0.00000    9    diag,B
   12      0.221D-02      0.225D-04       -19.55158091     53.210339    0.00000    0.00000    0.00000    9    diag,B
   13      0.350D-02      0.946D-05       -19.55158149     53.210444    0.00000    0.00000    0.00000    9    diag,B
   14      0.679D-03      0.556D-05       -19.55158176     53.209827    0.00000    0.00000    0.00000    9    diag,B
   15      0.976D-03      0.238D-05       -19.55158179     53.210256    0.00000    0.00000    0.00000    9    diag,B
   16      0.876D-04      0.117D-05       -19.55158180     53.210283    0.00000    0.00000    0.00000    9    diag,B
   17      0.788D-04      0.573D-06       -19.55158180     53.210228    0.00000    0.00000    0.00000    9    diag,B
   18      0.300D-04      0.271D-06       -19.55158180     53.210225    0.00000    0.00000    0.00000    9    diag,B
   19      0.169D-04      0.132D-06       -19.55158180     53.210224    0.00000    0.00000    0.00000    9    diag,B
   20      0.670D-05      0.686D-07       -19.55158180     53.210223    0.00000    0.00000    0.00000    0    orth

 Final alpha occupancy:   3   1   1   1   2   1   1   0
 Final beta  occupancy:   1   1   1   1   1   1   1   0

 !RHF STATE 1.5 Energy                -19.551581797432
   --><property name="Energy" method="RHF" principal="true" stateSymmetry="5" stateNumber="1"
     value="-19.5515817974322"/><!--
 Nuclear energy                         0.00000000
 One-electron energy                  -46.15669305
 Two-electron energy                   26.60511125
 Virial quotient                       -0.87241738
 !RHF STATE 1.5 Dipole moment           0.00000000     0.00000000     0.00000000
 Dipole moment /Debye                   0.00000000     0.00000000     0.00000000
   --><property name="Dipole moment" method="RHF" principal="true" stateSymmetry="5"
     stateNumber="1" value="0.0 0.0 0.0"/><!--

 ELECTRON ORBITALS
 =================


   Orb  Occ    Energy  Couls-En    Coefficients

                                   1 1s      1 1s      1 1s      1 1s      1 1s      1 1s      1 1s      1 1s      1 1s      1 1s
                                   1 1s      1 1s      1 1s      1 1s      1 1s      1 1s      1 1s      1 1s      1 1s      1 1s
                                   1 1s      1 1s      1 1s      1 1s      1 1s      1 1s      1 1s      1 1s      1 1s      1 1s
                                   1 1s      1 1s      1 3d0     1 3d2+    1 3d0     1 3d2+    1 3d0     1 3d2+    1 3d0     1 3d2+
                                   1 3d0     1 3d2+    1 3d0     1 3d2+    1 3d0     1 3d2+    1 3d0     1 3d2+    1 3d0     1 3d2+
                                   1 3d0     1 3d2+    1 3d0     1 3d2+    1 3d0     1 3d2+    1 3d0     1 3d2+    1 3d0     1 3d2+
                                   1 3d0     1 3d2+    1 3d0     1 3d2+    1 3d0     1 3d2+    1 3d0     1 3d2+    1 5g0     1 5g4+
                                   1 5g2+    1 5g0     1 5g4+    1 5g2+    1 5g0     1 5g4+    1 5g2+

   1.1   2     0.5349   -0.3806 -0.000000  0.000000 -0.000000  0.000000 -0.000000  0.000000 -0.000001  0.000003 -0.000008  0.000023
                                -0.000065  0.000202 -0.000788  0.007266 -0.012990  0.011571 -0.015181  0.041775 -0.254202  2.926914
                                -4.866039  3.937301 -2.925510  1.724588 -1.471775  1.317522 -1.058331  1.590795 -2.305003  3.122692
                                -3.742540  2.762751  0.000000 -0.000000 -0.000000  0.000000  0.000002 -0.000000 -0.000009  0.000000
                                 0.000032 -0.000000 -0.000089  0.000000  0.000453 -0.000000 -0.001489  0.000000  0.020927 -0.000000
                                -0.038347  0.000000  0.035924 -0.000000 -0.040054 -0.000000  0.062500  0.000000 -0.056506 -0.000000
                                 0.014530 -0.000000 -0.018717 -0.000000  0.021665 -0.000000 -0.033367 -0.000000 -0.000029 -0.000032
                                 0.000000 -0.000114 -0.000091 -0.000000  0.000018 -0.000047  0.000000

   2.1   +     0.2114   -4.5403  0.000000 -0.000000  0.000000 -0.000000  0.000000 -0.000000  0.000000 -0.000000  0.000000 -0.000000
                                 0.000000 -0.000000  0.000000 -0.000000  0.000000 -0.000000  0.000000 -0.000000  0.000000 -0.000000
                                 0.000001 -0.000000  0.000000 -0.000000  0.000000 -0.000000  0.000000 -0.000000  0.000000 -0.000000
                                 0.000000 -0.000000  0.000000 -0.000001 -0.000000  0.000004  0.000000 -0.000024 -0.000000  0.000073
                                 0.000000 -0.000321  0.000000 -0.000265  0.000000 -0.014851 -0.000000  0.020169 -0.000000 -0.007683
                                 0.000000  0.026839 -0.000000  0.079352 -0.000000  0.288060 -0.000000 -0.051125 -0.000000  0.434702
                                -0.000000  0.264872 -0.000000  0.147149 -0.000000  0.036101  0.000000 -0.001820 -0.000000  0.000000
                                -0.001221 -0.000000  0.000000 -0.002611  0.000000  0.000000 -0.003933

   3.1   +     0.2155   -4.5019  0.000000 -0.000000  0.000000 -0.000000  0.000000 -0.000000  0.000000 -0.000000  0.000000 -0.000000
                                 0.000001 -0.000002  0.000008 -0.000069  0.000124 -0.000110  0.000145 -0.000396  0.002420 -0.027913
                                 0.046349 -0.037194  0.027031 -0.015035  0.009919 -0.003920 -0.013051 -0.014925  0.030075  0.013001
                                 0.058151 -0.025246 -0.000001 -0.000000  0.000004  0.000000 -0.000023 -0.000000  0.000071  0.000000
                                -0.000315 -0.000000 -0.000267 -0.000000 -0.014663 -0.000000  0.019853  0.000000 -0.006127 -0.000000
                                 0.023834  0.000000  0.080946  0.000000  0.282189  0.000000 -0.046000 -0.000000  0.425575  0.000000
                                 0.262477  0.000000  0.151527  0.000000  0.054349  0.000000  0.000308 -0.000000  0.000540 -0.000841
                                -0.000000  0.001478 -0.001928 -0.000000 -0.000342 -0.001766 -0.000000

   4.1   0     0.6594   -1.7361 -0.000000  0.000000 -0.000000  0.000000 -0.000000  0.000000 -0.000001  0.000002 -0.000005  0.000014
                                -0.000041  0.000128 -0.000499  0.004604 -0.008232  0.007333 -0.009615  0.026427 -0.160857  1.852302
                                -3.078182  2.484991 -1.836011  1.067241 -0.866441  0.703642 -0.293245  0.882704 -1.430914  1.329885
                                -2.543607  1.216436 -0.000000 -0.000000  0.000000  0.000000 -0.000001 -0.000000  0.000003  0.000000
                                -0.000016 -0.000000 -0.000053 -0.000000 -0.001114 -0.000000  0.001237  0.000000  0.005898 -0.000000
                                -0.009679  0.000000  0.018113  0.000000  0.011897  0.000000  0.014946 -0.000000  0.019565  0.000000
                                 0.027419  0.000000  0.001363  0.000000 -0.026395  0.000000 -0.071475  0.000000 -0.000130 -0.000207
                                -0.000000 -0.000041 -0.000340 -0.000000 -0.002881 -0.002352 -0.000000

   5.1   0     0.7580   -0.2560 -0.000000  0.000000 -0.000000  0.000000 -0.000000  0.000000 -0.000000  0.000000 -0.000000  0.000000
                                -0.000000  0.000000 -0.000000  0.000000 -0.000000  0.000000 -0.000000  0.000000 -0.000000  0.000000
                                -0.000000  0.000000 -0.000000  0.000000 -0.000000  0.000000 -0.000000  0.000000 -0.000000  0.000000
                                -0.000000  0.000000 -0.000000 -0.000001  0.000000  0.000009 -0.000000 -0.000048  0.000000  0.000202
                                -0.000000 -0.000700  0.000000  0.002291 -0.000000 -0.006690  0.000000  0.030677 -0.000000 -0.515001
                                 0.000000  0.939889 -0.000000 -0.913085  0.000000  0.907177 -0.000000 -1.551367  0.000000  1.293508
                                -0.000000 -0.476709  0.000000  0.464323 -0.000000 -0.678014  0.000000  1.332734 -0.000000  0.000000
                                 0.000052 -0.000000  0.000000  0.000164  0.000000  0.000000  0.000093

                                   1 2px     1 2px     1 2px     1 2px     1 2px     1 2px     1 2px     1 2px     1 2px     1 2px
                                   1 2px     1 2px     1 2px     1 2px     1 2px     1 2px     1 2px     1 2px     1 2px     1 2px
                                   1 2px     1 2px     1 2px     1 2px     1 2px     1 4f1+    1 4f3+    1 4f1+    1 4f3+    1 4f1+
                                   1 4f3+    1 4f1+    1 4f3+    1 4f1+    1 4f3+

   1.2   2     0.5488   -0.2219  0.000000 -0.000000  0.000000 -0.000001  0.000002 -0.000010  0.000038 -0.000130  0.000420 -0.001412
                                 0.005970 -0.077514  0.114948 -0.094058  0.379089 -0.547372  0.391131 -0.907781  1.035572 -0.430675
                                 0.239382 -0.324942  0.698590 -1.378850  1.698752 -0.000063 -0.000057  0.000900  0.000083 -0.000972
                                -0.000156  0.000638 -0.000147 -0.000783 -0.000136

   2.2   0     0.7659   -0.9442 -0.000000  0.000000 -0.000000  0.000000 -0.000002  0.000008 -0.000029  0.000100 -0.000322  0.001081
                                -0.004570  0.059318 -0.087954  0.071843 -0.288299  0.415212 -0.295951  0.684876 -0.791653  0.351043
                                -0.261940  0.365639 -0.439239  1.697528 -0.708650  0.000060  0.000218 -0.000366 -0.000653  0.000435
                                 0.000937 -0.000388  0.000603  0.000283  0.001706

   3.2   0     0.9320   -0.8943  0.000000 -0.000000  0.000000 -0.000001  0.000006 -0.000023  0.000087 -0.000295  0.000954 -0.003210
                                 0.013581 -0.176507  0.261847 -0.214732  0.869943 -1.259662  0.904870 -2.126183  2.422342 -0.990635
                                 0.464218 -0.695063  2.517483 -2.314451  0.740488 -0.000692  0.000498  0.004565 -0.001432 -0.005480
                                 0.002057  0.001567  0.001334 -0.009384  0.003690

                                   1 2py     1 2py     1 2py     1 2py     1 2py     1 2py     1 2py     1 2py     1 2py     1 2py
                                   1 2py     1 2py     1 2py     1 2py     1 2py     1 2py     1 2py     1 2py     1 2py     1 2py
                                   1 2py     1 2py     1 2py     1 2py     1 2py     1 4f1-    1 4f3-    1 4f1-    1 4f3-    1 4f1-
                                   1 4f3-    1 4f1-    1 4f3-    1 4f1-    1 4f3-

   1.3   2     0.5488   -0.2219  0.000000 -0.000000  0.000000 -0.000001  0.000002 -0.000010  0.000038 -0.000130  0.000420 -0.001412
                                 0.005970 -0.077514  0.114948 -0.094058  0.379089 -0.547372  0.391131 -0.907781  1.035572 -0.430675
                                 0.239382 -0.324942  0.698590 -1.378850  1.698752 -0.000063  0.000057  0.000900 -0.000083 -0.000972
                                 0.000156  0.000638  0.000147 -0.000783  0.000136

   2.3   0     0.7659   -0.9442 -0.000000  0.000000 -0.000000  0.000000 -0.000002  0.000008 -0.000029  0.000100 -0.000322  0.001081
                                -0.004570  0.059318 -0.087954  0.071843 -0.288299  0.415212 -0.295951  0.684876 -0.791653  0.351043
                                -0.261940  0.365639 -0.439239  1.697528 -0.708650  0.000060 -0.000218 -0.000366  0.000653  0.000435
                                -0.000937 -0.000388 -0.000603  0.000283 -0.001706

   3.3   0     0.9320   -0.8943  0.000000 -0.000000  0.000000 -0.000001  0.000006 -0.000023  0.000087 -0.000295  0.000954 -0.003210
                                 0.013581 -0.176507  0.261847 -0.214732  0.869943 -1.259662  0.904870 -2.126183  2.422342 -0.990635
                                 0.464218 -0.695063  2.517483 -2.314451  0.740488 -0.000692 -0.000498  0.004565  0.001432 -0.005480
                                -0.002057  0.001567 -0.001334 -0.009384 -0.003690

                                   1 3d2-    1 3d2-    1 3d2-    1 3d2-    1 3d2-    1 3d2-    1 3d2-    1 3d2-    1 3d2-    1 3d2-
                                   1 3d2-    1 3d2-    1 3d2-    1 3d2-    1 3d2-    1 3d2-    1 3d2-    1 3d2-    1 5g2-    1 5g4-
                                   1 5g2-    1 5g4-    1 5g2-    1 5g4-

   1.4   2     0.2716   -4.4398 -0.000001  0.000004 -0.000023  0.000072 -0.000318 -0.000257 -0.014671  0.020007 -0.009894  0.031690
                                 0.073787  0.286901 -0.061004  0.433538  0.263239  0.165186  0.046656 -0.001361 -0.000024 -0.000000
                                 0.000182 -0.000000 -0.001684 -0.000000

   2.4   0     0.7583   -0.2558 -0.000001  0.000009 -0.000048  0.000202 -0.000700  0.002298 -0.006626  0.030643 -0.516171  0.941893
                                -0.915565  0.907624 -1.554265  1.293878 -0.479412  0.463391 -0.682047  1.334515  0.000030  0.000000
                                 0.000085  0.000000  0.000104  0.000000

   3.4   0     0.9875   -0.6040  0.000002 -0.000018  0.000095 -0.000388  0.001372 -0.004026  0.017296 -0.062666  0.939738 -1.721894
                                 1.637361 -1.764729  2.892602 -2.567397  0.834893 -1.012008  1.890930 -0.801177  0.000060 -0.000000
                                 0.000691  0.000000 -0.000254 -0.000000

                                   1 2pz     1 2pz     1 2pz     1 2pz     1 2pz     1 2pz     1 2pz     1 2pz     1 2pz     1 2pz
                                   1 2pz     1 2pz     1 2pz     1 2pz     1 2pz     1 2pz     1 2pz     1 2pz     1 2pz     1 2pz
                                   1 2pz     1 2pz     1 2pz     1 2pz     1 2pz     1 4f0     1 4f2+    1 4f0     1 4f2+    1 4f0
                                   1 4f2+    1 4f0     1 4f2+    1 4f0     1 4f2+

   1.5   2     0.5532   -0.2072  0.000000 -0.000000  0.000000 -0.000001  0.000003 -0.000011  0.000041 -0.000137  0.000444 -0.001491
                                 0.006305 -0.081854  0.121383 -0.099316  0.400209 -0.577812  0.412796 -0.957628  1.092402 -0.454445
                                 0.253381 -0.342438  0.730074 -1.443847  1.723723 -0.000170 -0.000000  0.001114  0.000000 -0.001325
                                -0.000000  0.000420  0.000000 -0.001039 -0.000000

   2.5   +     0.6040   -1.3899 -0.000000  0.000000 -0.000000  0.000000 -0.000001  0.000003 -0.000011  0.000038 -0.000123  0.000412
                                -0.001740  0.022552 -0.033420  0.027146 -0.107415  0.153415 -0.108181  0.244992 -0.291728  0.148352
                                -0.173214  0.253970  0.061514  1.169383 -0.501853  0.000764  0.000000 -0.002359 -0.000000  0.003321
                                 0.000000  0.001624  0.000000  0.005216  0.000000

   3.5   0     0.9170   -0.6721  0.000000 -0.000000  0.000000 -0.000001  0.000006 -0.000024  0.000089 -0.000301  0.000973 -0.003272
                                 0.013839 -0.179838  0.266775 -0.218713  0.885513 -1.281787  0.920187 -2.159646  2.461187 -1.009180
                                 0.481035 -0.691735  2.486017 -2.567427  0.840448  0.000260  0.000000  0.001888 -0.000000 -0.001622
                                 0.000000  0.004332  0.000000 -0.002596  0.000000

   4.5   0     1.4149   -0.5592 -0.000000  0.000000 -0.000000  0.000002 -0.000010  0.000043 -0.000161  0.000544 -0.001758  0.005912
                                -0.025014  0.325291 -0.482670  0.395622 -1.600302  2.314362 -1.664038  3.924000 -4.539071  1.991674
                                -1.407815  2.368269 -2.199083  1.103176 -0.317439  0.071595  0.000000 -0.493570 -0.000001  0.588146
                                 0.000001 -0.233728 -0.000000  0.852567  0.000001

                                   1 3d1+    1 3d1+    1 3d1+    1 3d1+    1 3d1+    1 3d1+    1 3d1+    1 3d1+    1 3d1+    1 3d1+
[...]
                                -0.891031  0.878611 -1.509182  1.251219 -0.468223  0.447885 -0.642311  1.316778  0.000002 -0.000027
                                -0.000015 -0.000086  0.000168 -0.000006

   3.6   0     0.9829   -0.6088  0.000002 -0.000018  0.000096 -0.000392  0.001387 -0.004066  0.017551 -0.063411  0.949139 -1.738989
                                 1.652390 -1.782007  2.915416 -2.588241  0.835286 -1.003723  1.894806 -0.828667 -0.000084 -0.000101
                                 0.000260 -0.000387 -0.000007  0.000132

                                   1 3d1-    1 3d1-    1 3d1-    1 3d1-    1 3d1-    1 3d1-    1 3d1-    1 3d1-    1 3d1-    1 3d1-
                                   1 3d1-    1 3d1-    1 3d1-    1 3d1-    1 3d1-    1 3d1-    1 3d1-    1 3d1-    1 5g1-    1 5g3-
                                   1 5g1-    1 5g3-    1 5g1-    1 5g3-

   1.7   2     0.2770   -4.4321 -0.000001  0.000004 -0.000023  0.000072 -0.000317 -0.000263 -0.014668  0.019961 -0.008905  0.029897
                                 0.075783  0.285127 -0.057242  0.430321  0.262721  0.163318  0.051938 -0.000512 -0.000314  0.000145
                                 0.000083  0.000080 -0.003289  0.000474

   2.7   0     0.7607   -0.2671 -0.000001  0.000009 -0.000047  0.000195 -0.000677  0.002239 -0.006265  0.029556 -0.501764  0.915375
                                -0.891031  0.878611 -1.509182  1.251219 -0.468223  0.447885 -0.642311  1.316778  0.000002  0.000027
                                -0.000015  0.000086  0.000168  0.000006

   3.7   0     0.9829   -0.6088  0.000002 -0.000018  0.000096 -0.000392  0.001387 -0.004066  0.017551 -0.063411  0.949139 -1.738989
                                 1.652390 -1.782007  2.915416 -2.588241  0.835286 -1.003723  1.894806 -0.828667 -0.000084  0.000101
                                 0.000260  0.000387 -0.000007 -0.000132

                                   1 4f2-    1 4f2-    1 4f2-    1 4f2-    1 4f2-

   1.8   0     1.4210   -0.5797  0.092642 -0.650407  0.773203 -0.320413  1.136965

   2.8   0     2.4217    0.1805  0.031716  1.075525 -1.130221  1.460946 -0.812226

 HOMO      2.5     0.604032 =      16.4365eV
 LUMO      4.1     0.659429 =      17.9440eV
 LUMO-HOMO         0.055398 =       1.5074eV


 **********************************************************************************************************************************
 DATASETS  * FILE   NREC   LENGTH (MB)   RECORD NAMES
              1      20       26.65       500      610      700      900      950      970     1000      129      960     1100
                                          VAR    BASINP    GEOM    SYMINP    ZMAT    AOBASIS   BASIS     P2S    ABASIS      S
                                         1400     1410     1420     1200     1210     1080     1600     1650     1700     1380
                                           T        V       ECP      H0       H01     AOSYM     SMH    MOLCAS    OPER     JKOP

              2       7       11.95       200      700     1000      520     4202     5202     2101
                                        OPTIONS   GEOM     BASIS   MCVARS     RHF     MCSCF     RHF

 PROGRAMS   *        TOTAL       RHF  RCCSD(T)       RHF     MULTI       POP       RHF       INT
 CPU TIMES  *        62.98      1.39     24.01      0.06      1.94      0.00      1.01     33.94
 REAL TIME  *        77.49 SEC
 DISK USED  *         3.85 GB
 SF USED    *       600.41 MB
 GA USED    *         0.00 MB       (max)       0.00 MB       (current)
 **********************************************************************************************************************************
   -->
   <time start="12:25:03" end="12:25:05" cpu="1.46" system="0.2" real="2.03"/>
   <storage units="megabyte" memory="8001.84" sf="600.41" df="2534.94" eaf="1313.6"
     ga="0.0"/>
  </jobstep><!--
  --><jobstep command="POP" commandset="POP">
   <!--


 PROGRAM * POP (Mulliken population analysis)


 Density matrix read from record         4202.2  Type=RHF/CHARGE (state 1.5)

 Population analysis by basis function type

 Unique atom        s        p        d        f        g    Total    Charge
   1  RH      2.00243  6.99995  7.99746  0.00005  0.00011 17.00000  - 8.00000


 **********************************************************************************************************************************
 DATASETS  * FILE   NREC   LENGTH (MB)   RECORD NAMES
              1      20       26.65       500      610      700      900      950      970     1000      129      960     1100
                                          VAR    BASINP    GEOM    SYMINP    ZMAT    AOBASIS   BASIS     P2S    ABASIS      S
                                         1400     1410     1420     1200     1210     1080     1600     1650     1700     1380
                                           T        V       ECP      H0       H01     AOSYM     SMH    MOLCAS    OPER     JKOP

              2       7       11.95       200      700     1000      520     4202     5202     2101
                                        OPTIONS   GEOM     BASIS   MCVARS     RHF     MCSCF     RHF

 PROGRAMS   *        TOTAL       POP       RHF  RCCSD(T)       RHF     MULTI       POP       RHF       INT
 CPU TIMES  *        62.99      0.01      1.39     24.01      0.06      1.94      0.00      1.01     33.94
 REAL TIME  *        77.50 SEC
 DISK USED  *         3.85 GB
 SF USED    *       600.41 MB
 GA USED    *         0.00 MB       (max)       0.00 MB       (current)
 **********************************************************************************************************************************
   -->
   <time start="12:25:05" end="12:25:05" cpu="0.01" system="0.0" real="0.01"/>
   <storage units="megabyte" memory="8001.84" sf="600.41" df="2534.94" eaf="1313.6"
     ga="0.0"/>
  </jobstep><!--
  --><jobstep command="MULTI" commandset="MULTI">
   <!--


 PROGRAM * MULTI (Direct Multiconfiguration SCF)       Authors: P.J. Knowles, H.-J. Werner (1984)     S.T. Elbert (1988)


 Number of closed-shell orbitals:   4 (   1   1   1   0   1   0   0   0 )
 Number of active  orbitals:        8 (   2   1   1   1   1   1   1   0 )
 Number of external orbitals:     247 (  74  33  33  23  33  23  23   5 )

 State symmetry 1

 Number of electrons:     9    Spin symmetry=Quartet   Space symmetry=3
 Number of states:        1
 Number of CSFs:        168   (196 determinants, 1568 intermediate states)

 State symmetry 2

 Number of electrons:     9    Spin symmetry=Quartet   Space symmetry=2
 Number of states:        1
 Number of CSFs:        168   (196 determinants, 1568 intermediate states)

 State symmetry 3

 Number of electrons:     9    Spin symmetry=Quartet   Space symmetry=8
 Number of states:        1
 Number of CSFs:        176   (202 determinants, 1568 intermediate states)

 Molecular orbitals read from record     4202.2  Type=RHF/CANONICAL (state 1.5)
 *** IN SYMMETRY 1 ORBITAL  1 SYMMETRY CONTAMINATION OF 0.100D-01 HAS BEEN REMOVED
 *** IN SYMMETRY 1 ORBITAL  2 SYMMETRY CONTAMINATION OF 0.562D-02 HAS BEEN REMOVED
 *** IN SYMMETRY 1 ORBITAL  3 SYMMETRY CONTAMINATION OF 0.195D+00 HAS BEEN REMOVED

 EXTRA SYMMETRY OF MOS IN SYMMETRY 1:   1 3 2 1 3 2 1 2 3 1   3 2 1 3 2 5 6 4 1 3   2 5 4 6 3 2 1 1 4 6   3 2 1 3 2 1 3 2 1 3
                                        2 1 1 3 2 1 3 2 1 1   3 2 1 3 2 1 1 3 2 1   1 3 2 1 1 3 2 1 1 1   1 1 1 1 1 1 5
 *** IN SYMMETRY 2 ORBITAL  1 SYMMETRY CONTAMINATION OF 0.472D-03 HAS BEEN REMOVED
 *** IN SYMMETRY 2 ORBITAL  2 SYMMETRY CONTAMINATION OF 0.865D-03 HAS BEEN REMOVED
 EXTRA SYMMETRY OF MOS IN SYMMETRY 2:   1 1 1 1 1 1 3 2 1 3   2 1 3 2 1 3 2 1 1 1   1 1 1 1 1 1 1 1 1 1   1 1 1 2 3
 *** IN SYMMETRY 3 ORBITAL  1 SYMMETRY CONTAMINATION OF 0.472D-03 HAS BEEN REMOVED
 *** IN SYMMETRY 3 ORBITAL  2 SYMMETRY CONTAMINATION OF 0.865D-03 HAS BEEN REMOVED
 EXTRA SYMMETRY OF MOS IN SYMMETRY 3:   1 1 1 1 1 1 3 2 1 3   2 1 3 2 1 3 2 1 1 1   1 1 1 1 1 1 1 1 1 1   1 1 1 2 3
 *** IN SYMMETRY 4 ORBITAL  1 SYMMETRY CONTAMINATION OF 0.134D-02 HAS BEEN REMOVED
 EXTRA SYMMETRY OF MOS IN SYMMETRY 4:   1 1 1 1 1 3 2 1 3 2   1 3 2 1 1 1 1 1 1 1   1 1 1 1
 *** IN SYMMETRY 5 ORBITAL  1 SYMMETRY CONTAMINATION OF 0.467D-03 HAS BEEN REMOVED
 *** IN SYMMETRY 5 ORBITAL  2 SYMMETRY CONTAMINATION OF 0.401D-02 HAS BEEN REMOVED
 EXTRA SYMMETRY OF MOS IN SYMMETRY 5:   1 1 1 1 3 1 2 3 1 2   3 1 2 3 1 2 3 1 1 1   1 1 1 1 1 1 1 1 1 1   1 1 1 1 2
 *** IN SYMMETRY 6 ORBITAL  1 SYMMETRY CONTAMINATION OF 0.312D-02 HAS BEEN REMOVED
 EXTRA SYMMETRY OF MOS IN SYMMETRY 6:   1 1 1 1 1 2 3 1 2 3   1 2 3 1 1 1 1 1 1 1   1 1 1 1
 *** IN SYMMETRY 7 ORBITAL  1 SYMMETRY CONTAMINATION OF 0.312D-02 HAS BEEN REMOVED
 EXTRA SYMMETRY OF MOS IN SYMMETRY 7:   1 1 1 1 1 2 3 1 2 3   1 2 3 1 1 1 1 1 1 1   1 1 1 1

 Wavefunction dump at record             5202.2

 Convergence thresholds  0.10E-01 (gradient)  0.10E-05 (energy)  0.10E-02 (step length)

 Weight factors for state symmetry  1:    0.33333
 Weight factors for state symmetry  2:    0.33333
 Weight factors for state symmetry  3:    0.33333

 Number of orbital rotations:      494   (     5 Core/Active    173 Core/Virtual   0 Active/Active    316 Active/Virtual)
 Total number of variables:       1088


 ITER. MIC  NCI  NEG     ENERGY(VAR)     ENERGY(PROJ)   ENERGY CHANGE     GRAD(0)  GRAD(ORB)   GRAD(CI)     STEP       TIME

   1   55   24    0     -19.55292878     -19.58253452   -0.02960575    0.06994174 0.00005388 0.00000000  0.13D+01      0.66
   2   26   24    0     -19.58182499     -19.58209438   -0.00026939    5.78760922 0.00003850 0.00000000  0.10D+00      1.19
   3   27   24    0     -19.58209501     -19.58209502   -0.00000002    0.00007404 0.00000004 0.00000000  0.30D-03      1.68

 ** WVFN ****  CONVERGENCE REACHED, FINAL GRADIENT:  0.51D-07



 Results for state 1.3
 =====================

 !MCSCF STATE 1.3 Energy              -19.581484899552
   --><property name="Energy" method="MCSCF" principal="true" stateSymmetry="3" stateNumber="1"
     value="-19.5814848995519"/><!--
 Nuclear energy                         0.00000000
 Kinetic energy                        22.37305698
 One electron energy                  -46.14581032
 Two electron energy                   26.56432542
 Virial ratio                           1.87522617

 !MCSCF STATE 1.3 Dipole moment         0.00000000     0.00000000     0.00000000
 Dipole moment /Debye                   0.00000000     0.00000000     0.00000000
   --><property name="Dipole moment" method="MCSCF" principal="true" stateSymmetry="3"
     stateNumber="1" value="0.0 0.0 0.0"/><!--



 Results for state 1.2
 =====================

 !MCSCF STATE 1.2 Energy              -19.581484899552
   --><property name="Energy" method="MCSCF" principal="true" stateSymmetry="2" stateNumber="1"
     value="-19.5814848995519"/><!--
 Nuclear energy                         0.00000000
 Kinetic energy                        22.37305698
 One electron energy                  -46.14581032
 Two electron energy                   26.56432542
 Virial ratio                           1.87522617

 !MCSCF STATE 1.2 Dipole moment         0.00000000     0.00000000     0.00000000
 Dipole moment /Debye                   0.00000000     0.00000000     0.00000000
   --><property name="Dipole moment" method="MCSCF" principal="true" stateSymmetry="2"
     stateNumber="1" value="0.0 0.0 0.0"/><!--



 Results for state 1.8
 =====================

 !MCSCF STATE 1.8 Energy              -19.583315272641
   --><property name="Energy" method="MCSCF" principal="true" stateSymmetry="8" stateNumber="1"
     value="-19.5833152726415"/><!--
 Nuclear energy                         0.00000000
 Kinetic energy                        22.35831686
 One electron energy                  -46.13789140
 Two electron energy                   26.55457612
 Virial ratio                           1.87588504

 !MCSCF STATE 1.8 Dipole moment         0.00000000     0.00000000     0.00000000
 Dipole moment /Debye                   0.00000000     0.00000000     0.00000000
   --><property name="Dipole moment" method="MCSCF" principal="true" stateSymmetry="8"
     stateNumber="1" value="0.0 0.0 0.0"/><!--

 State-averaged charge density matrix saved on record  5202.2 (density set 1)


 EXTRA SYMMETRY OF MOS IN SYMMETRY 1:   1 3 2 1 3 2 1 3 2 1   3 2 1 3 2 5 6 4 1 3   2 4 6 5 2 3 1 4 6 5   2 3 1 2 3 1 2 3 1 2
                                        3 1 1 2 3 1 2 3 1 1   2 3 1 2 3 1 1 2 3 1   1 2 3 1 1 2 3 1 1 1   1 1 1 1 1 1 1
 EXTRA SYMMETRY OF MOS IN SYMMETRY 2:   1 1 1 1 3 2 1 3 2 2   3 1 2 3 1 2 3 1 1 1   1 1 1 1 1 1 1 1 1 1   1 1 1 1 1
 EXTRA SYMMETRY OF MOS IN SYMMETRY 3:   1 1 1 1 3 2 1 3 2 2   3 1 2 3 1 2 3 1 1 1   1 1 1 1 1 1 1 1 1 1   1 1 1 1 1
 EXTRA SYMMETRY OF MOS IN SYMMETRY 4:   1 1 1 1 1 3 2 1 2 3   1 2 3 1 1 1 1 1 1 1   1 1 1 1
 EXTRA SYMMETRY OF MOS IN SYMMETRY 5:   1 1 1 3 2 1 2 3 1 2   3 1 2 3 1 2 3 1 1 1   1 1 1 1 1 1 1 1 1 1   1 1 1 1 1
 EXTRA SYMMETRY OF MOS IN SYMMETRY 6:   1 1 1 1 1 3 2 1 2 3   1 2 3 1 1 1 1 1 1 1   1 1 1 1
 EXTRA SYMMETRY OF MOS IN SYMMETRY 7:   1 1 1 1 1 3 2 1 2 3   1 2 3 1 1 1 1 1 1 1   1 1 1 1

 Natural orbital dump (state averaged) at molpro section  5202.2    (Orbital set 2)



 **********************************************************************************************************************************
 DATASETS  * FILE   NREC   LENGTH (MB)   RECORD NAMES
              1      20       28.98       500      610      700      900      950      970     1000      129      960     1100
                                          VAR    BASINP    GEOM    SYMINP    ZMAT    AOBASIS   BASIS     P2S    ABASIS      S
                                         1400     1410     1420     1200     1210     1080     1600     1650     1700     1380
                                           T        V       ECP      H0       H01     AOSYM     SMH    MOLCAS    OPER     JKOP

              2       7       11.95       200      700     1000      520     4202     5202     2101
                                        OPTIONS   GEOM     BASIS   MCVARS     RHF     MCSCF     RHF

 PROGRAMS   *        TOTAL     MULTI       POP       RHF  RCCSD(T)       RHF     MULTI       POP       RHF       INT
 CPU TIMES  *        65.12      2.12      0.01      1.39     24.01      0.06      1.94      0.00      1.01     33.94
 REAL TIME  *        79.84 SEC
 DISK USED  *         3.85 GB
 SF USED    *       600.41 MB
 GA USED    *         0.00 MB       (max)       0.00 MB       (current)
 **********************************************************************************************************************************
   -->
   <time start="12:25:05" end="12:25:07" cpu="2.13" system="0.16" real="2.34"/>
   <storage units="megabyte" memory="8001.84" sf="600.41" df="2534.94" eaf="1313.6"
     ga="0.0"/>
  </jobstep><!--
  --><jobstep command="RHF-SCF" commandset="SCFPRO">
   <!--


 PROGRAM * RHF-SCF (OPEN SHELL)       Authors: W. Meyer, H.-J. Werner


 NUMBER OF ELECTRONS:      10+    7-    SPACE SYMMETRY=5    SPIN SYMMETRY: Quartet
 CONVERGENCE THRESHOLDS:    1.00E-05 (Density)    1.00E-07 (Energy)
 MAX. NUMBER OF ITERATIONS:        0
 INTERPOLATION TYPE:            DIIS
 INTERPOLATION STEPS:              2 (START)      1 (STEP)
 LEVEL SHIFTS:                 -0.60 (CLOSED) -0.30 (OPEN)

 Number of closed-shell orbitals:    7 (   1   1   1   1   1   1   1   0 )
 Number of open-shell orbitals:      3 (   2   0   0   0   1   0   0   0 )



 Extra symmetries of mos in symmetry 1:   1   3   2
 Molecular orbitals read from record     5202.2  Type=MCSCF/NATURAL (state averaged)

 Molecular orbital dump at record        2103.2

 ITERATION    DDIFF          GRAD             ENERGY        2-EL.EN.            DIPOLE MOMENTS         DIIS   ORB.
    1      0.000D+00      0.000D+00       -19.54955747     53.293858    0.00000    0.00000    0.00000    0    start

 Final alpha occupancy:   3   1   1   1   2   1   1   0
 Final beta  occupancy:   1   1   1   1   1   1   1   0

 !RHF STATE 1.5 Energy                -19.549557472016
   --><property name="Energy" method="RHF" principal="true" stateSymmetry="5" stateNumber="1"
     value="-19.5495574720157"/><!--
 Nuclear energy                         0.00000000
 One-electron energy                  -46.19648645
 Two-electron energy                   26.64692898
 Virial quotient                       -0.87109405
 !RHF STATE 1.5 Dipole moment           0.00000000     0.00000000     0.00000000
 Dipole moment /Debye                   0.00000000     0.00000000     0.00000000
   --><property name="Dipole moment" method="RHF" principal="true" stateSymmetry="5"
     stateNumber="1" value="0.0 0.0 0.0"/><!--

 Orbital energies:

         1.1          2.1          3.1          4.1          5.1
      0.535029     0.334883     0.372608     0.691127     0.759029

         1.2          2.2          3.2
      0.548888     1.843418     0.813592

         1.3          2.3          3.3
      0.548888     1.843418     0.813592

         1.4          2.4          3.4
      0.334883     0.759029     0.993489

         1.5          2.5          3.5          4.5
      0.552853     0.712270     0.935459     1.432422

         1.6          2.6          3.6
      0.447151     0.763772     0.997763

         1.7          2.7          3.7
      0.447151     0.763772     0.997763

         1.8          2.8
      1.432422     2.442353

 HOMO      2.5     0.712270 =      19.3819eV
 LUMO      4.1     0.691127 =      18.8065eV
 LUMO-HOMO        -0.021143 =      -0.5753eV


 **********************************************************************************************************************************
 DATASETS  * FILE   NREC   LENGTH (MB)   RECORD NAMES
              1      20       28.98       500      610      700      900      950      970     1000      129      960     1100
                                          VAR    BASINP    GEOM    SYMINP    ZMAT    AOBASIS   BASIS     P2S    ABASIS      S
                                         1400     1410     1420     1200     1210     1080     1600     1650     1700     1380
                                           T        V       ECP      H0       H01     AOSYM     SMH    MOLCAS    OPER     JKOP

              2       8       14.91       200      700     1000      520     4202     5202     2101     2103
                                        OPTIONS   GEOM     BASIS   MCVARS     RHF     MCSCF     RHF      RHF

 PROGRAMS   *        TOTAL       RHF     MULTI       POP       RHF  RCCSD(T)       RHF     MULTI       POP       RHF       INT
 CPU TIMES  *        65.19      0.06      2.12      0.01      1.39     24.01      0.06      1.94      0.00      1.01     33.94
 REAL TIME  *        79.93 SEC
 DISK USED  *         3.85 GB
 SF USED    *       600.41 MB
 GA USED    *         0.00 MB       (max)       0.00 MB       (current)
 **********************************************************************************************************************************
   -->
   <time start="12:25:07" end="12:25:07" cpu="0.07" system="0.0" real="0.09"/>
   <storage units="megabyte" memory="8001.84" sf="600.41" df="2534.94" eaf="1313.6"
     ga="0.0"/>
  </jobstep><!--
 SETTING SCF(2)         =       -19.54955747  AU
 SETTING _CC_NORM_MAX   =         2.00000000
  --><jobstep command="RCCSD(T)" commandset="CCSD">
   <!--


 PROGRAM * CCSD (Restricted open-shell coupled cluster)     Authors: C. Hampel, H.-J. Werner, 1991, M. Deegan, P.J. Knowles, 1992


 Input parameters for THRESH:

 THRDIS =    1.000000
 ONEINT =    1.00D-15
 TWOINT =    1.00D-15
 ENERGY =    1.00D-05
 COEFF  =    0.001000

 Convergence thresholds:  THRVAR = 1.00D-06  THRDEN = 1.00D-05

 CCSD(T)     terms to be evaluated (factor= 1.000)


 Number of closed-shell orbitals:   7 (   1   1   1   1   1   1   1   0 )
 Number of active  orbitals:        3 (   2   0   0   0   1   0   0   0 )
 Number of external orbitals:     249 (  74  34  34  23  33  23  23   5 )
