
 Primary working directories    : /global/cscratch1/sd/haihan
 Secondary working directories  : /global/cscratch1/sd/haihan
 Wavefunction directory         : /global/homes/h/haihan/Research/ECP/f_group_element_ecps/Gd/Molpro/atom/AE/dkh/wfu/
 Main file repository           : /global/cscratch1/sd/haihan/

 SHA1      : 19cd028119e0e09f93f0674bd8af7968d9b3eff6
 NAME      : 2015.1.36
 ARCHNAME  : linux/x86_64
 FC        : /opt/cray/pe/craype/2.5.14/bin/ftn
 BLASLIB   : -L/opt/intel/compilers_and_libraries_2018.1.163/linux/mkl/lib/intel64 -Wl,-_start-group -lmkl_intel_ilp64 -lmkl_intel_thread -lmkl_core -Wl,-_end-group -liomp5
 id        : lbl

 Nodes     nprocs
 nid12975     5
 Number of processes for MPI-2 version of Molpro:   nprocs(total)=    6   nprocs(compute)=    5   nprocs(helper)=    1

 Using customized tuning parameters: mindgm=7; mindgv=16; mindgc=1; mindgr=1; noblas=0; minvec=7
 default implementation of scratch files=sf  

 ***,Calculation for Gd atom, singlet and triplet
 memory,2,g
 
 gthresh,twoint=1.e-15
 gthresh,oneint=1.e-15
 
 set,dkroll=1,dkho=10,dkhp=4
 
 geometry={
 1
 Gd
 Gd  0.0 0.0 0.0
 }
 
 basis={
 Including file /global/u2/h/haihan/Research/ECP/f_group_element_ecps/Gd/Molpro/atom/AE/dkh/11/../aug-cc-pwCVTZ.basis
 }
 
 
 
 Including file /global/u2/h/haihan/Research/ECP/f_group_element_ecps/Gd/Molpro/atom/AE/dkh/11/../Gd_states_ae.proc
 
 
 do i=11,11
     if (i.eq.1) then
         Id1f7s2
     else if (i.eq.2) then
         Id2f7s1
     else if (i.eq.3) then
 Ip1f7s2
     else if (i.eq.4) then
         EAd2f7s2
     else if (i.eq.5) then
         IId1f7s1
     else if (i.eq.6) then
         IIdf7s2
     else if (i.eq.7) then
         IIId1f7
     else if (i.eq.8) then
 IIIp1f7
     else if (i.eq.9) then
         IVdf7
     else if (i.eq.10) then
         Vdf6
     else if (i.eq.11) then
         VIdf5
     else if (i.eq.12) then
         VIIdf4
     endif
     scf(i)=energy
     _CC_NORM_MAX=2.0
     {rccsd(t),shifts=0.5,shiftp=0.5,thrdis=1.0;diis,1,1,15,1;maxit,100;core}
     ccsd(i)=energy
 enddo
 
 table,scf,ccsd
 type,csv
 save

 Variables initialized (889), CPU time= 0.01 sec
 Commands  initialized (702), CPU time= 0.00 sec, 572 directives.
 Default parameters read. Elapsed time= 0.10 sec

 Checking input...
 Passed
1


                                         ***  PROGRAM SYSTEM MOLPRO  ***
                                       Copyright, TTI GmbH Stuttgart, 2015
                                    Version 2015.1 linked Dec 29 2018 15:55:43


 **********************************************************************************************************************************
 LABEL *   Calculation for Gd atom, singlet and triplet                                  
  64 bit mpp version                                                                     DATE: 12-Nov-22          TIME: 11:17:14  
 **********************************************************************************************************************************

 SHA1:             19cd028119e0e09f93f0674bd8af7968d9b3eff6
 **********************************************************************************************************************************

 THRESHOLDS:

 ZERO    =  1.00D-12  ONEINT  =  1.00D-12  TWOINT  =  1.00D-15  PREFAC  =  1.00D-14  LOCALI  =  1.00D-09  EORDER  =  1.00D-04
 ENERGY  =  0.00D+00  ETEST   =  0.00D+00  EDENS   =  0.00D+00  THRDEDEF=  1.00D-06  GRADIENT=  1.00D-02  STEP    =  1.00D-03
 ORBITAL =  1.00D-05  CIVEC   =  1.00D-05  COEFF   =  1.00D-04  PRINTCI =  5.00D-02  PUNCHCI =  9.90D+01  OPTGRAD =  3.00D-04
 OPTENERG=  1.00D-06  OPTSTEP =  3.00D-04  THRGRAD =  1.00D-10  COMPRESS=  1.00D-11  VARMIN  =  1.00D-07  VARMAX  =  1.00D-03
 THRDOUB =  0.00D+00  THRDIV  =  1.00D-05  THRRED  =  1.00D-07  THRPSP  =  1.00D+00  THRDC   =  1.00D-10  THRCS   =  1.00D-10
 THRNRM  =  1.00D-08  THREQ   =  0.00D+00  THRDE   =  1.00D+00  THRREF  =  1.00D-05  SPARFAC =  1.00D+00  THRDLP  =  1.00D-07
 THRDIA  =  1.00D-10  THRDLS  =  1.00D-07  THRGPS  =  0.00D+00  THRKEX  =  0.00D+00  THRDIS  =  2.00D-01  THRVAR  =  1.00D-10
 THRLOC  =  1.00D-06  THRGAP  =  1.00D-06  THRLOCT = -1.00D+00  THRGAPT = -1.00D+00  THRORB  =  1.00D-06  THRMLTP =  0.00D+00
 THRCPQCI=  1.00D-10  KEXTA   =  0.00D+00  THRCOARS=  0.00D+00  SYMTOL  =  1.00D-06  GRADTOL =  1.00D-06  THROVL  =  1.00D-08
 THRORTH =  1.00D-08  GRID    =  1.00D-06  GRIDMAX =  1.00D-03  DTMAX   =  0.00D+00  THROCCDE=  1.00D-01  THROCCDE=  1.00D-01



 THRESHOLDS:

 ZERO    =  1.00D-12  ONEINT  =  1.00D-15  TWOINT  =  1.00D-15  PREFAC  =  1.00D-14  LOCALI  =  1.00D-09  EORDER  =  1.00D-04
 ENERGY  =  0.00D+00  ETEST   =  0.00D+00  EDENS   =  0.00D+00  THRDEDEF=  1.00D-06  GRADIENT=  1.00D-02  STEP    =  1.00D-03
 ORBITAL =  1.00D-05  CIVEC   =  1.00D-05  COEFF   =  1.00D-04  PRINTCI =  5.00D-02  PUNCHCI =  9.90D+01  OPTGRAD =  3.00D-04
 OPTENERG=  1.00D-06  OPTSTEP =  3.00D-04  THRGRAD =  1.00D-10  COMPRESS=  1.00D-11  VARMIN  =  1.00D-07  VARMAX  =  1.00D-03
 THRDOUB =  0.00D+00  THRDIV  =  1.00D-05  THRRED  =  1.00D-07  THRPSP  =  1.00D+00  THRDC   =  1.00D-10  THRCS   =  1.00D-10
 THRNRM  =  1.00D-08  THREQ   =  0.00D+00  THRDE   =  1.00D+00  THRREF  =  1.00D-05  SPARFAC =  1.00D+00  THRDLP  =  1.00D-07
 THRDIA  =  1.00D-10  THRDLS  =  1.00D-07  THRGPS  =  0.00D+00  THRKEX  =  0.00D+00  THRDIS  =  2.00D-01  THRVAR  =  1.00D-10
 THRLOC  =  1.00D-06  THRGAP  =  1.00D-06  THRLOCT = -1.00D+00  THRGAPT = -1.00D+00  THRORB  =  1.00D-06  THRMLTP =  0.00D+00
 THRCPQCI=  1.00D-10  KEXTA   =  0.00D+00  THRCOARS=  0.00D+00  SYMTOL  =  1.00D-06  GRADTOL =  1.00D-06  THROVL  =  1.00D-08
 THRORTH =  1.00D-08  GRID    =  1.00D-06  GRIDMAX =  1.00D-03  DTMAX   =  0.00D+00  THROCCDE=  1.00D-01  THROCCDE=  1.00D-01


 SETTING DKROLL         =         1.00000000                                  
 SETTING DKHO           =        10.00000000                                  
 SETTING DKHP           =         4.00000000                                  

Geometry recognized as XYZ


 Variable memory set to 2000000000 words,  buffer space   230000 words

 SETTING BASIS          =    USERDEF

 DO I                   =        11.00000000   

 Running procedure=VIDF5


 Recomputing integrals since basis changed


 Using spherical harmonics



 PROGRAM * SEWARD (Integral evaluation for generally contracted gaussian basis sets)     Author: Roland Lindh, 1990

 Geometry written to block  1 of record 700

 Orientation using atomic masses  
 Molecule type: Atom
 Symmetry elements: X,Y,Z
 Rotational constants:       0.0000000      0.0000000      0.0000000 GHz  (calculated with average atomic masses)

 Point group  D2h 



 ATOMIC COORDINATES

 NR  ATOM    CHARGE       X              Y              Z

   1  GD     64.00    0.000000000    0.000000000    0.000000000

 NUCLEAR CHARGE:                   64
 NUMBER OF PRIMITIVE AOS:         631
 NUMBER OF SYMMETRY AOS:          481
 NUMBER OF CONTRACTIONS:          481   ( 113Ag  +  74B3u +  74B2u +  42B1g +  74B1u +  42B2g +  42B3g +  20Au  )
 NUMBER OF CORE ORBITALS:          23   (   8Ag  +   3B3u +   3B2u +   2B1g +   3B1u +   2B2g +   2B3g +   0Au  )
 NUMBER OF VALENCE ORBITALS:       17   (   4Ag  +   3B3u +   3B2u +   1B1g +   3B1u +   1B2g +   1B3g +   1Au  )


 NUCLEAR REPULSION ENERGY    0.00000000

 One-electron integrals computed with SEWARD

 10nd-order Douglas-Kroll-Hess method activated. McWeeny DKH parametrization is used.

 Computing Douglas-Kroll / X2C integrals

 AO integral compression algorithm  1   Integral accuracy      1.0D-15

     5087.429 MB (compressed) written to integral file ( 43.1%)

     Node minimum: 600.048 MB, node maximum: 1607.205 MB


 NUMBER OF SORTED TWO-ELECTRON INTEGRALS:  171778298.     BUFFER LENGTH:  32768
 NUMBER OF SEGMENTS:   6  SEGMENT LENGTH:   31998348      RECORD LENGTH: 524288

 Memory used in sort:      32.56 MW

 SORT1 READ  1474683826. AND WROTE    98537690. INTEGRALS IN    285 RECORDS. CPU TIME:    33.92 SEC, REAL TIME:    39.94 SEC
 SORT2 READ   489175437. AND WROTE   859050309. INTEGRALS IN  24015 RECORDS. CPU TIME:     3.58 SEC, REAL TIME:     7.29 SEC

 Node minimum:   171650191.  Node maximum:   171905998. integrals

 OPERATOR DM      FOR CENTER  0  COORDINATES:    0.000000    0.000000    0.000000

 EXTRA SYMMETRY OF AOS IN SYMMETRY 1:   1 1 1 1 1 1 1 1 1 1   1 1 1 1 1 1 1 1 1 1   1 1 1 1 1 1 1 1 1 1   1 1 1 1 1 1 1 1 2 3
                                        2 3 2 3 2 3 2 3 2 3   2 3 2 3 2 3 2 3 2 3   2 3 2 3 2 3 2 3 2 3   2 3 2 3 2 3 2 3 2 3
                                        2 3 2 3 2 3 4 5 6 4   5 6 4 5 6 4 5 6 4 5   6 4 5 6 4 5 6 4 5 6   4 5 6
 EXTRA SYMMETRY OF AOS IN SYMMETRY 2:   1 1 1 1 1 1 1 1 1 1   1 1 1 1 1 1 1 1 1 1   1 1 1 1 1 1 1 1 1 1   1 1 1 1 1 1 1 2 3 2
                                        3 2 3 2 3 2 3 2 3 2   3 2 3 2 3 2 3 2 3 2   3 2 3 2 3 4 5 6 4 5   6 4 5 6
 EXTRA SYMMETRY OF AOS IN SYMMETRY 3:   1 1 1 1 1 1 1 1 1 1   1 1 1 1 1 1 1 1 1 1   1 1 1 1 1 1 1 1 1 1   1 1 1 1 1 1 1 2 3 2
                                        3 2 3 2 3 2 3 2 3 2   3 2 3 2 3 2 3 2 3 2   3 2 3 2 3 4 5 6 4 5   6 4 5 6
 EXTRA SYMMETRY OF AOS IN SYMMETRY 4:   1 1 1 1 1 1 1 1 1 1   1 1 1 1 1 1 1 1 1 1   1 1 1 1 2 3 2 3 2 3   2 3 2 3 2 3 2 3 2 3
                                        2 3
 EXTRA SYMMETRY OF AOS IN SYMMETRY 5:   1 1 1 1 1 1 1 1 1 1   1 1 1 1 1 1 1 1 1 1   1 1 1 1 1 1 1 1 1 1   1 1 1 1 1 1 1 2 3 2
                                        3 2 3 2 3 2 3 2 3 2   3 2 3 2 3 2 3 2 3 2   3 2 3 2 3 4 5 6 4 5   6 4 5 6
 EXTRA SYMMETRY OF AOS IN SYMMETRY 6:   1 1 1 1 1 1 1 1 1 1   1 1 1 1 1 1 1 1 1 1   1 1 1 1 2 3 2 3 2 3   2 3 2 3 2 3 2 3 2 3
                                        2 3
 EXTRA SYMMETRY OF AOS IN SYMMETRY 7:   1 1 1 1 1 1 1 1 1 1   1 1 1 1 1 1 1 1 1 1   1 1 1 1 2 3 2 3 2 3   2 3 2 3 2 3 2 3 2 3
                                        2 3
 EXTRA SYMMETRY OF AOS IN SYMMETRY 8:   1 1 1 1 1 1 1 1 1 1   1 1 1 1 2 3 2 3 2 3

 Eigenvalues of metric

         1 0.117E-06 0.313E-06 0.724E-06 0.724E-06 0.728E-06 0.135E-05 0.447E-05 0.619E-05
         2 0.616E-06 0.439E-05 0.139E-04 0.449E-04 0.885E-04 0.303E-03 0.501E-03 0.668E-03
         3 0.616E-06 0.439E-05 0.139E-04 0.449E-04 0.885E-04 0.303E-03 0.501E-03 0.668E-03
         4 0.724E-06 0.237E-04 0.148E-03 0.537E-03 0.925E-03 0.419E-02 0.877E-02 0.166E-01
         5 0.616E-06 0.439E-05 0.139E-04 0.449E-04 0.885E-04 0.303E-03 0.501E-03 0.668E-03
         6 0.724E-06 0.237E-04 0.148E-03 0.537E-03 0.925E-03 0.419E-02 0.877E-02 0.166E-01
         7 0.724E-06 0.237E-04 0.148E-03 0.537E-03 0.925E-03 0.419E-02 0.877E-02 0.166E-01
         8 0.826E-03 0.126E-01 0.208E-01 0.681E-01 0.138E+00 0.253E+00 0.351E+00 0.351E+00


 **********************************************************************************************************************************
 DATASETS  * FILE   NREC   LENGTH (MB)   RECORD NAMES
              1      22       22.40       500      610      700      900      950      970     1000      129      960     1700   
                                          VAR    BASINP    GEOM    SYMINP    ZMAT    AOBASIS   BASIS     P2S    ABASIS    OPER   
                                         1101     1401     1411     1412     1650     1100     1400     1410     1200     1210   
                                          SR      EKINR    POTR     PVPR    MOLCAS      S      EKIN      POT      H0       H01  
                                         1080     1600   
                                         AOSYM     SMH  

 PROGRAMS   *        TOTAL       INT
 CPU TIMES  *       330.73    330.38
 REAL TIME  *       344.86 SEC
 DISK USED  *        10.93 GB      
 GA USED    *         0.00 MB       (max)       0.00 MB       (current)
 **********************************************************************************************************************************

 Density functional group PBE0=PBEX+PBEC
 Functional: PBEX(Automatically generated (new) PBEX)                          Gradient terms: 1
 Functional: PBEC(Automatically generated (new) PBEC)                          Gradient terms: 1
 Use grid at  1800.2
 

 Exact exchange will be calculated, factor:  0.2500

 Functional: PBEX                      Factor:  0.7500
 Functional: PBEC                      Factor:  1.0000
 
 Generated new metagrid on record  1800.2 with target accuracy 1.0D-06 and 780 points in CPU time    0.0
 Computed new grid on record 1800.1 in CPU time    0.0
  384156 words reserved for DFT integration

 PROGRAM * RKS-SCF (Restricted open shell Kohn-Sham)     Authors: W. Meyer, H.-J. Werner, P.J. Knowles, 1993

 NUMBER OF ELECTRONS:      32+   27-    SPACE SYMMETRY=5    SPIN SYMMETRY: Sextet  
 CONVERGENCE THRESHOLDS:    1.00E-05 (Density)    1.28E-06 (Energy)
 MAX. NUMBER OF ITERATIONS:       60
 INTERPOLATION TYPE:            DIIS
 INTERPOLATION STEPS:              2 (START)      1 (STEP)
 LEVEL SHIFTS:                 -0.60 (CLOSED) -0.30 (OPEN) 

 Number of closed-shell orbitals:   27 (   9   4   4   2   4   2   2   0 )
 Number of open-shell orbitals:      5 (   0   2   2   0   1   0   0   0 )


 
 Extra symmetries of mos in symmetry 1:   1   1   1   3   2   1   3   2   1   3   2
 Extra symmetries of mos in symmetry 2:   1   1   1   1   3   2
 Extra symmetries of mos in symmetry 3:   1   1   1   1   3   2
 Extra symmetries of mos in symmetry 5:   1   1   1   1   3   2
 Use fine grid record 1800.2 for energy threshold  1.0D-06
 Orbital guess generated from atomic densities. Full valence occupancy:   12   6   6   3   6   3   3   1


 Molecular orbital dump at record        3202.2

 ITERATION    DDIFF          GRAD             ENERGY        2-EL.EN.            DIPOLE MOMENTS         DIIS   ORB.
    1      0.000D+00      0.000D+00    -11265.45236042   8293.863172    0.00000    0.00000    0.00000    0    start
    2      0.000D+00      0.126D-01    -11265.63468742   8358.110153    0.00000    0.00000    0.00000    1    diag,B
    3      0.103D-01      0.838D-02    -11265.66100357   8332.923101    0.00000    0.00000    0.00000    2    diag,B
    4      0.399D-02      0.224D-02    -11265.66241380   8336.681344    0.00000    0.00000    0.00000    3    diag,B
    5      0.169D-02      0.286D-03    -11265.66258627   8336.812667    0.00000    0.00000    0.00000    4    diag,B
    6      0.776D-03      0.721D-04    -11265.66261330   8336.901008    0.00000    0.00000    0.00000    5    diag,B
    7      0.143D-03      0.333D-04    -11265.66262342   8336.912364    0.00000    0.00000    0.00000    6    fixocc
    8      0.326D-04      0.123D-04    -11265.66262490   8336.904793    0.00000    0.00000    0.00000    7    diag,B
    9      0.151D-04      0.183D-05    -11265.66262495   8336.904862    0.00000    0.00000    0.00000    8    diag,B
   10      0.468D-05      0.825D-06    -11265.66262496   8336.904553    0.00000    0.00000    0.00000    0    orth

 Final alpha occupancy:   9   6   6   2   5   2   2   0
 Final beta  occupancy:   9   4   4   2   4   2   2   0

 !RKS STATE 1.5 Energy               -11265.6626249568    
 Nuclear energy                         0.00000000
 One-electron energy               -15245.73327700
 Two-electron energy                 4168.45227660
 Density functional                  -188.38162455     PBEX=-246.63713585 PBEC=  -3.40377267
 Virial quotient                       -0.78319029
 !RKS STATE 1.5 Dipole moment           0.00000000     0.00000000     0.00000000
 Dipole moment /Debye                   0.00000000     0.00000000     0.00000000

 ELECTRON ORBITALS
 =================


   Orb  Occ    Energy  Couls-En    Coefficients

                                   1 1s      1 1s      1 1s      1 1s      1 1s      1 1s      1 1s      1 1s      1 1s      1 1s   
                                   1 1s      1 1s      1 1s      1 1s      1 1s      1 1s      1 1s      1 1s      1 1s      1 1s   
                                   1 1s      1 1s      1 1s      1 1s      1 1s      1 1s      1 1s      1 1s      1 1s      1 1s   
                                   1 1s      1 1s      1 1s      1 1s      1 1s      1 1s      1 1s      1 1s      1 3d0     1 3d2+ 
                                   1 3d0     1 3d2+    1 3d0     1 3d2+    1 3d0     1 3d2+    1 3d0     1 3d2+    1 3d0     1 3d2+ 
                                   1 3d0     1 3d2+    1 3d0     1 3d2+    1 3d0     1 3d2+    1 3d0     1 3d2+    1 3d0     1 3d2+ 
                                   1 3d0     1 3d2+    1 3d0     1 3d2+    1 3d0     1 3d2+    1 3d0     1 3d2+    1 3d0     1 3d2+ 
                                   1 3d0     1 3d2+    1 3d0     1 3d2+    1 3d0     1 3d2+    1 3d0     1 3d2+    1 3d0     1 3d2+ 
                                   1 3d0     1 3d2+    1 3d0     1 3d2+    1 3d0     1 3d2+    1 5g0     1 5g4+    1 5g2+    1 5g0  
                                   1 5g4+    1 5g2+    1 5g0     1 5g4+    1 5g2+    1 5g0     1 5g4+    1 5g2+    1 5g0     1 5g4+ 
                                   1 5g2+    1 5g0     1 5g4+    1 5g2+    1 5g0     1 5g4+    1 5g2+    1 5g0     1 5g4+    1 5g2+ 
                                   1 5g0     1 5g4+    1 5g2+ 

   1.1   2 -1843.8253-4017.3565  0.000378  0.000163  0.001378  0.003964  0.007291  0.013589  0.025815  0.050396  0.101627  0.199272
                                 0.334903  0.343595  0.145786  0.063576 -0.008691  0.007302 -0.028453 -0.032038 -0.019273  0.016215
                                 0.018613 -0.002225 -0.006001 -0.003863 -0.001472  0.015909  0.015378 -0.036716 -0.081847  0.031933
                                 0.035769 -0.026489  0.003078  0.007005  0.002208  0.000066 -0.000023  0.000005  0.000000 -0.000000
                                 0.000000 -0.000000  0.000000 -0.000000  0.000000  0.000000  0.000000 -0.000000  0.000000  0.000000
                                -0.000000 -0.000000 -0.000001 -0.000000  0.000000  0.000000 -0.000000 -0.000000 -0.000000 -0.000000
                                -0.000000 -0.000000  0.000000  0.000000  0.000001  0.000000 -0.000001 -0.000000  0.000000  0.000000
                                 0.000000  0.000000  0.000000  0.000000 -0.000000 -0.000000  0.000000  0.000000 -0.000000 -0.000000
                                 0.000000  0.000000 -0.000000 -0.000000  0.000000  0.000000 -0.000000 -0.000000 -0.000000 -0.000000
                                 0.000000  0.000000  0.000000 -0.000000 -0.000000  0.000000  0.000000  0.000000  0.000000 -0.000000
                                -0.000000  0.000000  0.000000  0.000000 -0.000000 -0.000000 -0.000000  0.000000  0.000000  0.000000
                                -0.000000 -0.000000 -0.000000

   2.1   2  -307.7459 -856.2429 -0.000137 -0.000059 -0.000500 -0.001444 -0.002675 -0.005018 -0.009703 -0.019253 -0.040883 -0.080419
                                -0.145258 -0.152208  0.142540  0.605601  0.424273  0.031349  0.014047  0.050080  0.035844 -0.032098
                                -0.038228  0.004692  0.012848  0.008301  0.003170 -0.016568 -0.051490 -0.082256 -0.007707 -0.028638
                                -0.060849  0.053974 -0.006563 -0.015029 -0.004754 -0.000143  0.000050 -0.000011  0.000000 -0.000000
                                 0.000000 -0.000000  0.000000 -0.000000  0.000002 -0.000000  0.000011 -0.000000  0.000027 -0.000000
                                 0.000006  0.000000 -0.000014  0.000000  0.000010 -0.000000 -0.000001  0.000000 -0.000001  0.000000
                                -0.000000  0.000000  0.000004 -0.000000  0.000019 -0.000000 -0.000018  0.000000  0.000001 -0.000000
                                 0.000000 -0.000000  0.000000 -0.000000 -0.000000  0.000000  0.000000 -0.000000 -0.000000  0.000000
                                 0.000000  0.000000 -0.000000 -0.000000  0.000000  0.000000 -0.000000 -0.000001 -0.000000  0.000000
                                 0.000001  0.000000 -0.000000 -0.000001 -0.000000  0.000000  0.000000  0.000000 -0.000000 -0.000000
                                -0.000000  0.000000  0.000000  0.000000 -0.000000 -0.000000 -0.000000  0.000000  0.000000  0.000000
                                -0.000000 -0.000000 -0.000000

   3.1   2   -70.8137 -302.4054  0.000064  0.000027  0.000232  0.000670  0.001243  0.002329  0.004536  0.008952  0.019461  0.034560
                                 0.055055  0.027905 -0.211013 -0.822136 -0.326565  0.908964  0.038380 -0.532605 -0.381733  0.343379
                                 0.413482 -0.051537 -0.142999 -0.092760 -0.035527  0.014446  0.054547  0.132736  0.288982  0.519713
                                 0.652616 -0.581937  0.072733  0.167646  0.053256  0.001602 -0.000562  0.000121  0.000000 -0.000000
                                 0.000001 -0.000000  0.000009 -0.000000  0.000038 -0.000000  0.000136 -0.000000  0.000293 -0.000000
                                 0.000739 -0.000000  0.000983 -0.000000 -0.000265  0.000000  0.000025 -0.000000  0.000018 -0.000000
                                 0.000002 -0.000000 -0.000190  0.000000 -0.000622  0.000000  0.000581 -0.000000 -0.000026  0.000000
                                -0.000007  0.000000 -0.000002  0.000000  0.000002 -0.000000 -0.000001  0.000000  0.000001 -0.000000
                                -0.000000  0.000000  0.000000 -0.000000 -0.000000  0.000000 -0.000014 -0.000075 -0.000000  0.000010
                                 0.000057  0.000000 -0.000007 -0.000040 -0.000000  0.000005  0.000027  0.000000 -0.000003 -0.000018
                                -0.000000  0.000002  0.000011  0.000000 -0.000001 -0.000006 -0.000000  0.000001  0.000003  0.000000
                                -0.000000 -0.000001 -0.000000

   4.1   2   -46.4643 -261.7133  0.000000  0.000000  0.000000  0.000000 -0.000000  0.000000 -0.000000  0.000000 -0.000000  0.000000
                                 0.000000  0.000000  0.000000  0.000000 -0.000000  0.000000 -0.000000  0.000000  0.000000 -0.000000
                                -0.000000  0.000000  0.000000  0.000000  0.000000 -0.000000 -0.000000 -0.000000 -0.000000  0.000000
                                -0.000000  0.000000 -0.000000 -0.000000 -0.000000 -0.000000  0.000000 -0.000000 -0.000000  0.000109
                                -0.000000  0.001352 -0.000000  0.008386 -0.000000  0.038335 -0.000000  0.140248 -0.000000  0.327245
                                -0.000000  0.481156 -0.000000  0.432678  0.000000 -0.092099 -0.000000  0.011145 -0.000000  0.006765
                                -0.000000  0.000773  0.000000 -0.091347  0.000000 -0.264916 -0.000000  0.236809  0.000000 -0.009437
                                 0.000000 -0.002480  0.000000 -0.000639 -0.000000  0.000535  0.000000 -0.000346 -0.000000  0.000198
                                 0.000000 -0.000072 -0.000000  0.000030  0.000000 -0.000009 -0.000000 -0.000000  0.000359  0.000000
                                 0.000000 -0.000227 -0.000000 -0.000000  0.000180  0.000000  0.000000 -0.000125 -0.000000 -0.000000
                                 0.000081  0.000000  0.000000 -0.000051 -0.000000 -0.000000  0.000029  0.000000  0.000000 -0.000015
                                -0.000000 -0.000000  0.000005

   5.1   2   -46.5053 -261.7364 -0.000000 -0.000000 -0.000000 -0.000001 -0.000002 -0.000004 -0.000007 -0.000014 -0.000030 -0.000051
                                -0.000073 -0.000002  0.000436  0.001637  0.000375 -0.001719 -0.000401  0.000905  0.000563 -0.000513
                                -0.000624  0.000079  0.000220  0.000143  0.000055 -0.000028 -0.000109 -0.000283 -0.000734 -0.000092
                                -0.000974  0.000876 -0.000112 -0.000259 -0.000082 -0.000002  0.000001 -0.000000  0.000109  0.000000
                                 0.001352  0.000000  0.008383  0.000000  0.038318  0.000000  0.140187  0.000000  0.327069  0.000000
                                 0.481319  0.000000  0.433284  0.000000 -0.092463 -0.000000  0.011117  0.000000  0.006772  0.000000
                                 0.000774  0.000000 -0.091602 -0.000000 -0.265396 -0.000000  0.237393  0.000000 -0.009465 -0.000000
                                -0.002486 -0.000000 -0.000639 -0.000000  0.000535  0.000000 -0.000346 -0.000000  0.000198  0.000000
                                -0.000072 -0.000000  0.000030  0.000000 -0.000009 -0.000000  0.000219  0.000127 -0.000000 -0.000226
                                -0.000075  0.000000  0.000109  0.000060 -0.000000 -0.000098 -0.000041  0.000000  0.000059  0.000027
                                -0.000000 -0.000037 -0.000017  0.000000  0.000022  0.000010 -0.000000 -0.000011 -0.000005  0.000000
                                 0.000004  0.000002 -0.000000

   6.1   2   -16.5531 -131.5362 -0.000031 -0.000013 -0.000113 -0.000327 -0.000608 -0.001139 -0.002223 -0.004376 -0.009585 -0.016346
                                -0.024436 -0.005002  0.130917  0.514367  0.182614 -0.895981 -0.656727  1.135645  0.691800 -0.321691
                                -0.445159  0.058721  0.170398  0.112108  0.043399 -0.008251 -0.032202 -0.083080 -0.206694  0.210334
                                -0.256751  0.619666 -0.085406 -0.201348 -0.064950 -0.001970  0.000692 -0.000149 -0.000000  0.000000
                                -0.000004  0.000000 -0.000027  0.000000 -0.000128  0.000000 -0.000467  0.000000 -0.001101  0.000000
                                -0.001736  0.000000 -0.002478  0.000000  0.006975 -0.000000  0.002039 -0.000000  0.000363 -0.000000
                                 0.000039 -0.000000  0.000628 -0.000000  0.004455 -0.000000 -0.004652  0.000000 -0.000342  0.000000
                                -0.000125  0.000000 -0.000033  0.000000  0.000028 -0.000000 -0.000018  0.000000  0.000010 -0.000000
                                -0.000004  0.000000  0.000002 -0.000000 -0.000000  0.000000 -0.000031 -0.000180 -0.000000 -0.000056
                                -0.000287 -0.000000  0.000003  0.000041  0.000000 -0.000006 -0.000048 -0.000000  0.000005  0.000035
                                 0.000000 -0.000003 -0.000022 -0.000000  0.000002  0.000013  0.000000 -0.000001 -0.000007 -0.000000
                                 0.000000  0.000002  0.000000

   7.1   2    -8.1423 -107.2896 -0.000000 -0.000000 -0.000000 -0.000000 -0.000000 -0.000000  0.000000 -0.000000  0.000000 -0.000000
                                -0.000000 -0.000000 -0.000000 -0.000000  0.000000 -0.000000  0.000000  0.000000  0.000000 -0.000000
                                -0.000000  0.000000  0.000000 -0.000000  0.000000  0.000000  0.000000  0.000000  0.000000 -0.000000
                                -0.000000  0.000000 -0.000000  0.000000 -0.000000 -0.000000  0.000000 -0.000000  0.000000 -0.000053
                                 0.000000 -0.000658  0.000000 -0.004122  0.000000 -0.018939  0.000000 -0.070828  0.000000 -0.165742
                                 0.000000 -0.240107  0.000000 -0.251702 -0.000000  0.912375 -0.000000  0.391421 -0.000000  0.083280
                                -0.000000  0.006202 -0.000000  0.101841 -0.000000  0.566804  0.000000 -0.665974 -0.000000  0.051891
                                 0.000000 -0.008682  0.000000 -0.005255 -0.000000  0.004506  0.000000 -0.002977 -0.000000  0.001716
                                 0.000000 -0.000626 -0.000000  0.000267  0.000000 -0.000076 -0.000000 -0.000000  0.000724 -0.000000
                                -0.000000  0.001172 -0.000000 -0.000000  0.000847 -0.000000 -0.000000  0.000088  0.000000 -0.000000
                                 0.000041 -0.000000  0.000000 -0.000024  0.000000 -0.000000  0.000014 -0.000000  0.000000 -0.000007
                                 0.000000 -0.000000  0.000003

   8.1   2    -8.1987 -107.4155  0.000000  0.000000  0.000001  0.000002  0.000004  0.000007  0.000014  0.000028  0.000061  0.000105
                                 0.000162  0.000050 -0.000801 -0.003257 -0.001205  0.006469  0.004845 -0.004900 -0.003091  0.001570
                                 0.002383 -0.000334 -0.001048 -0.000704 -0.000277  0.000050  0.000195  0.000499  0.001241 -0.003930
                                -0.000478 -0.003144  0.000514  0.001253  0.000413  0.000013 -0.000004  0.000001 -0.000053 -0.000000
                                -0.000658 -0.000000 -0.004125 -0.000000 -0.018953 -0.000000 -0.070867 -0.000000 -0.165867 -0.000000
                                -0.240249 -0.000000 -0.252054 -0.000000  0.914021  0.000000  0.391594  0.000000  0.082651  0.000000
                                 0.006173  0.000000  0.101707  0.000000  0.566644  0.000000 -0.665861 -0.000000  0.050696  0.000000
                                -0.009089  0.000000 -0.005237 -0.000000  0.004489  0.000000 -0.002965 -0.000000  0.001710  0.000000
                                -0.000624  0.000000  0.000266 -0.000000 -0.000076  0.000000  0.000340  0.000277 -0.000000  0.000833
                                 0.000458 -0.000000 -0.000085  0.000337 -0.000000  0.000081  0.000020 -0.000000 -0.000167  0.000020
                                -0.000000  0.000083 -0.000013  0.000000 -0.000051  0.000008 -0.000000  0.000026 -0.000004  0.000000
                                -0.000009  0.000001 -0.000000

   9.1   2    -4.1148  -59.3598  0.000014  0.000006  0.000049  0.000143  0.000265  0.000496  0.000968  0.001906  0.004180  0.007073
                                 0.010438  0.001453 -0.059529 -0.235256 -0.083111  0.463405  0.420759 -0.887177 -0.787329  0.794718
                                 1.462887  0.203958  0.123013  0.066294  0.022719  0.003693  0.014494  0.037767  0.096061 -0.202196
                                 0.096224 -0.734678 -0.078698 -0.129393 -0.034587 -0.000970  0.000334 -0.000071  0.000000 -0.000000
                                 0.000004 -0.000000  0.000025 -0.000000  0.000113 -0.000000  0.000423 -0.000000  0.000987 -0.000000
                                 0.001608 -0.000000  0.002833 -0.000000 -0.007898  0.000000 -0.001328  0.000000  0.002171 -0.000000
                                 0.000515 -0.000000 -0.000921  0.000000 -0.005984  0.000000  0.006086 -0.000000  0.004035 -0.000000
                                 0.003272 -0.000000 -0.000112  0.000000  0.000079 -0.000000 -0.000046  0.000000  0.000025 -0.000000
                                -0.000009  0.000000  0.000004 -0.000000 -0.000001  0.000000  0.000020  0.000115  0.000000  0.000005
                                 0.000042  0.000000 -0.000062 -0.000295 -0.000000 -0.000059 -0.000383 -0.000000 -0.000010 -0.000040
                                -0.000000 -0.000001 -0.000021 -0.000000  0.000000  0.000011  0.000000 -0.000000 -0.000006 -0.000000
                                 0.000000  0.000002 -0.000000

  10.1   0    -1.8369  -41.3709  0.000000  0.000000  0.000000  0.000000  0.000000  0.000000 -0.000000  0.000000 -0.000000  0.000000
                                 0.000000  0.000000  0.000000  0.000000 -0.000000  0.000000  0.000000 -0.000000  0.000000 -0.000000
                                -0.000000  0.000000  0.000000  0.000000  0.000000 -0.000000 -0.000000 -0.000000 -0.000000  0.000000
                                -0.000000  0.000000 -0.000000 -0.000000 -0.000000 -0.000000  0.000000 -0.000000 -0.000000  0.000019
                                -0.000000  0.000232 -0.000000  0.001456 -0.000000  0.006711 -0.000000  0.025123 -0.000000  0.059086
                                -0.000000  0.080836 -0.000000  0.048874  0.000000 -0.303502  0.000000 -0.176065 -0.000000  0.016152
                                -0.000000  0.464143  0.000000 -0.029347  0.000000 -0.153602 -0.000000  0.156046 -0.000000  0.134660
                                -0.000000  0.489039 -0.000000  0.064167 -0.000000  0.021079  0.000000 -0.014729 -0.000000  0.009129
                                 0.000000 -0.003482 -0.000000  0.001510  0.000000 -0.000433  0.000000  0.000000 -0.000260  0.000000
                                 0.000000 -0.000324  0.000000 -0.000000  0.000450 -0.000000 -0.000000  0.001196 -0.000000 -0.000000
                                 0.001010 -0.000000 -0.000000  0.000460  0.000000 -0.000000  0.000007 -0.000000 -0.000000  0.000020
                                 0.000000  0.000000 -0.000007

  11.1   0    -1.8482  -41.4953 -0.000000 -0.000000 -0.000000 -0.000001 -0.000002 -0.000003 -0.000006 -0.000013 -0.000028 -0.000051
                                -0.000084 -0.000056  0.000298  0.001345  0.000636 -0.003333 -0.001975  0.002440 -0.000918  0.002084
                                -0.000327 -0.005269  0.001268  0.000809  0.000318 -0.000019 -0.000070 -0.000173 -0.000405  0.001257
                                 0.004001 -0.002547 -0.002753 -0.001499 -0.000473 -0.000015  0.000005 -0.000001  0.000019  0.000000
                                 0.000233  0.000000  0.001459  0.000000  0.006728  0.000000  0.025181  0.000000  0.059237  0.000000
                                 0.081128  0.000000  0.049697  0.000000 -0.303607 -0.000000 -0.177111 -0.000000  0.017706  0.000000
                                 0.461041  0.000000 -0.029642 -0.000000 -0.154475 -0.000000  0.155475  0.000000  0.137041  0.000000
                                 0.492188  0.000000  0.060871  0.000000  0.021592  0.000000 -0.015146 -0.000000  0.009356  0.000000
                                -0.003563 -0.000000  0.001544  0.000000 -0.000443 -0.000000  0.000016 -0.000104  0.000000 -0.000095
                                -0.000139  0.000000 -0.000433  0.000203 -0.000000  0.000134  0.000413 -0.000000  0.000252  0.000298
                                -0.000000  0.000250  0.000114  0.000000 -0.000006  0.000001 -0.000000  0.000002  0.000005  0.000000
                                -0.000001 -0.000002 -0.000000

                                   1 2px     1 2px     1 2px     1 2px     1 2px     1 2px     1 2px     1 2px     1 2px     1 2px  
                                   1 2px     1 2px     1 2px     1 2px     1 2px     1 2px     1 2px     1 2px     1 2px     1 2px  
                                   1 2px     1 2px     1 2px     1 2px     1 2px     1 2px     1 2px     1 2px     1 2px     1 2px  
                                   1 2px     1 2px     1 2px     1 2px     1 2px     1 2px     1 2px     1 4f1+    1 4f3+    1 4f1+ 
                                   1 4f3+    1 4f1+    1 4f3+    1 4f1+    1 4f3+    1 4f1+    1 4f3+    1 4f1+    1 4f3+    1 4f1+ 
                                   1 4f3+    1 4f1+    1 4f3+    1 4f1+    1 4f3+    1 4f1+    1 4f3+    1 4f1+    1 4f3+    1 4f1+ 
                                   1 4f3+    1 4f1+    1 4f3+    1 4f1+    1 4f3+    1 6h1+    1 6h3+    1 6h5+    1 6h1+    1 6h3+ 
                                   1 6h5+    1 6h1+    1 6h3+    1 6h5+ 

   1.2   2  -274.5299 -800.0062  0.000012  0.000002  0.000028  0.000033  0.000094  0.000160  0.000334  0.000654  0.001194  0.004172
                                 0.001987  0.014673  0.043388  0.124460  0.296964  0.417728  0.253892  0.026009 -0.014706 -0.040091
                                -0.014906 -0.006332 -0.001014  0.000508 -0.000340  0.000336  0.003097  0.014852  0.038349  0.020679
                                 0.004942  0.003919 -0.000113 -0.000406  0.000296  0.000030 -0.000005  0.000002  0.000000  0.000013
                                -0.000002  0.000009 -0.000002 -0.000009  0.000003 -0.000012  0.000003 -0.000001  0.000000  0.000001
                                -0.000000  0.000013 -0.000004  0.000008 -0.000002 -0.000000  0.000000  0.000000 -0.000000 -0.000000
                                 0.000000  0.000000 -0.000000 -0.000000  0.000000  0.000001  0.000001 -0.000000 -0.000000 -0.000000
                                 0.000000  0.000000  0.000000 -0.000000

   2.2   2   -60.4130 -283.1652 -0.000006 -0.000001 -0.000014 -0.000016 -0.000046 -0.000078 -0.000165 -0.000321 -0.000596 -0.002062
                                -0.001035 -0.007327 -0.022268 -0.065576 -0.166548 -0.239457 -0.051146  0.339261  0.389415 -0.020192
                                 0.013709  0.009082  0.001587 -0.000818  0.000556 -0.000555  0.130241  0.185649  0.111406 -0.013194
                                -0.006589 -0.005839  0.000188  0.000672 -0.000490 -0.000050  0.000009  0.000000 -0.000000  0.000017
                                -0.000003  0.000223 -0.000047  0.000368 -0.000073  0.000199 -0.000029  0.000045 -0.000030  0.000004
                                -0.000013 -0.000179  0.000005 -0.000097 -0.000004  0.000002  0.000003 -0.000001 -0.000002  0.000001
                                 0.000002 -0.000000 -0.000001  0.000000  0.000000  0.000025  0.000063 -0.000043  0.000002 -0.000015
                                 0.000017  0.000002  0.000006 -0.000005

   3.2   2   -13.0521 -121.5866  0.000003  0.000001  0.000007  0.000008  0.000022  0.000038  0.000080  0.000154  0.000290  0.000988
                                 0.000520  0.003516  0.010843  0.031984  0.082746  0.118722  0.016723 -0.170642 -0.148244  0.447565
                                 0.174581 -0.144990 -0.021380  0.010776 -0.007301  0.007302 -0.124097 -0.273037  0.077146  0.407822
                                 0.168426  0.085745 -0.002482 -0.008865  0.006472  0.000661 -0.000117  0.000004 -0.000002  0.000051
                                -0.000026  0.000268 -0.000152  0.000926 -0.000346  0.001551 -0.000586  0.000617 -0.000440  0.000120
                                -0.000169  0.001118 -0.000465  0.000616 -0.000192 -0.000020  0.000039  0.000015 -0.000029 -0.000010
                                 0.000020  0.000005 -0.000011 -0.000002  0.000003  0.000027  0.000236 -0.000245  0.000140  0.000256
                                -0.000132  0.000025  0.000018 -0.000001

   4.2   2    -3.1398  -52.7165 -0.000001 -0.000000 -0.000003 -0.000003 -0.000009 -0.000015 -0.000033 -0.000063 -0.000119 -0.000404
                                -0.000215 -0.001440 -0.004452 -0.013140 -0.034117 -0.048957 -0.005843  0.072384  0.051537 -0.267429
                                -0.062352  0.262231  0.222136 -0.014758  0.015207 -0.015619  0.056256  0.132338 -0.072847 -0.305689
                                 0.292896  0.421454  0.005414  0.019143 -0.014053 -0.001446  0.000257  0.000005 -0.000001  0.000079
                                -0.000022  0.000503 -0.000144  0.001427 -0.000442  0.003236 -0.000992  0.005864 -0.001514  0.003318
                                -0.000788 -0.000856  0.000292 -0.001072  0.000410 -0.000851  0.000207  0.000607 -0.000148 -0.000422
                                 0.000103  0.000223 -0.000055 -0.000074  0.000018  0.000009 -0.000121  0.000118  0.000101  0.000299
                                -0.000176  0.000069  0.000313 -0.000351

   5.2   +    -2.9544  -85.8453  0.000000  0.000000  0.000000  0.000000  0.000000  0.000000  0.000000  0.000000  0.000000  0.000001
                                -0.000000  0.000002  0.000005  0.000018  0.000041  0.000077 -0.000115 -0.000868 -0.000428 -0.003948
                                 0.000056  0.000163  0.000447 -0.000004  0.000002  0.000001  0.000367  0.000500  0.003186  0.000792
                                 0.002496  0.002193 -0.000002 -0.000004  0.000004  0.000001 -0.000000 -0.000285  0.001032 -0.004413
                                 0.015972 -0.027838  0.100644 -0.075631  0.273956 -0.107802  0.390046 -0.098612  0.356938 -0.038682
                                 0.139934 -0.007526  0.026920 -0.009704  0.036002  0.009272 -0.033559 -0.006651  0.024071  0.004597
                                -0.016638 -0.002423  0.008768  0.000803 -0.002906 -0.000475  0.000001  0.000073 -0.000853 -0.000311
                                 0.000143 -0.000426 -0.000073  0.000067

   6.2   +    -3.0312  -86.2714 -0.000000 -0.000000 -0.000000 -0.000000 -0.000000 -0.000000 -0.000000 -0.000000 -0.000000 -0.000000
                                 0.000000 -0.000001 -0.000001 -0.000004 -0.000007 -0.000019  0.000057  0.000337  0.000131  0.002161
                                -0.000124 -0.001313 -0.001670  0.000024 -0.000066  0.000068 -0.000187 -0.000230 -0.001370  0.000292
                                -0.002535 -0.003383 -0.000023 -0.000084  0.000061  0.000006 -0.000001  0.001037  0.000286  0.016047
                                 0.004430  0.101164  0.027895  0.275340  0.076069  0.389883  0.107597  0.353134  0.097486  0.133768
                                 0.036909  0.028268  0.007715  0.039404  0.011111 -0.033139 -0.009147  0.023184  0.006399 -0.016011
                                -0.004420  0.008432  0.002327 -0.002793 -0.000771  0.000506  0.000279  0.000290  0.000596  0.000522
                                 0.000519  0.000430  0.000233  0.000220

   7.2   0    -1.2434  -25.7907 -0.000001 -0.000000 -0.000001 -0.000002 -0.000005 -0.000008 -0.000016 -0.000031 -0.000059 -0.000199
                                -0.000106 -0.000707 -0.002191 -0.006462 -0.016801 -0.024075 -0.003044  0.031993  0.018510 -0.180321
                                -0.076476 -0.107565 -0.183264 -0.843400 -0.273833 -0.005089  0.029369  0.073056 -0.009460 -0.125372
                                 0.347131  0.720901  0.002132  0.004321 -0.004451 -0.000644  0.000122 -0.000002 -0.000001 -0.000020
                                -0.000009 -0.000127 -0.000056 -0.000319 -0.000169  0.000108 -0.000313  0.001443 -0.000139  0.000649
                                 0.000023 -0.000458  0.000054 -0.000573  0.000164 -0.001668  0.000111 -0.000243 -0.000024 -0.000074
                                -0.000049  0.000045  0.000023 -0.000016 -0.000008 -0.000086 -0.000131  0.000026  0.000273  0.000357
                                -0.000035  0.000202  0.000226 -0.000030

   8.2   0    -0.9083  -25.2908  0.000000  0.000000  0.000000  0.000000  0.000000  0.000000  0.000000  0.000000  0.000000  0.000001
                                 0.000000  0.000004  0.000011  0.000033  0.000084  0.000124 -0.000007 -0.000307 -0.000183 -0.000360
                                -0.000977 -0.001754 -0.000555  0.000166 -0.001138 -0.000093 -0.000071 -0.000230  0.000899  0.001867
                                 0.000467  0.000312 -0.000036 -0.000096  0.000085  0.000010 -0.000002 -0.000286 -0.000055 -0.004194
                                -0.000803 -0.027560 -0.005273 -0.066070 -0.012667 -0.043576 -0.008286  0.007877  0.001832  0.195189
                                 0.037871 -0.028926 -0.005550 -0.072204 -0.013928  0.473584  0.091118  0.439111  0.084626 -0.006531
                                -0.001170  0.027414  0.005254 -0.009093 -0.001743 -0.000126 -0.000069 -0.000073 -0.000127 -0.000056
                                -0.000059  0.000539  0.000114  0.000164

                                   1 2py     1 2py     1 2py     1 2py     1 2py     1 2py     1 2py     1 2py     1 2py     1 2py  
                                   1 2py     1 2py     1 2py     1 2py     1 2py     1 2py     1 2py     1 2py     1 2py     1 2py  
                                   1 2py     1 2py     1 2py     1 2py     1 2py     1 2py     1 2py     1 2py     1 2py     1 2py  
                                   1 2py     1 2py     1 2py     1 2py     1 2py     1 2py     1 2py     1 4f1-    1 4f3-    1 4f1- 
                                   1 4f3-    1 4f1-    1 4f3-    1 4f1-    1 4f3-    1 4f1-    1 4f3-    1 4f1-    1 4f3-    1 4f1- 
                                   1 4f3-    1 4f1-    1 4f3-    1 4f1-    1 4f3-    1 4f1-    1 4f3-    1 4f1-    1 4f3-    1 4f1- 
                                   1 4f3-    1 4f1-    1 4f3-    1 4f1-    1 4f3-    1 6h1-    1 6h3-    1 6h5-    1 6h1-    1 6h3- 
                                   1 6h5-    1 6h1-    1 6h3-    1 6h5- 

   1.3   2  -274.5299 -800.0062  0.000012  0.000002  0.000028  0.000033  0.000094  0.000160  0.000334  0.000654  0.001194  0.004172
                                 0.001987  0.014673  0.043388  0.124460  0.296964  0.417728  0.253892  0.026009 -0.014706 -0.040091
                                -0.014906 -0.006332 -0.001014  0.000508 -0.000340  0.000336  0.003097  0.014852  0.038349  0.020679
                                 0.004942  0.003919 -0.000113 -0.000406  0.000296  0.000030 -0.000005  0.000002 -0.000000  0.000013
                                 0.000002  0.000009  0.000002 -0.000009 -0.000003 -0.000012 -0.000003 -0.000001 -0.000000  0.000001
                                 0.000000  0.000013  0.000004  0.000008  0.000002 -0.000000 -0.000000  0.000000  0.000000 -0.000000
                                -0.000000  0.000000  0.000000 -0.000000 -0.000000  0.000001 -0.000001 -0.000000 -0.000000  0.000000
                                 0.000000  0.000000 -0.000000 -0.000000

   2.3   2   -60.4130 -283.1652 -0.000006 -0.000001 -0.000014 -0.000016 -0.000046 -0.000078 -0.000165 -0.000321 -0.000596 -0.002062
                                -0.001035 -0.007327 -0.022268 -0.065576 -0.166548 -0.239457 -0.051146  0.339261  0.389415 -0.020192
                                 0.013709  0.009082  0.001587 -0.000818  0.000556 -0.000555  0.130241  0.185649  0.111406 -0.013194
                                -0.006589 -0.005839  0.000188  0.000672 -0.000490 -0.000050  0.000009  0.000000  0.000000  0.000017
                                 0.000003  0.000223  0.000047  0.000368  0.000073  0.000199  0.000029  0.000045  0.000030  0.000004
                                 0.000013 -0.000179 -0.000005 -0.000097  0.000004  0.000002 -0.000003 -0.000001  0.000002  0.000001
                                -0.000002 -0.000000  0.000001  0.000000 -0.000000  0.000025 -0.000063 -0.000043  0.000002  0.000015
                                 0.000017  0.000002 -0.000006 -0.000005

   3.3   2   -13.0521 -121.5866  0.000003  0.000001  0.000007  0.000008  0.000022  0.000038  0.000080  0.000154  0.000290  0.000988
                                 0.000520  0.003516  0.010843  0.031984  0.082746  0.118722  0.016723 -0.170642 -0.148244  0.447565
                                 0.174581 -0.144990 -0.021380  0.010776 -0.007301  0.007302 -0.124097 -0.273037  0.077146  0.407822
                                 0.168426  0.085745 -0.002482 -0.008865  0.006472  0.000661 -0.000117  0.000004  0.000002  0.000051
                                 0.000026  0.000268  0.000152  0.000926  0.000346  0.001551  0.000586  0.000617  0.000440  0.000120
                                 0.000169  0.001118  0.000465  0.000616  0.000192 -0.000020 -0.000039  0.000015  0.000029 -0.000010
                                -0.000020  0.000005  0.000011 -0.000002 -0.000003  0.000027 -0.000236 -0.000245  0.000140 -0.000256
                                -0.000132  0.000025 -0.000018 -0.000001

   4.3   2    -3.1398  -52.7165 -0.000001 -0.000000 -0.000003 -0.000003 -0.000009 -0.000015 -0.000033 -0.000063 -0.000119 -0.000404
                                -0.000215 -0.001440 -0.004452 -0.013140 -0.034117 -0.048957 -0.005843  0.072384  0.051537 -0.267429
                                -0.062352  0.262231  0.222136 -0.014758  0.015207 -0.015619  0.056256  0.132338 -0.072847 -0.305689
                                 0.292896  0.421454  0.005414  0.019143 -0.014053 -0.001446  0.000257  0.000005  0.000001  0.000079
                                 0.000022  0.000503  0.000144  0.001427  0.000442  0.003236  0.000992  0.005864  0.001514  0.003318
                                 0.000788 -0.000856 -0.000292 -0.001072 -0.000410 -0.000851 -0.000207  0.000607  0.000148 -0.000422
                                -0.000103  0.000223  0.000055 -0.000074 -0.000018  0.000009  0.000121  0.000118  0.000101 -0.000299
                                -0.000176  0.000069 -0.000313 -0.000351

   5.3   +    -2.9544  -85.8453 -0.000000 -0.000000 -0.000000 -0.000000 -0.000000 -0.000000 -0.000000 -0.000000 -0.000000 -0.000001
                                 0.000000 -0.000002 -0.000005 -0.000018 -0.000041 -0.000077  0.000115  0.000868  0.000428  0.003948
                                -0.000056 -0.000163 -0.000447  0.000004 -0.000002 -0.000001 -0.000367 -0.000500 -0.003186 -0.000792
                                -0.002496 -0.002193  0.000002  0.000004 -0.000004 -0.000001  0.000000  0.000285  0.001032  0.004413
                                 0.015972  0.027838  0.100644  0.075631  0.273956  0.107802  0.390046  0.098612  0.356938  0.038682
                                 0.139934  0.007526  0.026920  0.009704  0.036002 -0.009272 -0.033559  0.006651  0.024071 -0.004597
                                -0.016638  0.002423  0.008768 -0.000803 -0.002906  0.000475  0.000001 -0.000073  0.000853 -0.000311
                                -0.000143  0.000426 -0.000073 -0.000067

   6.3   +    -3.0312  -86.2714 -0.000000 -0.000000 -0.000000 -0.000000 -0.000000 -0.000000 -0.000000 -0.000000 -0.000000 -0.000000
                                 0.000000 -0.000001 -0.000001 -0.000004 -0.000007 -0.000019  0.000057  0.000337  0.000131  0.002161
                                -0.000124 -0.001313 -0.001670  0.000024 -0.000066  0.000068 -0.000187 -0.000230 -0.001370  0.000292
                                -0.002535 -0.003383 -0.000023 -0.000084  0.000061  0.000006 -0.000001  0.001037 -0.000286  0.016047
                                -0.004430  0.101164 -0.027895  0.275340 -0.076069  0.389883 -0.107597  0.353134 -0.097486  0.133768
                                -0.036909  0.028268 -0.007715  0.039404 -0.011111 -0.033139  0.009147  0.023184 -0.006399 -0.016011
                                 0.004420  0.008432 -0.002327 -0.002793  0.000771  0.000506 -0.000279  0.000290  0.000596 -0.000522
                                 0.000519  0.000430 -0.000233  0.000220

   7.3   0    -1.2434  -25.7907 -0.000001 -0.000000 -0.000001 -0.000002 -0.000005 -0.000008 -0.000016 -0.000031 -0.000059 -0.000199
                                -0.000106 -0.000707 -0.002191 -0.006462 -0.016801 -0.024075 -0.003044  0.031993  0.018510 -0.180321
                                -0.076476 -0.107565 -0.183264 -0.843400 -0.273833 -0.005089  0.029369  0.073056 -0.009460 -0.125372
                                 0.347131  0.720901  0.002132  0.004321 -0.004451 -0.000644  0.000122 -0.000002  0.000001 -0.000020
                                 0.000009 -0.000127  0.000056 -0.000319  0.000169  0.000108  0.000313  0.001443  0.000139  0.000649
                                -0.000023 -0.000458 -0.000054 -0.000573 -0.000164 -0.001668 -0.000111 -0.000243  0.000024 -0.000074
                                 0.000049  0.000045 -0.000023 -0.000016  0.000008 -0.000086  0.000131  0.000026  0.000273 -0.000357
                                -0.000035  0.000202 -0.000226 -0.000030

   8.3   0    -0.9083  -25.2908  0.000000  0.000000  0.000000  0.000000  0.000000  0.000000  0.000000  0.000000  0.000000  0.000001
                                 0.000000  0.000004  0.000011  0.000033  0.000084  0.000124 -0.000007 -0.000307 -0.000183 -0.000360
                                -0.000977 -0.001754 -0.000555  0.000166 -0.001138 -0.000093 -0.000071 -0.000230  0.000899  0.001867
                                 0.000467  0.000312 -0.000036 -0.000096  0.000085  0.000010 -0.000002 -0.000286  0.000055 -0.004194
                                 0.000803 -0.027560  0.005273 -0.066070  0.012667 -0.043576  0.008286  0.007877 -0.001832  0.195189
                                -0.037871 -0.028926  0.005550 -0.072204  0.013928  0.473584 -0.091118  0.439111 -0.084626 -0.006531
                                 0.001170  0.027414 -0.005254 -0.009093  0.001743 -0.000126  0.000069 -0.000073 -0.000127  0.000056
                                -0.000059  0.000539 -0.000114  0.000164

                                   1 3d2-    1 3d2-    1 3d2-    1 3d2-    1 3d2-    1 3d2-    1 3d2-    1 3d2-    1 3d2-    1 3d2- 
                                   1 3d2-    1 3d2-    1 3d2-    1 3d2-    1 3d2-    1 3d2-    1 3d2-    1 3d2-    1 3d2-    1 3d2- 
                                   1 3d2-    1 3d2-    1 3d2-    1 3d2-    1 5g2-    1 5g4-    1 5g2-    1 5g4-    1 5g2-    1 5g4- 
                                   1 5g2-    1 5g4-    1 5g2-    1 5g4-    1 5g2-    1 5g4-    1 5g2-    1 5g4-    1 5g2-    1 5g4- 
                                   1 5g2-    1 5g4- 

   1.4   2   -46.4704 -261.7178  0.000109  0.001352  0.008386  0.038332  0.140243  0.327197  0.481383  0.433119 -0.092380  0.011130
                                 0.006771  0.000774 -0.091676 -0.265369  0.237241 -0.009456 -0.002484 -0.000640  0.000535 -0.000347
                                 0.000198 -0.000072  0.000030 -0.000009  0.000074 -0.000000 -0.000106  0.000000  0.000039 -0.000000
                                -0.000042  0.000000  0.000024 -0.000000 -0.000015  0.000000  0.000009 -0.000000 -0.000004  0.000000
                                 0.000002 -0.000000

   2.4   2    -8.1520 -107.3191 -0.000053 -0.000658 -0.004122 -0.018942 -0.070827 -0.165771 -0.239992 -0.251480  0.912490  0.391409
                                 0.083062  0.006185  0.101627  0.565988 -0.664980  0.051535 -0.008805 -0.005242  0.004494 -0.002969
                                 0.001712 -0.000624  0.000266 -0.000076  0.000054 -0.000000  0.000347 -0.000000 -0.000289 -0.000000
                                 0.000079 -0.000000 -0.000143  0.000000  0.000076 -0.000000 -0.000046  0.000000  0.000024 -0.000000
                                -0.000008  0.000000

   3.4   0    -1.8360  -41.3332  0.000019  0.000232  0.001451  0.006691  0.025045  0.058915  0.080636  0.049242 -0.301626 -0.176047
                                 0.016218  0.464523 -0.029431 -0.153403  0.154675  0.134115  0.488800  0.064544  0.020958 -0.014651
                                 0.009087 -0.003468  0.001504 -0.000431  0.000082  0.000000  0.000042  0.000000 -0.000482 -0.000000
                                -0.000134 -0.000000 -0.000005 -0.000000  0.000077 -0.000000 -0.000000 -0.000000 -0.000008 -0.000000
                                 0.000003  0.000000

   4.4   0    -0.8783  -20.7496 -0.000010 -0.000123 -0.000768 -0.003563 -0.013259 -0.031523 -0.038582  0.012677  0.083177  0.127381
                                 0.084593 -0.218846  0.005842  0.009495  0.028402 -0.163532 -0.427874  0.502758  0.485296  0.222017
                                -0.049715  0.017366 -0.007176  0.002013 -0.000044 -0.000000 -0.000011 -0.000000  0.000275  0.000000
                                 0.000109  0.000000  0.000069  0.000000  0.000385 -0.000000  0.000405 -0.000000 -0.000610 -0.000000
                                 0.000082 -0.000000

                                   1 2pz     1 2pz     1 2pz     1 2pz     1 2pz     1 2pz     1 2pz     1 2pz     1 2pz     1 2pz  
                                   1 2pz     1 2pz     1 2pz     1 2pz     1 2pz     1 2pz     1 2pz     1 2pz     1 2pz     1 2pz  
                                   1 2pz     1 2pz     1 2pz     1 2pz     1 2pz     1 2pz     1 2pz     1 2pz     1 2pz     1 2pz  
                                   1 2pz     1 2pz     1 2pz     1 2pz     1 2pz     1 2pz     1 2pz     1 4f0     1 4f2+    1 4f0  
                                   1 4f2+    1 4f0     1 4f2+    1 4f0     1 4f2+    1 4f0     1 4f2+    1 4f0     1 4f2+    1 4f0  
                                   1 4f2+    1 4f0     1 4f2+    1 4f0     1 4f2+    1 4f0     1 4f2+    1 4f0     1 4f2+    1 4f0  
                                   1 4f2+    1 4f0     1 4f2+    1 4f0     1 4f2+    1 6h2+    1 6h4+    1 6h0     1 6h2+    1 6h4+ 
                                   1 6h0     1 6h2+    1 6h4+    1 6h0  

   1.5   2  -274.5398 -800.0139  0.000012  0.000002  0.000028  0.000033  0.000094  0.000160  0.000334  0.000654  0.001194  0.004171
                                 0.001987  0.014672  0.043386  0.124456  0.296953  0.417714  0.253901  0.026028 -0.014701 -0.040081
                                -0.014902 -0.006330 -0.001014  0.000508 -0.000340  0.000336  0.003114  0.014845  0.038339  0.020674
                                 0.004940  0.003918 -0.000113 -0.000406  0.000296  0.000030 -0.000005  0.000002 -0.000000  0.000015
                                -0.000000  0.000011 -0.000000 -0.000010  0.000000 -0.000014  0.000000 -0.000002  0.000000  0.000001
                                -0.000000  0.000015 -0.000000  0.000009 -0.000000 -0.000000  0.000000  0.000000 -0.000000 -0.000000
                                 0.000000  0.000000 -0.000000 -0.000000  0.000000 -0.000000  0.000000 -0.000001  0.000000 -0.000000
                                 0.000000 -0.000000  0.000000 -0.000000

   2.5   2   -60.4628 -283.1982 -0.000006 -0.000001 -0.000014 -0.000016 -0.000046 -0.000078 -0.000165 -0.000321 -0.000596 -0.002062
                                -0.001035 -0.007325 -0.022262 -0.065558 -0.166499 -0.239393 -0.051108  0.339735  0.389916 -0.020102
                                 0.013777  0.009120  0.001593 -0.000821  0.000558 -0.000557  0.129782  0.184966  0.111449 -0.013299
                                -0.006620 -0.005862  0.000188  0.000675 -0.000492 -0.000050  0.000009  0.000000 -0.000000  0.000019
                                -0.000000  0.000253 -0.000000  0.000406 -0.000000  0.000206 -0.000000  0.000024 -0.000000 -0.000007
                                -0.000000 -0.000215  0.000000 -0.000119  0.000000  0.000005 -0.000000 -0.000003 -0.000000  0.000002
                                 0.000000 -0.000001 -0.000000  0.000000  0.000000 -0.000000  0.000032 -0.000054 -0.000000 -0.000003
                                 0.000003 -0.000000  0.000003 -0.000004

   3.5   2   -13.1209 -121.6881  0.000003  0.000001  0.000007  0.000008  0.000022  0.000038  0.000080  0.000154  0.000290  0.000988
                                 0.000521  0.003518  0.010848  0.031999  0.082785  0.118768  0.016824 -0.170494 -0.149128  0.451183
                                 0.173990 -0.143932 -0.021206  0.010687 -0.007239  0.007239 -0.124207 -0.273052  0.074991  0.408042
                                 0.166940  0.085075 -0.002460 -0.008789  0.006417  0.000655 -0.000116  0.000003 -0.000000  0.000040
                                -0.000000  0.000187 -0.000000  0.000766 -0.000000  0.001330 -0.000000  0.000309 -0.000000 -0.000019
                                -0.000000  0.001204 -0.000000  0.000651 -0.000000  0.000016  0.000000 -0.000010 -0.000000  0.000007
                                 0.000000 -0.000004 -0.000000  0.000001  0.000000 -0.000000  0.000057 -0.000129 -0.000000  0.000165
                                -0.000265 -0.000000  0.000018 -0.000034

   4.5   2    -3.1670  -52.9066 -0.000001 -0.000000 -0.000003 -0.000003 -0.000009 -0.000015 -0.000033 -0.000063 -0.000120 -0.000406
                                -0.000216 -0.001448 -0.004475 -0.013208 -0.034295 -0.049213 -0.005872  0.073159  0.053062 -0.265218
                                -0.056482  0.263041  0.216354 -0.015138  0.015075 -0.015449  0.056432  0.132293 -0.077345 -0.313725
                                 0.301111  0.419541  0.005349  0.018922 -0.013887 -0.001428  0.000254  0.000003  0.000000  0.000059
                                 0.000000  0.000372  0.000000  0.001060  0.000000  0.002870  0.000000  0.005947 -0.000000  0.003480
                                -0.000000 -0.000992  0.000000 -0.001252  0.000000 -0.000900  0.000000  0.000638 -0.000000 -0.000444
                                 0.000000  0.000234 -0.000000 -0.000078  0.000000 -0.000000 -0.000035  0.000042 -0.000000  0.000176
                                -0.000205 -0.000000  0.000054 -0.000224

   5.5   +    -3.0009  -86.1119  0.000000 -0.000000  0.000000  0.000000  0.000000  0.000000  0.000000  0.000000  0.000000  0.000000
                                 0.000000  0.000000  0.000000  0.000000  0.000000  0.000000 -0.000000 -0.000000 -0.000000 -0.000000
                                 0.000000 -0.000000  0.000000  0.000000  0.000000  0.000000 -0.000000 -0.000000  0.000000  0.000000
                                 0.000000  0.000000 -0.000000 -0.000000  0.000000  0.000000 -0.000000 -0.000000  0.001073 -0.000000
                                 0.016619 -0.000000  0.104714 -0.000000  0.285142 -0.000000  0.404405 -0.000000  0.367731 -0.000000
                                 0.141133 -0.000000  0.028783 -0.000000  0.039837  0.000000 -0.034534 -0.000000  0.024389  0.000000
                                -0.016850 -0.000000  0.008876  0.000000 -0.002941  0.001134 -0.000000 -0.000000  0.001895 -0.000000
                                -0.000000  0.001066 -0.000000 -0.000000

   6.5   0    -2.6823  -84.6410 -0.000000 -0.000000 -0.000000 -0.000000 -0.000000 -0.000000 -0.000000 -0.000000 -0.000000 -0.000000
                                 0.000000 -0.000001 -0.000002 -0.000006 -0.000012 -0.000031  0.000084  0.000513  0.000238  0.003349
                                 0.000106 -0.001197 -0.001982 -0.000055 -0.000053  0.000057 -0.000268 -0.000341 -0.002398 -0.000322
                                -0.002367 -0.003453 -0.000019 -0.000069  0.000049  0.000005 -0.000001  0.001049  0.000000  0.016245
                                 0.000000  0.102332  0.000000  0.278769  0.000000  0.403661  0.000000  0.378388  0.000000  0.160247
                                 0.000000  0.026522  0.000000  0.031050  0.000000 -0.034816 -0.000000  0.027196  0.000000 -0.018858
                                -0.000000  0.009971  0.000000 -0.003311 -0.000000  0.000000 -0.000353  0.000297  0.000000 -0.000884
                                 0.000064  0.000000 -0.000415  0.000280

   7.5   0    -1.2484  -25.8394 -0.000001 -0.000000 -0.000001 -0.000002 -0.000005 -0.000008 -0.000016 -0.000031 -0.000059 -0.000199
                                -0.000106 -0.000708 -0.002192 -0.006465 -0.016810 -0.024089 -0.003034  0.032453  0.019544 -0.176361
                                -0.072075 -0.105721 -0.195365 -0.843544 -0.266412 -0.005912  0.029271  0.072322 -0.013534 -0.130328
                                 0.351030  0.718979  0.002511  0.005656 -0.005438 -0.000745  0.000140 -0.000002  0.000000 -0.000028
                                 0.000000 -0.000180  0.000000 -0.000469  0.000000 -0.000023  0.000000  0.001600 -0.000000  0.000620
                                -0.000000 -0.000526  0.000000 -0.000652  0.000000 -0.002096 -0.000000 -0.000351 -0.000000 -0.000066
                                 0.000000  0.000045 -0.000000 -0.000016  0.000000  0.000000 -0.000117  0.000140 -0.000000  0.000351
                                -0.000427 -0.000000  0.000211 -0.000302

                                   1 3d1+    1 3d1+    1 3d1+    1 3d1+    1 3d1+    1 3d1+    1 3d1+    1 3d1+    1 3d1+    1 3d1+ 
                                   1 3d1+    1 3d1+    1 3d1+    1 3d1+    1 3d1+    1 3d1+    1 3d1+    1 3d1+    1 3d1+    1 3d1+ 
                                   1 3d1+    1 3d1+    1 3d1+    1 3d1+    1 5g1+    1 5g3+    1 5g1+    1 5g3+    1 5g1+    1 5g3+ 
                                   1 5g1+    1 5g3+    1 5g1+    1 5g3+    1 5g1+    1 5g3+    1 5g1+    1 5g3+    1 5g1+    1 5g3+ 
                                   1 5g1+    1 5g3+ 

   1.6   2   -46.4967 -261.7316  0.000109  0.001352  0.008384  0.038321  0.140201  0.327100  0.481331  0.433251 -0.092449  0.011121
                                 0.006772  0.000774 -0.091618 -0.265401  0.237369 -0.009464 -0.002486 -0.000640  0.000535 -0.000346
                                 0.000198 -0.000072  0.000030 -0.000009  0.000474  0.000111 -0.000253 -0.000021  0.000248  0.000059
                                -0.000157 -0.000027  0.000105  0.000021 -0.000065 -0.000012  0.000038  0.000007 -0.000019 -0.000004
                                 0.000006  0.000001

   2.6   2    -8.1878 -107.3919 -0.000053 -0.000658 -0.004124 -0.018950 -0.070858 -0.165845 -0.240194 -0.251969  0.913771  0.391569
                                 0.082749  0.006176  0.101698  0.566600 -0.665829  0.050883 -0.009029 -0.005239  0.004491 -0.002966
                                 0.001710 -0.000624  0.000266 -0.000076  0.000955  0.000286  0.001438  0.000209  0.001309  0.000639
                                 0.000195 -0.000018  0.000122  0.000146 -0.000056 -0.000077  0.000034  0.000047 -0.000017 -0.000024
                                 0.000006  0.000008

   3.6   0    -1.8451  -41.4559  0.000019  0.000233  0.001457  0.006719  0.025150  0.059163  0.081002  0.049526 -0.303216 -0.176797
                                 0.017377  0.461905 -0.029566 -0.154154  0.155310  0.136313  0.491323  0.061776  0.021440 -0.015026
                                 0.009291 -0.003540  0.001535 -0.000440 -0.000392 -0.000193 -0.000373 -0.000171  0.000811  0.000626
                                 0.002134  0.000733  0.001755  0.000577  0.000716  0.000213  0.000018  0.000004  0.000029  0.000019
                                -0.000011 -0.000007

   4.6   0    -0.8808  -20.7928 -0.000010 -0.000124 -0.000770 -0.003571 -0.013291 -0.031599 -0.038689  0.012676  0.083536  0.127724
                                 0.084345 -0.213509  0.005863  0.009568  0.028521 -0.165243 -0.429803  0.508803  0.480705  0.219349
                                -0.049725  0.017347 -0.007171  0.002012  0.000206  0.000102  0.000168  0.000071 -0.000550 -0.000383
                                -0.001345 -0.000490 -0.000975 -0.000356  0.000006 -0.000193  0.000484  0.000013  0.000401  0.000672
                                -0.000015 -0.000075

                                   1 3d1-    1 3d1-    1 3d1-    1 3d1-    1 3d1-    1 3d1-    1 3d1-    1 3d1-    1 3d1-    1 3d1- 
                                   1 3d1-    1 3d1-    1 3d1-    1 3d1-    1 3d1-    1 3d1-    1 3d1-    1 3d1-    1 3d1-    1 3d1- 
                                   1 3d1-    1 3d1-    1 3d1-    1 3d1-    1 5g1-    1 5g3-    1 5g1-    1 5g3-    1 5g1-    1 5g3- 
                                   1 5g1-    1 5g3-    1 5g1-    1 5g3-    1 5g1-    1 5g3-    1 5g1-    1 5g3-    1 5g1-    1 5g3- 
                                   1 5g1-    1 5g3- 

   1.7   2   -46.4967 -261.7316  0.000109  0.001352  0.008384  0.038321  0.140201  0.327100  0.481331  0.433251 -0.092449  0.011121
                                 0.006772  0.000774 -0.091618 -0.265401  0.237369 -0.009464 -0.002486 -0.000640  0.000535 -0.000346
                                 0.000198 -0.000072  0.000030 -0.000009  0.000474 -0.000111 -0.000253  0.000021  0.000248 -0.000059
                                -0.000157  0.000027  0.000105 -0.000021 -0.000065  0.000012  0.000038 -0.000007 -0.000019  0.000004
                                 0.000006 -0.000001

   2.7   2    -8.1878 -107.3919 -0.000053 -0.000658 -0.004124 -0.018950 -0.070858 -0.165845 -0.240194 -0.251969  0.913771  0.391569
                                 0.082749  0.006176  0.101698  0.566600 -0.665829  0.050883 -0.009029 -0.005239  0.004491 -0.002966
                                 0.001710 -0.000624  0.000266 -0.000076  0.000955 -0.000286  0.001438 -0.000209  0.001309 -0.000639
                                 0.000195  0.000018  0.000122 -0.000146 -0.000056  0.000077  0.000034 -0.000047 -0.000017  0.000024
                                 0.000006 -0.000008

   3.7   0    -1.8451  -41.4559  0.000019  0.000233  0.001457  0.006719  0.025150  0.059163  0.081002  0.049526 -0.303216 -0.176797
                                 0.017377  0.461905 -0.029566 -0.154154  0.155310  0.136313  0.491323  0.061776  0.021440 -0.015026
                                 0.009291 -0.003540  0.001535 -0.000440 -0.000392  0.000193 -0.000373  0.000171  0.000811 -0.000626
                                 0.002134 -0.000733  0.001755 -0.000577  0.000716 -0.000213  0.000018 -0.000004  0.000029 -0.000019
                                -0.000011  0.000007

   4.7   0    -0.8808  -20.7928 -0.000010 -0.000124 -0.000770 -0.003571 -0.013291 -0.031599 -0.038689  0.012676  0.083536  0.127724
                                 0.084345 -0.213509  0.005863  0.009568  0.028521 -0.165243 -0.429803  0.508803  0.480705  0.219349
                                -0.049725  0.017347 -0.007171  0.002012  0.000206 -0.000102  0.000168 -0.000071 -0.000550  0.000383
                                -0.001345  0.000490 -0.000975  0.000356  0.000006  0.000193  0.000484 -0.000013  0.000401 -0.000672
                                -0.000015  0.000075

                                   1 4f2-    1 4f2-    1 4f2-    1 4f2-    1 4f2-    1 4f2-    1 4f2-    1 4f2-    1 4f2-    1 4f2- 
                                   1 4f2-    1 4f2-    1 4f2-    1 4f2-    1 6h4-    1 6h2-    1 6h4-    1 6h2-    1 6h4-    1 6h2- 


   1.8   0    -2.6616  -84.5039  0.001047  0.016217  0.102172  0.278304  0.403838  0.379587  0.162343  0.026024  0.029795 -0.034835
                                 0.027496 -0.019068  0.010084 -0.003349 -0.000000  0.000725 -0.000000  0.001219 -0.000000  0.000855

   2.8   0    -0.8979  -25.1761 -0.000298 -0.004397 -0.028805 -0.069642 -0.051773 -0.005773  0.179148 -0.028406 -0.069715  0.482531
                                 0.459599 -0.000791  0.027317 -0.009055  0.000000 -0.000179  0.000000 -0.000204 -0.000000  0.000580

 HOMO      5.5    -3.000897 =     -81.6586eV
 LUMO      6.5    -2.682316 =     -72.9895eV
 LUMO-HOMO         0.318581 =       8.6690eV


 **********************************************************************************************************************************
 DATASETS  * FILE   NREC   LENGTH (MB)   RECORD NAMES
              1      23       22.40       500      610      700      900      950      970     1000      129      960     1700   
                                          VAR    BASINP    GEOM    SYMINP    ZMAT    AOBASIS   BASIS     P2S    ABASIS    OPER   
                                         1101     1401     1411     1412     1650     1100     1400     1410     1200     1210   
                                          SR      EKINR    POTR     PVPR    MOLCAS      S      EKIN      POT      H0       H01  
                                         1080     1600     1800   
                                         AOSYM     SMH     GRID   

              2       6        6.41       200      700     1000      520     1800     3202   
                                        OPTIONS   GEOM     BASIS   MCVARS    GRID      RKS  

 PROGRAMS   *        TOTAL       RKS       INT
 CPU TIMES  *       336.58      5.83    330.38
 REAL TIME  *       351.66 SEC
 DISK USED  *        11.09 GB      
 SF USED    *         0.14 MB      
 GA USED    *         0.09 MB       (max)       0.09 MB       (current)
 **********************************************************************************************************************************


 PROGRAM * RHF-SCF (OPEN SHELL)       Authors: W. Meyer, H.-J. Werner


 NUMBER OF ELECTRONS:      32+   27-    SPACE SYMMETRY=5    SPIN SYMMETRY: Sextet  
 CONVERGENCE THRESHOLDS:    1.00E-05 (Density)    1.18E-07 (Energy)
 MAX. NUMBER OF ITERATIONS:       60
 INTERPOLATION TYPE:            DIIS
 INTERPOLATION STEPS:              2 (START)      1 (STEP)
 LEVEL SHIFTS:                 -0.60 (CLOSED) -0.30 (OPEN) 

 Number of closed-shell orbitals:   27 (   9   4   4   2   4   2   2   0 )
 Number of open-shell orbitals:      5 (   0   2   2   0   1   0   0   0 )


 
 Extra symmetries of mos in symmetry 1:   1   1   1   3   2   1   3   2   1   3   2
 Extra symmetries of mos in symmetry 2:   1   1   1   1   3   2
 Extra symmetries of mos in symmetry 3:   1   1   1   1   3   2
 Extra symmetries of mos in symmetry 5:   1   1   1   1   3   2
 Molecular orbitals read from record     3202.2  Type=RKS/CANONICAL (state 1.5)

 Molecular orbital dump at record        4202.2

 ITERATION    DDIFF          GRAD             ENERGY        2-EL.EN.            DIPOLE MOMENTS         DIIS   ORB.
    1      0.000D+00      0.000D+00    -11262.11095860   7967.244637    0.00000    0.00000    0.00000    0    start
    2      0.000D+00      0.112D+00    -11262.13624918   7967.347444    0.00000    0.00000    0.00000    1    diag,B
    3      0.139D-01      0.990D-03    -11262.13678823   7967.153178    0.00000    0.00000    0.00000    2    diag,B
    4      0.160D-02      0.164D-03    -11262.13683479   7967.097155    0.00000    0.00000    0.00000    3    diag,B
    5      0.353D-03      0.368D-04    -11262.13683759   7967.065649    0.00000    0.00000    0.00000    4    diag,B
    6      0.407D-04      0.557D-05    -11262.13683773   7967.073642    0.00000    0.00000    0.00000    5    diag,B
    7      0.138D-04      0.349D-05    -11262.13683779   7967.068887    0.00000    0.00000    0.00000    6    diag,B
    8      0.335D-05      0.187D-05    -11262.13683777   7967.070213    0.00000    0.00000    0.00000    0    orth

 Final alpha occupancy:   9   6   6   2   5   2   2   0
 Final beta  occupancy:   9   4   4   2   4   2   2   0

 !RHF STATE 1.5 Energy               -11262.1368377732    
 Nuclear energy                         0.00000000
 One-electron energy               -15245.67194449
 Two-electron energy                 3983.53510672
 Virial quotient                       -0.78335452
 !RHF STATE 1.5 Dipole moment           0.00000000     0.00000000     0.00000000
 Dipole moment /Debye                   0.00000000     0.00000000     0.00000000

 ELECTRON ORBITALS
 =================


   Orb  Occ    Energy  Couls-En    Coefficients

                                   1 1s      1 1s      1 1s      1 1s      1 1s      1 1s      1 1s      1 1s      1 1s      1 1s   
                                   1 1s      1 1s      1 1s      1 1s      1 1s      1 1s      1 1s      1 1s      1 1s      1 1s   
                                   1 1s      1 1s      1 1s      1 1s      1 1s      1 1s      1 1s      1 1s      1 1s      1 1s   
                                   1 1s      1 1s      1 1s      1 1s      1 1s      1 1s      1 1s      1 1s      1 3d0     1 3d2+ 
                                   1 3d0     1 3d2+    1 3d0     1 3d2+    1 3d0     1 3d2+    1 3d0     1 3d2+    1 3d0     1 3d2+ 
                                   1 3d0     1 3d2+    1 3d0     1 3d2+    1 3d0     1 3d2+    1 3d0     1 3d2+    1 3d0     1 3d2+ 
                                   1 3d0     1 3d2+    1 3d0     1 3d2+    1 3d0     1 3d2+    1 3d0     1 3d2+    1 3d0     1 3d2+ 
                                   1 3d0     1 3d2+    1 3d0     1 3d2+    1 3d0     1 3d2+    1 3d0     1 3d2+    1 3d0     1 3d2+ 
                                   1 3d0     1 3d2+    1 3d0     1 3d2+    1 3d0     1 3d2+    1 5g0     1 5g4+    1 5g2+    1 5g0  
                                   1 5g4+    1 5g2+    1 5g0     1 5g4+    1 5g2+    1 5g0     1 5g4+    1 5g2+    1 5g0     1 5g4+ 
                                   1 5g2+    1 5g0     1 5g4+    1 5g2+    1 5g0     1 5g4+    1 5g2+    1 5g0     1 5g4+    1 5g2+ 
                                   1 5g0     1 5g4+    1 5g2+ 

   1.1   2 -1858.3085-4031.8483  0.000378  0.000162  0.001374  0.003951  0.007271  0.013555  0.025766  0.050323  0.101574  0.199604
                                 0.335901  0.343650  0.145956  0.063934 -0.008682  0.007229 -0.028315 -0.031892 -0.019188  0.016144
                                 0.018532 -0.002215 -0.005975 -0.003847 -0.001465  0.015513  0.014987 -0.037650 -0.081848  0.031786
                                 0.035610 -0.026374  0.003065  0.006975  0.002199  0.000066 -0.000023  0.000005  0.000000  0.000000
                                 0.000000 -0.000000  0.000000 -0.000000  0.000000 -0.000000  0.000000 -0.000000  0.000000  0.000000
                                -0.000000 -0.000000 -0.000001 -0.000000  0.000000  0.000000 -0.000000 -0.000000 -0.000000 -0.000000
                                -0.000000 -0.000000  0.000000  0.000000  0.000001  0.000000 -0.000001 -0.000000  0.000000  0.000000
                                 0.000000  0.000000  0.000000  0.000000 -0.000000 -0.000000  0.000000  0.000000 -0.000000 -0.000000
                                 0.000000  0.000000 -0.000000 -0.000000  0.000000  0.000000 -0.000000 -0.000000 -0.000000  0.000000
                                 0.000000  0.000000 -0.000000 -0.000000 -0.000000  0.000000  0.000000  0.000000 -0.000000 -0.000000
                                -0.000000  0.000000  0.000000  0.000000 -0.000000 -0.000000 -0.000000  0.000000  0.000000  0.000000
                                -0.000000 -0.000000 -0.000000

   2.1   2  -313.4812 -862.0456 -0.000137 -0.000059 -0.000499 -0.001440 -0.002668 -0.005007 -0.009687 -0.019225 -0.040874 -0.080321
                                -0.145999 -0.154109  0.138450  0.601549  0.419942  0.033406  0.013041  0.048530  0.034958 -0.031347
                                -0.037359  0.004588  0.012563  0.008116  0.003099 -0.016676 -0.050893 -0.078907  0.001590 -0.027415
                                -0.059241  0.052746 -0.006417 -0.014695 -0.004648 -0.000140  0.000049 -0.000011  0.000000 -0.000000
                                 0.000000 -0.000000  0.000000 -0.000000  0.000002 -0.000000  0.000011 -0.000000  0.000027 -0.000000
                                 0.000004  0.000000 -0.000021  0.000000  0.000013 -0.000000 -0.000002  0.000000 -0.000001  0.000000
                                -0.000000  0.000000  0.000008 -0.000000  0.000027 -0.000000 -0.000025  0.000000  0.000002 -0.000000
                                 0.000000 -0.000000  0.000000 -0.000000 -0.000000  0.000000  0.000000 -0.000000 -0.000000  0.000000
                                 0.000000 -0.000000 -0.000000  0.000000  0.000000 -0.000000  0.000000  0.000000  0.000000  0.000000
                                 0.000000  0.000000 -0.000000 -0.000000 -0.000000  0.000000  0.000000  0.000000 -0.000000 -0.000000
                                -0.000000  0.000000  0.000000  0.000000 -0.000000 -0.000000 -0.000000  0.000000  0.000000  0.000000
                                -0.000000 -0.000000 -0.000000

   3.1   2   -73.5041 -305.3255  0.000064  0.000027  0.000232  0.000668  0.001241  0.002327  0.004534  0.008950  0.019480  0.034545
                                 0.055444  0.028532 -0.207707 -0.819971 -0.327150  0.920835  0.055672 -0.488382 -0.352311  0.317083
                                 0.381622 -0.047547 -0.131800 -0.085468 -0.032725  0.014530  0.054445  0.131522  0.281127  0.479865
                                 0.603483 -0.537274  0.067057  0.154490  0.049059  0.001476 -0.000517  0.000112  0.000000 -0.000000
                                 0.000001 -0.000000  0.000008 -0.000000  0.000036 -0.000000  0.000124 -0.000000  0.000285 -0.000000
                                 0.000553 -0.000000  0.000720 -0.000000 -0.000192  0.000000  0.000011 -0.000000  0.000012 -0.000000
                                 0.000002 -0.000000  0.000039 -0.000000 -0.000388  0.000000  0.000394 -0.000000 -0.000018  0.000000
                                -0.000005  0.000000 -0.000001  0.000000  0.000001 -0.000000 -0.000001  0.000000  0.000000 -0.000000
                                -0.000000  0.000000  0.000000 -0.000000 -0.000000  0.000000 -0.000010 -0.000055 -0.000000  0.000012
                                 0.000068  0.000000 -0.000007 -0.000040 -0.000000  0.000005  0.000029  0.000000 -0.000003 -0.000018
                                -0.000000  0.000002  0.000011  0.000000 -0.000001 -0.000007 -0.000000  0.000001  0.000003  0.000000
                                -0.000000 -0.000001 -0.000000

   4.1   2   -48.1796 -263.5002 -0.000000 -0.000000 -0.000000 -0.000000 -0.000000 -0.000000 -0.000000 -0.000000 -0.000000 -0.000000
                                -0.000000  0.000000  0.000000  0.000000  0.000000 -0.000000 -0.000000 -0.000000 -0.000000  0.000000
                                 0.000000 -0.000000 -0.000000 -0.000000  0.000000 -0.000000 -0.000000 -0.000000 -0.000000  0.000000
[...]
                                   1 3d1-    1 3d1-    1 3d1-    1 3d1-    1 5g1-    1 5g3-    1 5g1-    1 5g3-    1 5g1-    1 5g3- 
                                   1 5g1-    1 5g3-    1 5g1-    1 5g3-    1 5g1-    1 5g3-    1 5g1-    1 5g3-    1 5g1-    1 5g3- 
                                   1 5g1-    1 5g3- 

   1.7   2   -48.1940 -263.5260  0.000109  0.001341  0.008435  0.038103  0.140215  0.327994  0.475093  0.406213 -0.075578  0.009786
                                 0.005509  0.000618 -0.076758 -0.234635  0.207401 -0.007763 -0.002006 -0.000510  0.000427 -0.000276
                                 0.000158 -0.000057  0.000024 -0.000007  0.000742 -0.000279 -0.000241 -0.000039  0.000373 -0.000133
                                -0.000200  0.000040  0.000142 -0.000037 -0.000087  0.000022  0.000051 -0.000013 -0.000025  0.000006
                                 0.000008 -0.000002

   2.7   2    -8.7739 -107.7971 -0.000053 -0.000644 -0.004109 -0.018586 -0.070281 -0.163099 -0.241371 -0.250028  0.918614  0.397278
                                 0.085705  0.006899  0.100809  0.565428 -0.671602  0.042955 -0.008842 -0.005690  0.004864 -0.003203
                                 0.001843 -0.000671  0.000286 -0.000081  0.001799 -0.000869  0.002321 -0.000793  0.002470 -0.001395
                                 0.000500 -0.000337  0.000279 -0.000215 -0.000111  0.000082  0.000067 -0.000050 -0.000034  0.000025
                                 0.000011 -0.000008

   3.7   0    -1.6398  -39.5612  0.000017  0.000211  0.001344  0.006100  0.023092  0.053814  0.076003  0.049338 -0.292525 -0.172631
                                -0.018232  0.472983 -0.028320 -0.149782  0.161015  0.144099  0.459508  0.125084  0.010938 -0.004999
                                 0.003746 -0.001557  0.000695 -0.000202 -0.000539  0.000260 -0.000323 -0.000016  0.001017 -0.000526
                                 0.002549 -0.001039  0.002057 -0.000636  0.000999 -0.000290  0.000070  0.000017  0.000041 -0.000029
                                -0.000015  0.000011

   4.7   0    -0.8108  -19.0181 -0.000008 -0.000104 -0.000661 -0.003008 -0.011366 -0.026588 -0.036149 -0.012286  0.122778  0.095651
                                 0.039642 -0.295937  0.011074  0.052567 -0.046794 -0.105879 -0.312638  0.265525  0.630125  0.295468
                                -0.034750  0.013396 -0.005390  0.001494  0.000262 -0.000126  0.000138  0.000018 -0.000570  0.000261
                                -0.001367  0.000519 -0.001178  0.000437 -0.000428  0.000438  0.000519  0.000249  0.000284  0.000095
                                 0.000020 -0.000004

                                   1 4f2-    1 4f2-    1 4f2-    1 4f2-    1 4f2-    1 4f2-    1 4f2-    1 4f2-    1 4f2-    1 4f2- 
                                   1 4f2-    1 4f2-    1 4f2-    1 4f2-    1 6h4-    1 6h2-    1 6h4-    1 6h2-    1 6h4-    1 6h2- 


   1.8   0    -2.1741  -81.2406  0.000959  0.015147  0.094032  0.262852  0.395753  0.393348  0.199232  0.019602  0.027220 -0.029126
                                 0.033281 -0.022859  0.012128 -0.004036 -0.000000  0.001139 -0.000000  0.001861 -0.000000  0.001355

   2.8   0    -0.7792  -21.3405 -0.000223 -0.003389 -0.021691 -0.055393 -0.055291 -0.031367  0.073729 -0.016551 -0.041841  0.361272
                                 0.582252  0.112221  0.020146 -0.006024  0.000000 -0.000228  0.000000 -0.000280 -0.000000  0.000248

 HOMO      5.5    -3.361593 =     -91.4736eV
 LUMO      1.8    -2.174130 =     -59.1611eV
 LUMO-HOMO         1.187462 =      32.3125eV


 **********************************************************************************************************************************
 DATASETS  * FILE   NREC   LENGTH (MB)   RECORD NAMES
              1      23       22.40       500      610      700      900      950      970     1000      129      960     1700   
                                          VAR    BASINP    GEOM    SYMINP    ZMAT    AOBASIS   BASIS     P2S    ABASIS    OPER   
                                         1101     1401     1411     1412     1650     1100     1400     1410     1200     1210   
                                          SR      EKINR    POTR     PVPR    MOLCAS      S      EKIN      POT      H0       H01  
                                         1080     1600     1800   
                                         AOSYM     SMH     GRID   

              2       7       10.32       200      700     1000      520     1800     3202     4202   
                                        OPTIONS   GEOM     BASIS   MCVARS    GRID      RKS      RHF  

 PROGRAMS   *        TOTAL       RHF       RKS       INT
 CPU TIMES  *       340.19      3.61      5.83    330.38
 REAL TIME  *       356.68 SEC
 DISK USED  *        11.11 GB      
 SF USED    *         0.14 MB      
 GA USED    *         0.09 MB       (max)       0.09 MB       (current)
 **********************************************************************************************************************************


 PROGRAM * POP (Mulliken population analysis)

 
 Density matrix read from record         4202.2  Type=RHF/CHARGE (state 1.5)
 
 Population analysis by basis function type

 Unique atom        s        p        d        f        g    Total    Charge
   1  GD      9.99985 23.99967 19.99993  5.00029  0.00021 59.00000  + 5.00000


 **********************************************************************************************************************************
 DATASETS  * FILE   NREC   LENGTH (MB)   RECORD NAMES
              1      23       22.40       500      610      700      900      950      970     1000      129      960     1700   
                                          VAR    BASINP    GEOM    SYMINP    ZMAT    AOBASIS   BASIS     P2S    ABASIS    OPER   
                                         1101     1401     1411     1412     1650     1100     1400     1410     1200     1210   
                                          SR      EKINR    POTR     PVPR    MOLCAS      S      EKIN      POT      H0       H01  
                                         1080     1600     1800   
                                         AOSYM     SMH     GRID   

              2       7       10.32       200      700     1000      520     1800     3202     4202   
                                        OPTIONS   GEOM     BASIS   MCVARS    GRID      RKS      RHF  

 PROGRAMS   *        TOTAL       POP       RHF       RKS       INT
 CPU TIMES  *       340.20      0.01      3.61      5.83    330.38
 REAL TIME  *       356.71 SEC
 DISK USED  *        11.11 GB      
 SF USED    *         0.14 MB      
 GA USED    *         0.09 MB       (max)       0.09 MB       (current)
 **********************************************************************************************************************************


 PROGRAM * RHF-SCF (OPEN SHELL)       Authors: W. Meyer, H.-J. Werner


 NUMBER OF ELECTRONS:      32+   27-    SPACE SYMMETRY=5    SPIN SYMMETRY: Sextet  
 CONVERGENCE THRESHOLDS:    1.00E-05 (Density)    1.18E-07 (Energy)
 MAX. NUMBER OF ITERATIONS:        0
 INTERPOLATION TYPE:            DIIS
 INTERPOLATION STEPS:              2 (START)      1 (STEP)
 LEVEL SHIFTS:                 -0.60 (CLOSED) -0.30 (OPEN) 

 Number of closed-shell orbitals:   27 (   9   4   4   2   4   2   2   0 )
 Number of open-shell orbitals:      5 (   0   2   2   0   1   0   0   0 )


 Molecular orbitals read from record     4202.2  Type=RHF/CANONICAL (state 1.5)

 Molecular orbital dump at record        2132.2

 ITERATION    DDIFF          GRAD             ENERGY        2-EL.EN.            DIPOLE MOMENTS         DIIS   ORB.
    1      0.000D+00      0.000D+00    -11262.13683777   7967.070213    0.00000    0.00000    0.00000    0    start

 Final alpha occupancy:   9   6   6   2   5   2   2   0
 Final beta  occupancy:   9   4   4   2   4   2   2   0

 !RHF STATE 1.5 Energy               -11262.1368377732    
 Nuclear energy                         0.00000000
 One-electron energy               -15245.67194449
 Two-electron energy                 3983.53510672
 Virial quotient                       -0.78335452
 !RHF STATE 1.5 Dipole moment           0.00000000     0.00000000     0.00000000
 Dipole moment /Debye                   0.00000000     0.00000000     0.00000000

 Orbital energies:

         1.1          2.1          3.1          4.1          5.1          6.1          7.1          8.1          9.1         10.1
  -1858.308481  -313.481154   -73.504073   -48.179574   -48.200991   -17.765212    -8.778839    -8.780724    -4.440728    -1.637060

        11.1
     -1.642336

         1.2          2.2          3.2          4.2          5.2          6.2          7.2          8.2
   -279.422463   -62.680311   -14.049651    -3.322466    -3.330830    -3.423117    -1.130823    -0.794729

         1.3          2.3          3.3          4.3          5.3          6.3          7.3          8.3
   -279.422463   -62.680311   -14.049651    -3.322466    -3.330830    -3.423117    -1.130823    -0.794729

         1.4          2.4          3.4          4.4
    -48.172884    -8.751480    -1.632970    -0.808955

         1.5          2.5          3.5          4.5          5.5          6.5          7.5
   -279.432262   -62.725482   -14.107272    -3.351728    -3.361593    -2.167775    -1.135319

         1.6          2.6          3.6          4.6
    -48.194030    -8.773863    -1.639824    -0.810843

         1.7          2.7          3.7          4.7
    -48.194030    -8.773863    -1.639824    -0.810843

         1.8          2.8
     -2.174130    -0.779199

 HOMO      5.5    -3.361593 =     -91.4736eV
 LUMO      1.8    -2.174130 =     -59.1611eV
 LUMO-HOMO         1.187462 =      32.3125eV


 **********************************************************************************************************************************
 DATASETS  * FILE   NREC   LENGTH (MB)   RECORD NAMES
              1      23       22.40       500      610      700      900      950      970     1000      129      960     1700   
                                          VAR    BASINP    GEOM    SYMINP    ZMAT    AOBASIS   BASIS     P2S    ABASIS    OPER   
                                         1101     1401     1411     1412     1650     1100     1400     1410     1200     1210   
                                          SR      EKINR    POTR     PVPR    MOLCAS      S      EKIN      POT      H0       H01  
                                         1080     1600     1800   
                                         AOSYM     SMH     GRID   

              2       8       14.23       200      700     1000      520     1800     3202     4202     2132   
                                        OPTIONS   GEOM     BASIS   MCVARS    GRID      RKS      RHF      RHF  

 PROGRAMS   *        TOTAL       RHF       POP       RHF       RKS       INT
 CPU TIMES  *       340.68      0.48      0.01      3.61      5.83    330.38
 REAL TIME  *       357.32 SEC
 DISK USED  *        11.11 GB      
 SF USED    *         0.14 MB      
 GA USED    *         0.09 MB       (max)       0.09 MB       (current)
 **********************************************************************************************************************************
 SETTING SCF(11)        =    -11262.13683777  AU                              
 SETTING _CC_NORM_MAX   =         2.00000000                                  


 PROGRAM * CCSD (Restricted open-shell coupled cluster)     Authors: C. Hampel, H.-J. Werner, 1991, M. Deegan, P.J. Knowles, 1992


 Convergence thresholds:  THRVAR = 1.00D-08  THRDEN = 1.18D-06

 CCSD(T)     terms to be evaluated (factor= 1.000)


 Number of closed-shell orbitals:  27 (   9   4   4   2   4   2   2   0 )
 Number of active  orbitals:        5 (   0   2   2   0   1   0   0   0 )
 Number of external orbitals:     449 ( 104  68  68  40  69  40  40  20 )

 Memory could be reduced to 586.70 Mwords without degradation in triples

 Number of N-1 electron functions:              59
 Number of N-2 electron functions:            1711
 Number of singly external CSFs:              4382
 Number of doubly external CSFs:          34091412
 Total number of CSFs:                    34095794

 Molecular orbitals read from record     2132.2  Type=RHF/CANONICAL (state 1.5)

 Integral transformation finished. Total CPU:  14.35 sec, npass=  1  Memory used: 132.96 MW

 Starting RMP2 calculation

 Wavefunction is spin-projected

 ITER.      SQ.NORM     CORR.ENERGY   TOTAL ENERGY   ENERGY CHANGE        DEN1      VAR(S)    VAR(P)  DIIS     TIME
   1      1.11443634    -3.11612461-11265.25296238    -3.11612461    -0.00259772  0.52D-05  0.45D-03  1  1    17.49
   2      1.11552748    -3.11888558-11265.25572336    -0.00276098    -0.00000933  0.33D-07  0.23D-05  2  2    20.27
   3      1.11559538    -3.11899536-11265.25583313    -0.00010977    -0.00000003  0.38D-09  0.82D-08  3  3    23.33
   4      1.11559599    -3.11899511-11265.25583288     0.00000025    -0.00000000  0.16D-10  0.41D-10  4  4    26.56

 Norm of t1 vector:      0.02690137      S-energy:    -0.00731845      T1 diagnostic:  0.00005035
 Norm of t2 vector:      0.33892817      P-energy:    -3.11167666
                                         Alpha-Beta:  -2.00945566
                                         Alpha-Alpha: -0.62419765
                                         Beta-Beta:   -0.47802335

 Spin contamination <S**2-Sz**2-Sz>     0.00000000
  Reference energy                   -11262.1368377732    
  RHF-RMP2 correlation energy          -3.118995108487
 !RHF-RMP2 energy                    -11265.2558328817    
 (NB above energy spin projected)

 Starting RCCSD calculation

 ITER.      SQ.NORM     CORR.ENERGY   TOTAL ENERGY   ENERGY CHANGE        DEN1      VAR(S)    VAR(P)  DIIS     TIME
   1      1.09625675    -2.92615688-11265.06299466    -2.92615688    -0.03595321  0.59D-03  0.21D-02  0  0    80.90
   2      1.10206573    -2.96045666-11265.09729443    -0.03429978    -0.00133068  0.15D-04  0.15D-03  1  1   134.03
   3      1.10261237    -2.95801998-11265.09485775     0.00243668    -0.00013304  0.63D-05  0.28D-04  2  2   187.35
   4      1.10344761    -2.95916192-11265.09599970    -0.00114194    -0.00001942  0.11D-06  0.61D-05  3  3   240.77
   5      1.10369017    -2.95927193-11265.09610970    -0.00011001    -0.00000935  0.48D-07  0.30D-05  4  4   294.99
   6      1.10402380    -2.95932235-11265.09616012    -0.00005042    -0.00000270  0.35D-07  0.77D-06  5  5   349.08
   7      1.10418896    -2.95936075-11265.09619852    -0.00003840    -0.00000066  0.88D-08  0.20D-06  6  6   403.10
   8      1.10421809    -2.95936126-11265.09619903    -0.00000051    -0.00000016  0.43D-08  0.48D-07  7  7   458.64
   9      1.10422661    -2.95936099-11265.09619876     0.00000027    -0.00000002  0.92D-09  0.51D-08  8  8   515.22

 Norm of t1 vector:      0.04254304      S-energy:    -0.00727049      T1 diagnostic:  0.00268589
                                                                       D1 diagnostic:  0.00768351
 Norm of t2 vector:      0.32002610      P-energy:    -2.95209050
                                         Alpha-Beta:  -1.94512840
                                         Alpha-Alpha: -0.56767551
                                         Beta-Beta:   -0.43928658

 Spin contamination <S**2-Sz**2-Sz>     0.00000000

 Memory could be reduced to 641.54 Mwords without degradation in triples
 

  Correlated core orbitals:             1.1       2.1       3.1       4.1       5.1       6.1       7.1       8.1       1.2       2.2
                                        3.2       1.3       2.3       3.3       1.4       2.4       1.5       2.5       3.5       1.6
                                        2.6       1.7       2.7
  Orbital energies:                 -1858.3085 -313.4841  -73.5734  -48.2903  -48.2760  -17.9387   -9.0988   -8.9998 -279.4251  -62.7635
                                      -14.2532 -279.4251  -62.7635  -14.2532  -48.2591   -9.0006 -279.4344  -62.7938  -14.2739  -48.2718
                                       -8.9994  -48.2718   -8.9994
 
  RCCSD core-core energy               -1.903161700761
  RCCSD core-valence energy            -0.665756636961
  RCCSD valence correlation energy     -0.390442649955
 

 RESULTS
 =======

  Reference energy                   -11262.1368377732    
  RCCSD singles energy                 -0.007270491723
  RCCSD pair energy                    -2.952090495955
  RCCSD correlation energy             -2.959360987677
  Triples (T) contribution             -0.033418853498
  Total correlation energy             -2.992779841175
 
  RHF-RCCSD energy                   -11265.0961987608    
  RHF-RCCSD[T] energy                -11265.1298772821    
  RHF-RCCSD-T energy                 -11265.1295415854    
 !RHF-RCCSD(T) energy                -11265.1296176143    

 Program statistics:

 Available memory in ccsd:              1999991388
 Min. memory needed in ccsd:              93532428
 Max. memory used in ccsd:               137829222
 Max. memory used in cckext:             106208047 ( 9 integral passes)
 Max. memory used in cckint:             132964388 ( 1 integral passes)



 **********************************************************************************************************************************
 DATASETS  * FILE   NREC   LENGTH (MB)   RECORD NAMES
              1      23       22.40       500      610      700      900      950      970     1000      129      960     1700   
                                          VAR    BASINP    GEOM    SYMINP    ZMAT    AOBASIS   BASIS     P2S    ABASIS    OPER   
                                         1101     1401     1411     1412     1650     1100     1400     1410     1200     1210   
                                          SR      EKINR    POTR     PVPR    MOLCAS      S      EKIN      POT      H0       H01  
                                         1080     1600     1800   
                                         AOSYM     SMH     GRID   

              2       8       14.23       200      700     1000      520     1800     3202     4202     2132   
                                        OPTIONS   GEOM     BASIS   MCVARS    GRID      RKS      RHF      RHF  

 PROGRAMS   *        TOTAL  RCCSD(T)       RHF       POP       RHF       RKS       INT
 CPU TIMES  *      4239.50   3898.82      0.48      0.01      3.61      5.83    330.38
 REAL TIME  *      4454.68 SEC
 DISK USED  *        40.11 GB      
 SF USED    *        12.88 GB      
 GA USED    *         0.09 MB       (max)       0.09 MB       (current)
 **********************************************************************************************************************************
 SETTING CCSD(11)       =    -11265.12961761  AU                              
 Output type csv         
                                                                                                                                                                                                                                                                

          SCF,CCSD
        0.00000,        0.00000
        0.00000,        0.00000
        0.00000,        0.00000
        0.00000,        0.00000
        0.00000,        0.00000
        0.00000,        0.00000
        0.00000,        0.00000
        0.00000,        0.00000
        0.00000,        0.00000
        0.00000,        0.00000
   -11262.13684,   -11265.12962
                                                  

 RCCSD(T)/USERDEF energy= -11265.129617614341

        RCCSD(T)        RHF-SCF         RHF-SCF         RKS-SCF 
 -11265.12961761 -11262.13683777 -11262.13683777 -11265.66262496
 **********************************************************************************************************************************
 Molpro calculation terminated
 Variable memory released
