<?xml version="1.0"?>
<molpro xmlns="http://www.molpro.net/schema/molpro-output"
  xmlns:xsd="http://www.w3.org/1999/XMLSchema"
  xmlns:cml="http://www.xml-cml.org/schema"
  xmlns:stm="http://www.xml-cml.org/schema"
  xmlns:xhtml="http://www.w3.org/1999/xhtml">
 <!--

 Nodes     nprocs
 nid01420    11
 Number of processes for MPI-2 version of Molpro:   nprocs(total)=   12   nprocs(compute)=   11   nprocs(helper)=    1

 Using customized tuning parameters: mindgm=7; mindgv=16; mindgc=1; mindgr=1; noblas=0; minvec=7
 default implementation of scratch files=sf

 --><job>
  <!--

 Variables initialized (889), CPU time= 0.02 sec
 Commands  initialized (702), CPU time= 0.01 sec, 572 directives.
 Default parameters read. Elapsed time= 0.15 sec

 Checking input...
 Passed
1


                                         ***  PROGRAM SYSTEM MOLPRO  ***
                                       Copyright, TTI GmbH Stuttgart, 2015
                                    Version 2015.1 linked Dec 29 2018 15:55:43


 **********************************************************************************************************************************
 LABEL *   Calculation for GdH3 atom, singlet and triplet
  64 bit mpp version                                                                     DATE: 26-Dec-22          TIME: 19:04:41
 **********************************************************************************************************************************

 SHA1:             19cd028119e0e09f93f0674bd8af7968d9b3eff6
 **********************************************************************************************************************************
  -->
  <!--

 THRESHOLDS:

 ZERO    =  1.00D-12  ONEINT  =  1.00D-12  TWOINT  =  1.00D-15  PREFAC  =  1.00D-14  LOCALI  =  1.00D-09  EORDER  =  1.00D-04
 ENERGY  =  0.00D+00  ETEST   =  0.00D+00  EDENS   =  0.00D+00  THRDEDEF=  1.00D-06  GRADIENT=  1.00D-02  STEP    =  1.00D-03
 ORBITAL =  1.00D-05  CIVEC   =  1.00D-05  COEFF   =  1.00D-04  PRINTCI =  5.00D-02  PUNCHCI =  9.90D+01  OPTGRAD =  3.00D-04
 OPTENERG=  1.00D-06  OPTSTEP =  3.00D-04  THRGRAD =  1.00D-10  COMPRESS=  1.00D-11  VARMIN  =  1.00D-07  VARMAX  =  1.00D-03
 THRDOUB =  0.00D+00  THRDIV  =  1.00D-05  THRRED  =  1.00D-07  THRPSP  =  1.00D+00  THRDC   =  1.00D-10  THRCS   =  1.00D-10
 THRNRM  =  1.00D-08  THREQ   =  0.00D+00  THRDE   =  1.00D+00  THRREF  =  1.00D-05  SPARFAC =  1.00D+00  THRDLP  =  1.00D-07
 THRDIA  =  1.00D-10  THRDLS  =  1.00D-07  THRGPS  =  0.00D+00  THRKEX  =  0.00D+00  THRDIS  =  2.00D-01  THRVAR  =  1.00D-10
 THRLOC  =  1.00D-06  THRGAP  =  1.00D-06  THRLOCT = -1.00D+00  THRGAPT = -1.00D+00  THRORB  =  1.00D-06  THRMLTP =  0.00D+00
 THRCPQCI=  1.00D-10  KEXTA   =  0.00D+00  THRCOARS=  0.00D+00  SYMTOL  =  1.00D-06  GRADTOL =  1.00D-06  THROVL  =  1.00D-08
 THRORTH =  1.00D-08  GRID    =  1.00D-06  GRIDMAX =  1.00D-03  DTMAX   =  0.00D+00  THROCCDE=  1.00D-01  THROCCDE=  1.00D-01



 THRESHOLDS:

 ZERO    =  1.00D-12  ONEINT  =  1.00D-12  TWOINT  =  1.00D-15  PREFAC  =  1.00D-14  LOCALI  =  1.00D-09  EORDER  =  1.00D-04
 ENERGY  =  0.00D+00  ETEST   =  0.00D+00  EDENS   =  0.00D+00  THRDEDEF=  1.00D-06  GRADIENT=  1.00D-02  STEP    =  1.00D-03
 ORBITAL =  1.00D-05  CIVEC   =  1.00D-05  COEFF   =  1.00D-04  PRINTCI =  5.00D-02  PUNCHCI =  9.90D+01  OPTGRAD =  3.00D-04
 OPTENERG=  1.00D-06  OPTSTEP =  3.00D-04  THRGRAD =  1.00D-10  COMPRESS=  1.00D-11  VARMIN  =  1.00D-07  VARMAX  =  1.00D-03
 THRDOUB =  0.00D+00  THRDIV  =  1.00D-05  THRRED  =  1.00D-07  THRPSP  =  1.00D+00  THRDC   =  1.00D-10  THRCS   =  1.00D-10
 THRNRM  =  1.00D-08  THREQ   =  0.00D+00  THRDE   =  1.00D+00  THRREF  =  1.00D-05  SPARFAC =  1.00D+00  THRDLP  =  1.00D-07
 THRDIA  =  1.00D-10  THRDLS  =  1.00D-07  THRGPS  =  0.00D+00  THRKEX  =  0.00D+00  THRDIS  =  2.00D-01  THRVAR  =  1.00D-10
 THRLOC  =  1.00D-06  THRGAP  =  1.00D-06  THRLOCT = -1.00D+00  THRGAPT = -1.00D+00  THRORB  =  1.00D-06  THRMLTP =  0.00D+00
 THRCPQCI=  1.00D-10  KEXTA   =  0.00D+00  THRCOARS=  0.00D+00  SYMTOL  =  1.00D-06  GRADTOL =  1.00D-06  THROVL  =  1.00D-15
 THRORTH =  1.00D-08  GRID    =  1.00D-06  GRIDMAX =  1.00D-03  DTMAX   =  0.00D+00  THROCCDE=  1.00D-01  THROCCDE=  1.00D-01



 Variable memory set to 1000000000 words,  buffer space   230000 words

 SETTING BASIS          =    USERDEF
 SETTING GD_CCSD        =      -108.94859710
 SETTING H_CCSD         =        -0.49982987
 SETTING NE             =        21.00000000
 SETTING SYMM           =         1.00000000
 SETTING SS             =         5.00000000
 SETTING A1             =         6.00000000
 SETTING B1             =         3.00000000
 SETTING B2             =         3.00000000
 SETTING A2             =         1.00000000
 ZUNIT=ANG

  --><jobstep command="RKS-SCF" commandset="SCFPRO">
   <!--


 Recomputing integrals since basis changed


 Using spherical harmonics



 PROGRAM * SEWARD (Integral evaluation for generally contracted gaussian basis sets)     Author: Roland Lindh, 1990

 Geometry written to block  1 of record 700

 Orientation using atomic masses
 Molecule type: Symmetric top,     Order of principal axis = 3
 Symmetry elements: Y,Z
 Rotational constants:      69.0630713     69.0630713     34.5315357 GHz  (calculated with average atomic masses)

 Point group  C2v


   --><cml:molecule>
    <cml:symmetry pointGroup="C2v"/>
    <cml:atomArray>
     <cml:atom id="a1" elementType="Gd" x3="-0.550785678440913E-17" y3="0.0" z3="0.0"/>
     <cml:atom id="a2" elementType="H" x3="2.2" y3="0.0" z3="0.0"/>
     <cml:atom id="a3" elementType="H" x3="-1.1" y3="-1.90525588832577" z3="0.0"/>
     <cml:atom id="a4" elementType="H" x3="-1.1" y3="1.90525588832577" z3="0.0"/>
    </cml:atomArray>
    <cml:bondArray>
     <cml:bond atomRefs2="a1 a2"/>
     <cml:bond atomRefs2="a1 a3"/>
     <cml:bond atomRefs2="a1 a4"/>
    </cml:bondArray>
   </cml:molecule><!--

 ATOMIC COORDINATES

 NR  ATOM    CHARGE       X              Y              Z

   1  GD     18.00   -0.000000000    0.000000000    0.000000000
   2  H1      1.00    4.157397474    0.000000000    0.000000000
   3  H2      1.00   -2.078698737   -3.600411826    0.000000000
   4  H3      1.00   -2.078698737    3.600411826    0.000000000

 Bond lengths in Bohr (Angstrom)

 1-2  4.157397474  1-3  4.157397474  1-4  4.157397474
     ( 2.200000000)     ( 2.200000000)     ( 2.200000000)

 Bond angles

  2-1-3  120.00000000   2-1-4  120.00000000   3-1-4  120.00000000

 NUCLEAR CHARGE:                   21
 NUMBER OF PRIMITIVE AOS:         673
 NUMBER OF SYMMETRY AOS:          519
 NUMBER OF CONTRACTIONS:          519   ( 201A1  + 130B1  + 119B2  +  69A2  )
 NUMBER OF CORE ORBITALS:           0   (   0A1  +   0B1  +   0B2  +   0A2  )
 NUMBER OF VALENCE ORBITALS:       20   (   9A1  +   5B1  +   4B2  +   2A2  )


 NUCLEAR REPULSION ENERGY   13.40551418


 Eigenvalues of metric

         1 0.111E-06 0.291E-06 0.608E-06 0.722E-06 0.724E-06 0.737E-06 0.130E-05 0.321E-05
         2 0.608E-06 0.722E-06 0.428E-05 0.130E-04 0.235E-04 0.327E-04 0.532E-04 0.708E-04
         3 0.616E-06 0.727E-06 0.439E-05 0.139E-04 0.238E-04 0.446E-04 0.882E-04 0.148E-03
         4 0.727E-06 0.238E-04 0.148E-03 0.538E-03 0.824E-03 0.913E-03 0.402E-02 0.848E-02


 Contracted 2-electron integrals neglected if value below      1.0D-15
 AO integral compression algorithm  1   Integral accuracy      1.0D-15

     10098.311 MB (compressed) written to integral file ( 52.9%)

     Node minimum: 552.600 MB, node maximum: 1138.229 MB


 NUMBER OF SORTED TWO-ELECTRON INTEGRALS:  209948383.     BUFFER LENGTH:  32768
 NUMBER OF SEGMENTS:   7  SEGMENT LENGTH:   31983120      RECORD LENGTH: 524288

 Memory used in sort:      32.54 MW

 SORT1 READ  2385076976. AND WROTE   119255218. INTEGRALS IN    345 RECORDS. CPU TIME:    48.24 SEC, REAL TIME:    68.32 SEC
 SORT2 READ  1315837460. AND WROTE  2310732286. INTEGRALS IN  38335 RECORDS. CPU TIME:     3.23 SEC, REAL TIME:     5.54 SEC

 Node minimum:   209948383.  Node maximum:   210299431. integrals

 OPERATOR DM      FOR CENTER  0  COORDINATES:    0.000000    0.000000    0.000000


 **********************************************************************************************************************************
 DATASETS  * FILE   NREC   LENGTH (MB)   RECORD NAMES
              1      19       23.13       500      610      700      900      950      970     1000      129      960     1100
                                          VAR    BASINP    GEOM    SYMINP    ZMAT    AOBASIS   BASIS     P2S    ABASIS      S
                                         1400     1410     1420     1200     1210     1080     1600     1650     1700
                                           T        V       ECP      H0       H01     AOSYM     SMH    MOLCAS    OPER

 PROGRAMS   *        TOTAL       INT
 CPU TIMES  *       194.93    194.66
 REAL TIME  *       219.49 SEC
 DISK USED  *        25.95 GB
 GA USED    *         0.00 MB       (max)       0.00 MB       (current)
 **********************************************************************************************************************************

 Density functional group PBE0=PBEX+PBEC
 Functional: PBEX(Automatically generated (new) PBEX)                          Gradient terms: 1
 Functional: PBEC(Automatically generated (new) PBEC)                          Gradient terms: 1
 Use grid at  1800.2


 Exact exchange will be calculated, factor:  0.2500

 Functional: PBEX                      Factor:  0.7500
 Functional: PBEC                      Factor:  1.0000

 Generated new metagrid on record  1800.2 with target accuracy 1.0D-06 and 5709 points in CPU time    0.1
 Computed new grid on record 1800.1 in CPU time    0.1
  414270 words reserved for DFT integration

 PROGRAM * RKS-SCF (Restricted open shell Kohn-Sham)     Authors: W. Meyer, H.-J. Werner, P.J. Knowles, 1993

 NUMBER OF ELECTRONS:      12+    8-    SPACE SYMMETRY=1    SPIN SYMMETRY: Quintet
 CONVERGENCE THRESHOLDS:    1.00E-05 (Density)    1.00E-06 (Energy)
 MAX. NUMBER OF ITERATIONS:      200
 INTERPOLATION TYPE:            DIIS
 INTERPOLATION STEPS:              2 (START)      1 (STEP)
 LEVEL SHIFTS:                 -2.00 (CLOSED) -1.00 (OPEN)

 Number of closed-shell orbitals:    8 (   4   2   2   0 )
 Number of open-shell orbitals:      4 (   1   1   1   1 )


 Use fine grid record 1800.2 for energy threshold  1.0D-06
 Guess basis ATOMIC-GUESS,GD=ECP46_GUESS not found. No density guess!


 Molecular orbital dump at record        2202.2

 ITERATION    DDIFF          GRAD             ENERGY        2-EL.EN.            DIPOLE MOMENTS         DIIS   ORB.
    1      0.000D+00      0.000D+00       -68.67127792    431.803891   -0.00231    0.00000    0.00000    0    start
    2      0.000D+00      0.228D+00       -49.31428012     51.188968   -0.83154    0.00000    0.00000    0    diag,B
    3      0.129D+00      0.797D-01       -73.59104138    419.732150   -0.00717    0.00000    0.00000    1    diag,B
    4      0.111D+00      0.212D+00       -82.59648118    396.455986   -0.02000    0.00000    0.00000    2    diag,B
    5      0.132D-01      0.171D+00       -90.44137008    371.207377   -0.08199    0.00000    0.00000    3    diag,B
    6      0.144D-01      0.136D+00       -95.96842141    348.316716   -0.44999    0.00000    0.00000    4    diag,B
    7      0.998D-02      0.111D+00       -97.90600470    338.509090   -1.06736    0.00000    0.00000    5    diag,B
    8      0.576D-02      0.106D+00       -98.00184779    337.804923   -1.03848    0.00000    0.00000    6    diag,B
    9      0.301D-02      0.104D+00       -98.18744554    336.378097   -1.33108    0.00000    0.00000    7    diag,B
   10      0.201D-02      0.104D+00       -99.17357996    331.293432   -1.40705    0.00000    0.00000    8    orth
   11      0.664D-02      0.100D+00       -99.39679139    330.203835   -1.18946    0.00000    0.00000    9    diag,B
   12      0.357D-02      0.986D-01       -99.45908891    329.841379   -1.16280    0.00000    0.00000   10    diag,B
   13      0.345D-02      0.986D-01      -100.50351460    324.210309   -0.31424    0.00000    0.00000   11    diag,B
   14      0.965D-02      0.912D-01      -100.65849784    323.612384   -0.17115    0.00000    0.00000   12    diag,B
   15      0.377D-02      0.911D-01      -101.27983617    319.350691    0.23591    0.00000    0.00000   13    diag,B
   16      0.577D-02      0.858D-01      -101.50245671    318.040805    0.52259    0.00000    0.00000   14    diag,B
   17      0.629D-02      0.852D-01      -101.67972780    317.061035    0.46300    0.00000    0.00000   15    diag,B
   18      0.534D-02      0.844D-01      -101.64758128    317.121932    0.41471    0.00000    0.00000   16    diag,B
   19      0.366D-02      0.844D-01      -101.67652020    316.956296    0.46146    0.00000    0.00000   17    diag,B
   20      0.291D-02      0.840D-01      -102.35626371    311.993819    0.40085    0.00000    0.00000   18    orth
   21      0.134D-01      0.769D-01      -104.73742758    294.201161    0.74600    0.00000    0.00000   19    diag,B
   22      0.373D-01      0.601D-01      -107.67838170    274.523400    0.98082    0.00000    0.00000   20    diag,B
   23      0.492D-01      0.440D-01      -109.55310315    258.472096    1.13070    0.00000    0.00000   21    diag,B
   24      0.313D-01      0.280D-01      -110.55308549    239.447970    1.79661    0.00000    0.00000   22    diag,B
   25      0.296D-01      0.107D-01      -110.91546993    224.580379    1.91338    0.00000    0.00000   23    diag,B
   26      0.145D-01      0.645D-02      -111.01063259    221.247523    1.54971    0.00000    0.00000   24    diag,B
   27      0.696D-02      0.628D-02      -111.09134837    219.949446    1.17188    0.00000    0.00000   25    diag,B
   28      0.314D-02      0.521D-02      -111.20463318    218.504099    0.73071    0.00000    0.00000   26    diag,B
   29      0.611D-02      0.350D-02      -111.26290302    218.020246    0.57303    0.00000    0.00000   27    diag,B
   30      0.442D-02      0.226D-02      -111.27679784    218.079411    0.49959    0.00000    0.00000   28    orth
   31      0.124D-02      0.165D-02      -111.30134921    218.455301    0.33602    0.00000    0.00000   29    diag,B
   32      0.284D-02      0.116D-02      -111.31261168    218.614240    0.29093    0.00000    0.00000   29    diag,B
   33      0.939D-03      0.103D-02      -111.32248533    218.944815    0.26535    0.00000    0.00000   29    diag,B
   34      0.993D-03      0.939D-03      -111.33330511    219.365518    0.29807    0.00000    0.00000   29    diag,B
   35      0.128D-02      0.716D-03      -111.34232684    220.095281    0.30107    0.00000    0.00000   29    diag,B
   36      0.883D-03      0.736D-03      -111.35044747    220.399573    0.36803    0.00000    0.00000   29    diag,B
   37      0.944D-03      0.505D-03      -111.35759137    221.009983    0.33809    0.00000    0.00000   29    diag,B
   38      0.963D-03      0.420D-03      -111.36118000    221.101010    0.35201    0.00000    0.00000   29    diag,B
   39      0.752D-03      0.519D-03      -111.36302553    221.278951    0.33559    0.00000    0.00000   29    diag,B
   40      0.311D-03      0.459D-03      -111.36446452    221.293547    0.33877    0.00000    0.00000   29    orth
   41      0.257D-03      0.524D-03      -111.36523176    221.374073    0.33069    0.00000    0.00000   29    diag,B
   42      0.101D-03      0.468D-03      -111.36281275    221.312979    0.33360    0.00000    0.00000   29    diag,B
   43      0.391D-03      0.440D-03      -111.36029283    221.180364    0.33729    0.00000    0.00000   29    diag,B
   44      0.377D-03      0.472D-03      -111.35778441    221.116222    0.33155    0.00000    0.00000   29    diag,B
   45      0.580D-03      0.411D-03      -111.35460673    220.974310    0.33930    0.00000    0.00000   29    diag,B
   46      0.128D-02      0.325D-03      -111.35498010    221.055089    0.34032    0.00000    0.00000   29    diag,B
   47      0.563D-03      0.271D-03      -111.35494255    220.990061    0.34707    0.00000    0.00000   29    diag,B
   48      0.737D-03      0.230D-03      -111.35545030    220.874359    0.35305    0.00000    0.00000   29    diag,B
   49      0.580D-03      0.217D-03      -111.35476417    220.270265    0.36028    0.00000    0.00000   29    fixocc
   50      0.757D-03      0.452D-03      -111.35624346    220.958105    0.35830    0.00000    0.00000   29    orth
   51      0.776D-03      0.195D-03      -111.35763389    221.265481    0.35524    0.00000    0.00000   29    diag,B
   52      0.717D-03      0.150D-03      -111.35845245    221.249105    0.36078    0.00000    0.00000   29    diag,B
   53      0.590D-03      0.259D-03      -111.35953164    221.462693    0.35437    0.00000    0.00000   29    diag,B
   54      0.790D-03      0.352D-03      -111.35983221    221.445942    0.34868    0.00000    0.00000   29    diag,B
   55      0.250D-03      0.461D-03      -111.35990718    221.464295    0.34531    0.00000    0.00000   29    diag,B
   56      0.660D-04      0.457D-03      -111.35970242    221.420231    0.34864    0.00000    0.00000   29    diag,B
   57      0.129D-03      0.457D-03      -111.35940611    221.469482    0.35500    0.00000    0.00000   29    diag,B
   58      0.279D-03      0.282D-03      -111.35882132    221.202188    0.37346    0.00000    0.00000   29    diag,B
   59      0.547D-03      0.331D-03      -111.35820206    220.910144    0.38455    0.00000    0.00000   29    diag,B
   60      0.519D-03      0.367D-03      -111.35727463    220.499089    0.39986    0.00000    0.00000   29    orth
   61      0.678D-03      0.396D-03      -111.35785689    220.783163    0.39463    0.00000    0.00000   29    diag,B
   62      0.365D-03      0.306D-03      -111.35798725    220.793050    0.39524    0.00000    0.00000   29    diag,B
   63      0.113D-03      0.276D-03      -111.35799398    220.792659    0.39498    0.00000    0.00000   29    diag,B
   64      0.104D-04      0.279D-03      -111.35786981    220.701587    0.39661    0.00000    0.00000   29    diag,B
   65      0.118D-03      0.292D-03      -111.35748268    220.378961    0.40085    0.00000    0.00000   29    diag,B
   66      0.256D-03      0.486D-03      -111.35736999    220.364538    0.40131    0.00000    0.00000   29    diag,B
   67      0.644D-04      0.473D-03      -111.35738719    220.369480    0.40139    0.00000    0.00000   29    diag,B
   68      0.828D-05      0.467D-03      -111.35720842    220.216758    0.40265    0.00000    0.00000   29    diag,B
   69      0.168D-03      0.551D-03      -111.35721956    220.269548    0.40432    0.00000    0.00000   29    diag,B
   70      0.116D-03      0.515D-03      -111.35762321    220.571204    0.39912    0.00000    0.00000   29    orth
   71      0.338D-03      0.389D-03      -111.35755232    220.594819    0.39779    0.00000    0.00000   29    diag,B
   72      0.670D-04      0.369D-03      -111.35719408    220.498765    0.39766    0.00000    0.00000   29    diag,B
   73      0.162D-03      0.399D-03      -111.35725569    220.469855    0.39840    0.00000    0.00000   29    diag,B
   74      0.715D-04      0.431D-03      -111.35729528    220.496264    0.39843    0.00000    0.00000   29    diag,B
   75      0.160D-04      0.412D-03      -111.35744576    220.545544    0.39583    0.00000    0.00000   29    diag,B
   76      0.968D-04      0.418D-03      -111.35746573    220.542782    0.39559    0.00000    0.00000   29    diag,B
   77      0.199D-04      0.421D-03      -111.35752366    220.553604    0.39463    0.00000    0.00000   29    diag,B
   78      0.361D-04      0.429D-03      -111.35757438    220.557732    0.39523    0.00000    0.00000   29    diag,B
   79      0.104D-03      0.459D-03      -111.35743770    220.501713    0.39641    0.00000    0.00000   29    diag,B
   80      0.818D-04      0.476D-03      -111.35743324    220.472211    0.39643    0.00000    0.00000   29    orth
   81      0.696D-04      0.482D-03      -111.35765695    220.527139    0.39469    0.00000    0.00000   29    diag,B
   82      0.114D-03      0.462D-03      -111.35785356    220.577401    0.39241    0.00000    0.00000   29    diag,B
   83      0.114D-03      0.463D-03      -111.35795459    220.644533    0.39128    0.00000    0.00000   29    diag,B
   84      0.931D-04      0.426D-03      -111.35801400    220.674823    0.39095    0.00000    0.00000   29    diag,B
   85      0.568D-04      0.419D-03      -111.35793869    220.646932    0.39204    0.00000    0.00000   29    diag,B
   86      0.436D-04      0.431D-03      -111.35804477    220.635061    0.39057    0.00000    0.00000   29    diag,B
   87      0.824D-04      0.451D-03      -111.35798925    220.632015    0.39103    0.00000    0.00000   29    diag,B
   88      0.411D-04      0.440D-03      -111.35792766    220.644271    0.39090    0.00000    0.00000   29    diag,B
   89      0.637D-04      0.424D-03      -111.35805400    220.719265    0.39028    0.00000    0.00000   29    diag,B
   90      0.882D-04      0.389D-03      -111.35799683    220.697888    0.39146    0.00000    0.00000   29    orth
   91      0.392D-04      0.401D-03      -111.35819871    220.715784    0.38656    0.00000    0.00000   29    diag,B
   92      0.112D-03      0.415D-03      -111.35799282    220.660636    0.39093    0.00000    0.00000   29    diag,B
   93      0.109D-03      0.423D-03      -111.35802782    220.653442    0.38971    0.00000    0.00000   29    diag,B
   94      0.354D-04      0.438D-03      -111.35804011    220.651108    0.39002    0.00000    0.00000   29    diag,B
   95      0.108D-04      0.442D-03      -111.35797748    220.639202    0.39134    0.00000    0.00000   29    diag,B
   96      0.543D-04      0.439D-03      -111.35809491    220.665249    0.38949    0.00000    0.00000   29    diag,B
   97      0.902D-04      0.438D-03      -111.35808409    220.648215    0.38920    0.00000    0.00000   29    diag,B
   98      0.242D-04      0.446D-03      -111.35800705    220.623334    0.39036    0.00000    0.00000   29    diag,B
   99      0.600D-04      0.448D-03      -111.35803006    220.639666    0.38956    0.00000    0.00000   29    diag,B
  100      0.258D-04      0.443D-03      -111.35800391    220.636645    0.39049    0.00000    0.00000   29    orth
  101      0.323D-04      0.444D-03      -111.35808560    220.649697    0.38928    0.00000    0.00000   29    diag,B
  102      0.792D-04      0.448D-03      -111.35802656    220.622625    0.38971    0.00000    0.00000   29    diag,B
  103      0.368D-04      0.454D-03      -111.35796342    220.586867    0.39084    0.00000    0.00000   29    diag,B
  104      0.655D-04      0.470D-03      -111.35799222    220.598863    0.39027    0.00000    0.00000   29    diag,B
  105      0.240D-04      0.466D-03      -111.35794967    220.588877    0.39097    0.00000    0.00000   29    diag,B
  106      0.393D-04      0.466D-03      -111.35793106    220.582425    0.39083    0.00000    0.00000   29    diag,B
  107      0.506D-04      0.469D-03      -111.35794703    220.598970    0.39116    0.00000    0.00000   29    diag,B
  108      0.309D-04      0.462D-03      -111.35810839    220.645161    0.38884    0.00000    0.00000   29    diag,B
  109      0.983D-04      0.455D-03      -111.35806453    220.627618    0.38908    0.00000    0.00000   29    diag,B
  110      0.590D-04      0.451D-03      -111.35804281    220.612735    0.38960    0.00000    0.00000   29    orth
  111      0.246D-04      0.458D-03      -111.35812705    220.641506    0.38936    0.00000    0.00000   29    diag,B
  112      0.529D-04      0.451D-03      -111.35810194    220.631563    0.38968    0.00000    0.00000   29    diag,B
  113      0.154D-04      0.454D-03      -111.35811020    220.654410    0.39031    0.00000    0.00000   29    diag,B
  114      0.253D-04      0.436D-03      -111.35793845    220.596506    0.39045    0.00000    0.00000   29    diag,B
  115      0.867D-04      0.455D-03      -111.35804806    220.628537    0.38983    0.00000    0.00000   29    diag,B
  116      0.590D-04      0.452D-03      -111.35811212    220.643575    0.38918    0.00000    0.00000   29    diag,B
  117      0.372D-04      0.452D-03      -111.35802945    220.639527    0.39085    0.00000    0.00000   29    diag,B
  118      0.635D-04      0.435D-03      -111.35793761    220.613596    0.39143    0.00000    0.00000   29    diag,B
  119      0.511D-04      0.441D-03      -111.35809458    220.654428    0.39079    0.00000    0.00000   29    diag,B
  120      0.844D-04      0.437D-03      -111.35796093    220.616429    0.39094    0.00000    0.00000   29    orth
  121      0.703D-04      0.453D-03      -111.35801016    220.640261    0.39135    0.00000    0.00000   29    diag,B
  122      0.432D-04      0.439D-03      -111.35791473    220.623236    0.39009    0.00000    0.00000   29    diag,B
  123      0.608D-04      0.446D-03      -111.35794641    220.630208    0.38991    0.00000    0.00000   29    diag,B
  124      0.229D-04      0.447D-03      -111.35794410    220.618381    0.39152    0.00000    0.00000   29    diag,B
  125      0.674D-04      0.445D-03      -111.35796432    220.627930    0.39117    0.00000    0.00000   29    diag,B
  126      0.386D-04      0.445D-03      -111.35809061    220.665724    0.38964    0.00000    0.00000   29    diag,B
  127      0.996D-04      0.433D-03      -111.35811059    220.642310    0.38891    0.00000    0.00000   29    diag,B
  128      0.432D-04      0.447D-03      -111.35803664    220.595159    0.39015    0.00000    0.00000   29    diag,B
  129      0.706D-04      0.466D-03      -111.35802528    220.593841    0.39009    0.00000    0.00000   29    diag,B
  130      0.157D-04      0.465D-03      -111.35804642    220.610579    0.39064    0.00000    0.00000   29    orth
  131      0.543D-04      0.455D-03      -111.35797811    220.584874    0.39088    0.00000    0.00000   29    diag,B
  132      0.438D-04      0.467D-03      -111.35803176    220.621222    0.39134    0.00000    0.00000   29    diag,B
  133      0.477D-04      0.447D-03      -111.35793419    220.586617    0.39113    0.00000    0.00000   29    diag,B
  134      0.515D-04      0.463D-03      -111.35798475    220.620416    0.39173    0.00000    0.00000   29    diag,B
  135      0.389D-04      0.446D-03      -111.35790495    220.593609    0.39035    0.00000    0.00000   29    diag,B
  136      0.441D-04      0.461D-03      -111.35791613    220.610135    0.39088    0.00000    0.00000   29    diag,B
  137      0.269D-04      0.452D-03      -111.35810737    220.646744    0.38872    0.00000    0.00000   29    diag,B
  138      0.126D-03      0.447D-03      -111.35814804    220.642634    0.38903    0.00000    0.00000   29    diag,B
  139      0.283D-04      0.448D-03      -111.35805075    220.607048    0.38995    0.00000    0.00000   29    diag,B
  140      0.668D-04      0.459D-03      -111.35814330    220.635907    0.38970    0.00000    0.00000   29    orth
  141      0.555D-04      0.451D-03      -111.35810706    220.629645    0.39049    0.00000    0.00000   29    diag,B
  142      0.432D-04      0.451D-03      -111.35814938    220.640364    0.38978    0.00000    0.00000   29    diag,B
  143      0.416D-04      0.452D-03      -111.35815145    220.651776    0.39028    0.00000    0.00000   29    diag,B
  144      0.288D-04      0.443D-03      -111.35804888    220.612301    0.38975    0.00000    0.00000   29    diag,B
  145      0.609D-04      0.459D-03      -111.35805113    220.613525    0.38985    0.00000    0.00000   29    diag,B
  146      0.314D-04      0.461D-03      -111.35809472    220.626296    0.38984    0.00000    0.00000   29    diag,B
  147      0.227D-04      0.457D-03      -111.35801219    220.614383    0.39106    0.00000    0.00000   29    diag,B
  148      0.562D-04      0.451D-03      -111.35807558    220.627470    0.39008    0.00000    0.00000   29    diag,B
  149      0.575D-04      0.449D-03      -111.35817586    220.659740    0.38968    0.00000    0.00000   29    diag,B
  150      0.560D-04      0.445D-03      -111.35816558    220.652716    0.38947    0.00000    0.00000   29    orth
  151      0.949D-05      0.450D-03      -111.35796694    220.612690    0.39159    0.00000    0.00000   29    diag,B
  152      0.117D-03      0.444D-03      -111.35807667    220.649656    0.39105    0.00000    0.00000   29    diag,B
  153      0.689D-04      0.432D-03      -111.35812703    220.658689    0.39085    0.00000    0.00000   29    diag,B
  154      0.355D-04      0.439D-03      -111.35823718    220.684923    0.38901    0.00000    0.00000   29    diag,B
  155      0.767D-04      0.442D-03      -111.35806529    220.662302    0.39054    0.00000    0.00000   29    diag,B
  156      0.944D-04      0.429D-03      -111.35802244    220.644772    0.39176    0.00000    0.00000   29    diag,B
  157      0.481D-04      0.431D-03      -111.35807228    220.655287    0.39065    0.00000    0.00000   29    diag,B
  158      0.430D-04      0.439D-03      -111.35808936    220.648578    0.39051    0.00000    0.00000   29    diag,B
  159      0.526D-04      0.446D-03      -111.35791281    220.606491    0.39162    0.00000    0.00000   29    diag,B
  160      0.966D-04      0.450D-03      -111.35810603    220.667951    0.39118    0.00000    0.00000   29    orth
  161      0.114D-03      0.423D-03      -111.35817412    220.674024    0.39087    0.00000    0.00000   29    diag,B
  162      0.484D-04      0.433D-03      -111.35817763    220.656815    0.38957    0.00000    0.00000   29    diag,B
  163      0.344D-04      0.452D-03      -111.35782112    220.574518    0.39226    0.00000    0.00000   29    diag,B
  164      0.200D-03      0.454D-03      -111.35798724    220.622406    0.39231    0.00000    0.00000   29    diag,B
  165      0.918D-04      0.438D-03      -111.35796102    220.616935    0.39153    0.00000    0.00000   29    diag,B
  166      0.330D-04      0.450D-03      -111.35825033    220.692902    0.39007    0.00000    0.00000   29    diag,B
  167      0.171D-03      0.433D-03      -111.35811125    220.668226    0.39108    0.00000    0.00000   29    diag,B
  168      0.764D-04      0.429D-03      -111.35793014    220.631632    0.39211    0.00000    0.00000   29    diag,B
  169      0.118D-03      0.424D-03      -111.35803436    220.632072    0.39060    0.00000    0.00000   29    diag,B
  170      0.703D-04      0.451D-03      -111.35821833    220.676334    0.38947    0.00000    0.00000   29    orth
  171      0.109D-03      0.447D-03      -111.35804586    220.644752    0.39180    0.00000    0.00000   29    diag,B
  172      0.102D-03      0.433D-03      -111.35789182    220.611341    0.39213    0.00000    0.00000   29    diag,B
  173      0.885D-04      0.437D-03      -111.35796991    220.623554    0.39134    0.00000    0.00000   29    diag,B
  174      0.549D-04      0.448D-03      -111.35823623    220.685015    0.38860    0.00000    0.00000   29    diag,B
  175      0.163D-03      0.447D-03      -111.35817581    220.678593    0.38925    0.00000    0.00000   29    diag,B
  176      0.624D-04      0.427D-03      -111.35815213    220.658500    0.39008    0.00000    0.00000   29    diag,B
  177      0.483D-04      0.438D-03      -111.35821308    220.674693    0.38929    0.00000    0.00000   29    diag,B
  178      0.480D-04      0.442D-03      -111.35816222    220.661265    0.39043    0.00000    0.00000   29    diag,B
  179      0.458D-04      0.441D-03      -111.35812857    220.663410    0.39037    0.00000    0.00000   29    diag,B
  180      0.286D-04      0.435D-03      -111.35805856    220.647307    0.39144    0.00000    0.00000   29    orth
  181      0.623D-04      0.437D-03      -111.35808378    220.660253    0.39011    0.00000    0.00000   29    diag,B
  182      0.478D-04      0.438D-03      -111.35795774    220.629520    0.39131    0.00000    0.00000   29    diag,B
  183      0.891D-04      0.443D-03      -111.35814982    220.694300    0.38906    0.00000    0.00000   29    diag,B
  184      0.131D-03      0.426D-03      -111.35820915    220.701435    0.38836    0.00000    0.00000   29    diag,B
  185      0.422D-04      0.427D-03      -111.35814906    220.670760    0.38949    0.00000    0.00000   29    diag,B
  186      0.567D-04      0.436D-03      -111.35813271    220.672161    0.38876    0.00000    0.00000   29    diag,B
  187      0.303D-04      0.436D-03      -111.35805544    220.639628    0.38955    0.00000    0.00000   29    diag,B
  188      0.480D-04      0.450D-03      -111.35821491    220.680166    0.38919    0.00000    0.00000   29    diag,B
  189      0.911D-04      0.439D-03      -111.35820861    220.676294    0.39080    0.00000    0.00000   29    diag,B
  190      0.320D-04      0.431D-03      -111.35802512    220.645891    0.38959    0.00000    0.00000   29    orth
  191      0.954D-04      0.437D-03      -111.35808450    220.654777    0.39011    0.00000    0.00000   29    diag,B
  192      0.380D-04      0.442D-03      -111.35807771    220.650636    0.38916    0.00000    0.00000   29    diag,B
  193      0.345D-04      0.450D-03      -111.35788651    220.603873    0.39049    0.00000    0.00000   29    diag,B
  194      0.113D-03      0.454D-03      -111.35810634    220.670427    0.39040    0.00000    0.00000   29    diag,B
  195      0.123D-03      0.426D-03      -111.35809591    220.661823    0.39110    0.00000    0.00000   29    diag,B
  196      0.265D-04      0.433D-03      -111.35810740    220.673001    0.38807    0.00000    0.00000   29    diag,B
  197      0.595D-04      0.442D-03      -111.35794129    220.636352    0.38886    0.00000    0.00000   29    diag,B
  198      0.999D-04      0.444D-03      -111.35812384    220.672524    0.38963    0.00000    0.00000   29    diag,B
  199      0.105D-03      0.430D-03      -111.35808428    220.654337    0.39081    0.00000    0.00000   29    orth
  200      0.315D-04      0.438D-03      -111.35832616    220.989986    0.39301    0.00000    0.00000    0    orth

 Final alpha occupancy:   5   3   3   1
 Final beta  occupancy:   4   2   2   0

 !RKS STATE 1.1 Energy               -111.358326156602
   --><property name="Energy" method="RKS" principal="true" stateSymmetry="1" stateNumber="1"
     value="-111.358326156602"/><!--
 Nuclear energy                        13.40551418
 One-electron energy                 -225.29399388
 Two-electron energy                  110.49499307
 Density functional                    -9.96483953     PBEX=-12.36570229 PBEC= -0.69056281
 Virial quotient                       -0.79263953
 !RKS STATE 1.1 Dipole moment           0.39300582     0.00000000     0.00000000
 Dipole moment /Debye                   0.99885573     0.00000000     0.00000000
   --><property name="Dipole moment" method="RKS" principal="true" stateSymmetry="1"
     stateNumber="1" value="0.393005819891105 0.0 0.0"/><!--

 ELECTRON ORBITALS
 =================


   Orb  Occ    Energy  Couls-En    Coefficients

                                   1 1s      1 1s      1 1s      1 1s      1 1s      1 1s      1 1s      1 1s      1 1s      1 1s
                                   1 1s      1 1s      1 1s      1 1s      1 1s      1 1s      1 1s      1 1s      1 1s      1 1s
                                   1 1s      1 1s      1 1s      1 1s      1 1s      1 1s      1 1s      1 1s      1 1s      1 1s
                                   1 1s      1 1s      1 2px     1 2px     1 2px     1 2px     1 2px     1 2px     1 2px     1 2px
                                   1 2px     1 2px     1 2px     1 2px     1 2px     1 2px     1 2px     1 2px     1 2px     1 2px
                                   1 2px     1 2px     1 2px     1 2px     1 2px     1 2px     1 2px     1 2px     1 2px     1 2px
                                   1 2px     1 2px     1 3d0     1 3d2+    1 3d0     1 3d2+    1 3d0     1 3d2+    1 3d0     1 3d2+
                                   1 3d0     1 3d2+    1 3d0     1 3d2+    1 3d0     1 3d2+    1 3d0     1 3d2+    1 3d0     1 3d2+
                                   1 3d0     1 3d2+    1 3d0     1 3d2+    1 3d0     1 3d2+    1 3d0     1 3d2+    1 3d0     1 3d2+
                                   1 3d0     1 3d2+    1 3d0     1 3d2+    1 3d0     1 3d2+    1 3d0     1 3d2+    1 3d0     1 3d2+
                                   1 3d0     1 3d2+    1 3d0     1 3d2+    1 3d0     1 3d2+    1 4f1+    1 4f3+    1 4f1+    1 4f3+
                                   1 4f1+    1 4f3+    1 4f1+    1 4f3+    1 4f1+    1 4f3+    1 4f1+    1 4f3+    1 4f1+    1 4f3+
                                   1 4f1+    1 4f3+    1 4f1+    1 4f3+    1 4f1+    1 4f3+    1 4f1+    1 4f3+    1 4f1+    1 4f3+
                                   1 4f1+    1 4f3+    1 4f1+    1 4f3+    1 5g0     1 5g4+    1 5g2+    1 5g0     1 5g4+    1 5g2+
                                   1 5g0     1 5g4+    1 5g2+    1 5g0     1 5g4+    1 5g2+    1 5g0     1 5g4+    1 5g2+    1 5g0
                                   1 5g4+    1 5g2+    1 5g0     1 5g4+    1 5g2+    1 5g0     1 5g4+    1 5g2+    1 5g0     1 5g4+
                                   1 5g2+    1 6h1+    1 6h3+    1 6h5+    1 6h1+    1 6h3+    1 6h5+    1 6h1+    1 6h3+    1 6h5+
                                   2 1s      2 1s      2 1s      2 1s      2 1s      2 1s      2 2px     2 2px     2 2px     2 3d0
                                   2 3d2+    2 3d0     2 3d2+    3 1s      3 1s      3 1s      3 1s      3 1s      3 1s      3 2px
                                   3 2py     3 2px     3 2py     3 2px     3 2py     3 3d0     3 3d2+    3 3d2-    3 3d0     3 3d2+
                                   3 3d2-

   1.1   2    -2.0042  -14.9107 -0.000000  0.000001 -0.000007  0.000121  0.000529  0.001645  0.003480  0.007772 -0.003116  0.006106
                                 0.010691  0.760038 -0.063438  0.024675  0.730097  0.487928  0.496281  0.330899  0.124718 -0.000211
                                -0.000952 -0.002813 -0.008011 -0.042207 -1.187503  0.147099 -0.223517 -0.606077 -0.187901 -0.005876
                                 0.002090 -0.000454  0.000000 -0.000000  0.000000 -0.000000  0.000000 -0.000000  0.000000 -0.000000
                                 0.000001 -0.000007 -0.000036  0.000016 -0.001165  0.001227 -0.002962 -0.000551 -0.000563  0.000265
                                -0.000200  0.000023  0.000017  0.000535  0.001390 -0.001901 -0.002440  0.000107  0.000597 -0.000119
                                -0.000032  0.000006  0.000000 -0.000000 -0.000001  0.000001  0.000003 -0.000006 -0.000018  0.000029
                                 0.000346 -0.000319  0.002204  0.001288  0.001507 -0.007621 -0.001040 -0.000050 -0.004933  0.000936
                                -0.000386  0.000937 -0.000801  0.000449 -0.002631 -0.005093 -0.000068  0.010744  0.002124  0.000417
                                 0.005989  0.000539  0.000856 -0.000645  0.002001  0.000360  0.001492 -0.000370 -0.000992  0.000260
                                 0.000417  0.000006 -0.000157  0.000011  0.000044 -0.000004  0.000000  0.000000 -0.000000 -0.000000
                                 0.000006  0.000006  0.000181  0.000148  0.000171  0.000473  0.000111  0.000609 -0.000116 -0.001423
                                 0.000059 -0.000026  0.000170 -0.000342  0.000057  0.001448  0.000024 -0.002405 -0.000067 -0.000212
                                -0.000014  0.000170 -0.000010 -0.000057 -0.000030 -0.000062 -0.000069 -0.000171 -0.000261  0.000241
                                 0.000111  0.000188  0.000039  0.000089  0.000292 -0.000124 -0.000143  0.000212  0.000013  0.000527
                                -0.000281 -0.000018 -0.000397  0.000102  0.000083 -0.000061  0.000007 -0.000034  0.000056  0.000053
                                 0.000005  0.000005  0.000003  0.000002 -0.000007 -0.000006  0.000009 -0.000009  0.000036  0.000056
                                 0.000024  0.000274  0.000730  0.002074  0.005021 -0.000058 -0.000195 -0.001414 -0.002206 -0.000098
                                 0.000164 -0.000197  0.000381  0.000035  0.000374  0.001084  0.002615  0.006890  0.000784  0.000158
                                 0.000251  0.000707  0.001459  0.001157  0.002538 -0.000119 -0.000089  0.000173 -0.000173 -0.000319
                                 0.000285

   2.1   2    -1.1793  -12.2994 -0.000000  0.000000 -0.000000  0.000001  0.000003  0.000009  0.000019  0.000040 -0.000015  0.000020
                                 0.000192  0.004315 -0.000249  0.003454  0.008591 -0.000431 -0.006383  0.000396 -0.004509 -0.000001
                                -0.000005 -0.000015 -0.000042 -0.000395 -0.006883 -0.007639  0.009741 -0.000163  0.002170 -0.000053
                                 0.000019 -0.000004  0.000000 -0.000000  0.000001 -0.000002  0.000003 -0.000004  0.000008 -0.000025
                                 0.000103 -0.000965 -0.010003 -0.007951  0.167283 -0.092453  0.222168  0.367619  0.087108  0.005770
                                -0.003690  0.003859  0.013106 -0.085822 -0.192797  0.153430  0.336491  0.002850  0.004892 -0.010037
                                -0.000721  0.000127 -0.000000  0.000000  0.000000 -0.000001 -0.000000  0.000003  0.000001 -0.000018
                                -0.000028  0.000348 -0.000288  0.003310  0.000259 -0.006949 -0.000140  0.003192  0.000589  0.010315
                                 0.000362  0.003921  0.000073 -0.000845  0.000481 -0.006349 -0.000475  0.009588 -0.000060 -0.007380
                                 0.000864 -0.010109 -0.001323 -0.000173  0.001594 -0.001019 -0.000563  0.001287  0.000456 -0.000797
                                 0.000091 -0.001439  0.000001  0.000354 -0.000002 -0.000089  0.000001 -0.000002 -0.000010  0.000014
                                 0.000139 -0.000188  0.002794 -0.003735  0.004963 -0.006233  0.003926 -0.004973  0.005311 -0.002639
                                 0.000978 -0.001463  0.000671 -0.001323 -0.001790  0.000060  0.002792 -0.001326 -0.001774  0.000158
                                 0.000911 -0.000186 -0.000055 -0.000023 -0.000004 -0.000005  0.000002  0.000007  0.000054 -0.000008
                                -0.000032 -0.000079  0.000039  0.000055  0.000674 -0.000218  0.000027 -0.001699  0.000463  0.000145
                                 0.003048 -0.001082 -0.000012 -0.001848  0.000847 -0.000062  0.000825 -0.000446  0.000014 -0.000177
                                -0.000011 -0.000015  0.000060 -0.000019  0.000128  0.000647  0.000352  0.000248  0.000177  0.000589
                                 0.000236  0.002600  0.009039  0.020818  0.007218  0.008426 -0.001258 -0.006440 -0.003692 -0.000373
                                 0.000666 -0.000495  0.000917 -0.000167 -0.001844 -0.006328 -0.014703 -0.003408 -0.003904 -0.000293
                                -0.000841 -0.000983 -0.004939 -0.000105 -0.002316  0.000260  0.000470 -0.000291  0.000528  0.001201
                                -0.000218

   3.1   2    -0.5087   -7.1525  0.000000 -0.000000  0.000002 -0.000030 -0.000131 -0.000408 -0.000865 -0.001941  0.000788 -0.001954
                                 0.007545 -0.108016  0.061215 -0.122753 -0.559060 -0.059276  0.071085 -0.264796 -0.219630  0.000052
                                 0.000236  0.000698  0.001997 -0.007772  0.181689  0.367942 -0.087837  0.484670  0.286914  0.007078
                                -0.002538  0.000555 -0.000000  0.000000 -0.000000  0.000000 -0.000000  0.000000 -0.000000  0.000001
                                -0.000001 -0.000017 -0.000321 -0.000459 -0.019722  0.000789 -0.038768 -0.065007  0.053027 -0.048259
                                -0.038111  0.000115  0.000385  0.011632  0.024261 -0.008323 -0.012983  0.012929  0.055405 -0.036513
                                -0.003338  0.000589  0.000000 -0.000000 -0.000000  0.000000  0.000001 -0.000000 -0.000004  0.000002
                                 0.000065 -0.000068  0.000614 -0.001235 -0.005336  0.005528  0.006551 -0.004968 -0.006873  0.001823
                                -0.059813  0.032123 -0.000144  0.000207 -0.001468  0.002823  0.004541 -0.005925  0.001313  0.000451
                                -0.028033  0.022746 -0.008022  0.049164 -0.077733 -0.025612  0.008297 -0.011019 -0.007343  0.008182
                                 0.004051 -0.001820 -0.001233  0.000621  0.000329 -0.000165  0.000021  0.000025 -0.000168 -0.000203
                                 0.002387  0.002897  0.048227  0.058691  0.078462  0.096503  0.086065  0.107194  0.053946  0.075443
                                 0.020119  0.024225  0.009469  0.010965 -0.004640  0.002416  0.016328  0.054321  0.000646  0.000623
                                 0.000851  0.001274 -0.000619 -0.000961  0.000029  0.000001  0.000014 -0.000021  0.000053 -0.000090
                                 0.000179 -0.000185  0.000066 -0.000150  0.000205 -0.000405  0.001070  0.000053  0.000358 -0.001087
                                 0.001587 -0.001837  0.001800  0.001336  0.000445  0.004698 -0.004311  0.002768 -0.001508  0.001274
                                -0.000654 -0.000077  0.000157 -0.000002 -0.000265  0.000136  0.000072  0.000106  0.000069  0.000172
                                 0.002966  0.033391  0.131270  0.317573  0.266446  0.012050 -0.001533 -0.023596 -0.030054 -0.000512
                                 0.001131 -0.001978  0.003399  0.001699  0.019123  0.072893  0.177574  0.030884  0.014451  0.000833
                                 0.001400  0.010241  0.019194 -0.007709 -0.012094 -0.000832 -0.000861  0.001232 -0.004365 -0.004298
                                 0.004501

   4.1   2    -0.4801  -12.6840 -0.000000  0.000000 -0.000001  0.000011  0.000050  0.000155  0.000330  0.000746 -0.000306  0.000590
                                 0.001705  0.098713  0.037741 -0.105808 -0.299265  0.323870  0.105196 -0.048441  0.068798 -0.000020
                                -0.000090 -0.000266 -0.000766 -0.005300 -0.170415  0.451956 -0.460875  0.242769 -0.086982 -0.001281
                                 0.000414 -0.000085  0.000000 -0.000000  0.000000 -0.000000  0.000000 -0.000000  0.000001 -0.000002
                                 0.000013 -0.000179 -0.002116 -0.001954 -0.016507 -0.012356 -0.074117 -0.099788  0.159379 -0.212333
                                -0.078551  0.000816  0.002612  0.011487  0.021228  0.015841  0.067546  0.021296  0.110210 -0.042424
                                -0.005924  0.001079  0.000000 -0.000000 -0.000000  0.000001  0.000000 -0.000003 -0.000001  0.000016
                                 0.000018 -0.000279 -0.000015 -0.002146  0.002802  0.005143 -0.003771 -0.004244 -0.002466 -0.005606
                                 0.011325  0.003991 -0.000038  0.000634  0.000373  0.003899 -0.002197 -0.006206  0.001120  0.004236
                                 0.023027  0.020364  0.091260  0.080225 -0.091594 -0.106222 -0.000153 -0.021353  0.001321  0.020450
                                -0.000199  0.003363 -0.000290 -0.000161  0.000111 -0.000007  0.000059  0.000059 -0.000474 -0.000478
                                 0.006721  0.006764  0.136060  0.135468  0.221911  0.218994  0.244305  0.241717  0.157481  0.159757
                                 0.056523  0.057774  0.025928  0.030654 -0.005703 -0.023927  0.058894  0.062508  0.001269  0.013252
                                 0.001965 -0.002547 -0.002722  0.000468  0.000055 -0.000052  0.000012 -0.000128  0.000071 -0.000112
                                 0.000588 -0.000492  0.000239 -0.000953  0.000701 -0.000880  0.002578 -0.002036  0.001460 -0.005099
                                 0.004201 -0.003245 -0.000054  0.003309  0.000516  0.008437 -0.017077  0.009592 -0.002276  0.004665
                                -0.003132 -0.000186  0.000424  0.000021 -0.000630  0.000525  0.000273  0.000197  0.000547  0.000203
                                -0.000462 -0.005285 -0.020281 -0.051790  0.030078 -0.045500  0.000187  0.003404 -0.016918  0.000136
                                 0.000217 -0.000051  0.000472 -0.001437 -0.016107 -0.065766 -0.143842 -0.387577  0.020871 -0.000265
                                -0.000050  0.001801  0.008837 -0.040031 -0.072367 -0.000936 -0.001304  0.001333 -0.006565 -0.007672
                                 0.008123

   5.1   +    -0.6077  -14.6256  0.000000 -0.000000  0.000000 -0.000003 -0.000012 -0.000036 -0.000076 -0.000163  0.000062 -0.000300
                                 0.004547  0.037312  0.054788 -0.134946 -0.482185  0.251238  0.152985 -0.114518 -0.009005  0.000005
                                 0.000021  0.000062  0.000171 -0.007514 -0.066891  0.527066 -0.434463  0.355091  0.025514  0.001518
                                -0.000563  0.000128  0.000000 -0.000000  0.000000 -0.000000  0.000000 -0.000001  0.000001 -0.000005
                                 0.000032 -0.000445 -0.004824 -0.003474  0.006215  0.016649  0.074637  0.096053 -0.172977  0.225958
                                 0.073927  0.001958  0.005644 -0.001055 -0.023949 -0.004790 -0.070514 -0.017964 -0.097339  0.033433
                                 0.005008 -0.000909  0.000000  0.000000 -0.000000 -0.000000  0.000000  0.000001 -0.000001 -0.000007
                                 0.000023  0.000128  0.000278  0.001198  0.000251 -0.003008 -0.001388  0.002083 -0.002890  0.005544
                                -0.009014  0.012831 -0.000063 -0.000307 -0.000518 -0.002310  0.000319  0.003752  0.002074 -0.004108
                                 0.013016 -0.012332  0.076736 -0.072030 -0.107571  0.119745  0.004014  0.020689 -0.003312 -0.017624
                                 0.001079 -0.003958 -0.000679  0.000373  0.000212 -0.000051 -0.000065  0.000065  0.000522 -0.000528
                                -0.007581  0.007518 -0.156736  0.152156 -0.253710  0.243913 -0.274015  0.264190 -0.167039  0.166775
                                -0.067107  0.066545 -0.034232  0.036945  0.013298 -0.028332 -0.056730  0.068267 -0.000099  0.010180
                                -0.002254 -0.001067  0.002741  0.000099  0.000025  0.000016 -0.000003 -0.000231 -0.000213  0.000190
                                 0.000333  0.000212 -0.000165 -0.001431 -0.001381  0.001117  0.002456  0.002001 -0.001573 -0.005113
                                -0.003902  0.003504  0.000908 -0.002425 -0.000733  0.008610  0.017990 -0.009913 -0.002268 -0.004426
                                 0.003209  0.000513 -0.000042  0.000435  0.001117 -0.000450  0.000813  0.000290 -0.000043  0.000735
                                -0.000092 -0.000883 -0.007104 -0.000092 -0.277981  0.037956 -0.000511 -0.019303  0.073658 -0.001207
                                 0.002137 -0.007029  0.011515 -0.000056 -0.000693 -0.003489 -0.007788 -0.027749 -0.033332  0.000123
                                 0.000265  0.004137  0.005134 -0.005599 -0.000827 -0.000364 -0.000289  0.001052 -0.003192 -0.000456
                                 0.004970

   6.1   0    -0.4444   -6.5720  0.000000 -0.000000  0.000001 -0.000012 -0.000052 -0.000162 -0.000342 -0.000763  0.000310 -0.000821
                                 0.004267 -0.032100  0.030114 -0.063389 -0.262335  0.009607  0.054540 -0.087015 -0.063797  0.000021
                                 0.000094  0.000276  0.000787 -0.005486  0.056924  0.194509 -0.085995  0.209830  0.097499  0.002740
                                -0.000992  0.000219  0.000000 -0.000000  0.000000 -0.000000  0.000001 -0.000001  0.000002 -0.000005
                                 0.000022 -0.000227 -0.002438 -0.002303  0.028645 -0.022727  0.014248  0.059751  0.036973 -0.130801
                                 0.001556  0.000932  0.003263 -0.012567 -0.040735  0.054848  0.132117 -0.009783 -0.027945  0.046301
                                 0.002094 -0.000338  0.000000  0.000000 -0.000000 -0.000001  0.000000  0.000003 -0.000002 -0.000015
                                 0.000046  0.000251  0.000514  0.002269 -0.001977 -0.009538  0.001816  0.010800 -0.002271 -0.009186
                                -0.019914 -0.088475 -0.000117 -0.000591 -0.001047 -0.004460  0.002077  0.009326  0.000688  0.000175
                                -0.007016 -0.047819  0.008190 -0.044900 -0.041671 -0.074013  0.002300 -0.000268 -0.004083 -0.003958
                                 0.001133  0.008197 -0.000451 -0.001806  0.000129  0.000432  0.000017  0.000018 -0.000134 -0.000141
                                 0.001943  0.002001  0.040182  0.040488  0.066003  0.065781  0.071723  0.071987  0.047802  0.047535
                                 0.016623  0.017152  0.007337  0.008560  0.004579 -0.004212  0.026012  0.027716 -0.001543  0.001954
                                 0.001589  0.000976 -0.001680 -0.000262  0.000005 -0.000038 -0.000006 -0.000060  0.000009 -0.000044
                                 0.000077 -0.000360 -0.000021 -0.000280 -0.000265  0.000020  0.000521 -0.001974  0.000422 -0.001306
                                -0.001076  0.000269  0.000847 -0.002064  0.001131  0.002648 -0.008341  0.003792 -0.000689  0.001424
                                -0.001725 -0.000054  0.000114  0.000230 -0.000268  0.000013  0.000262 -0.000049  0.000062  0.000172
                                -0.002319 -0.026159 -0.103386 -0.254363 -0.204122 -0.043745  0.000593  0.013649  0.013453  0.000228
                                -0.000416 -0.000161 -0.001598  0.002819  0.031798  0.122858  0.300872  0.182815  0.032507  0.001274
                                 0.001099  0.015638  0.019508  0.009020 -0.001422 -0.000757 -0.000275  0.001459 -0.002822 -0.001949
                                 0.005073

   7.1   0    -0.2380   -6.6958  0.000000 -0.000000  0.000002 -0.000031 -0.000134 -0.000417 -0.000886 -0.001997  0.000823 -0.002025
                                 0.006748 -0.148272 -0.001366  0.027435 -0.136466 -0.269062 -0.162832  0.233789  0.051429  0.000053
                                 0.000241  0.000714  0.002051 -0.006304  0.267486 -0.170073  0.123808  0.668031  0.121556  0.005748
                                -0.001805  0.000390 -0.000000  0.000000 -0.000000  0.000000 -0.000000  0.000000 -0.000000  0.000001
                                -0.000002  0.000019  0.000206  0.000252 -0.002309  0.002405 -0.006085 -0.014341 -0.002424  0.022063
                                 0.037736 -0.000075 -0.000303  0.000846  0.003597 -0.004111 -0.006228 -0.003977 -0.009560  0.008787
                                 0.001200 -0.000228 -0.000000  0.000000  0.000002 -0.000001 -0.000009  0.000003  0.000048 -0.000013
                                -0.000853  0.000156 -0.008137  0.000676  0.032167 -0.002799 -0.034539  0.004336  0.014770 -0.003695
                                 0.252552 -0.031151  0.002040 -0.000298  0.016264 -0.001039 -0.032814  0.002317  0.008555 -0.002318
                                 0.150583 -0.020078  0.219725 -0.018883  0.123820 -0.010236  0.085379 -0.003126  0.028636 -0.001517
                                 0.002282 -0.001095 -0.000750  0.000223  0.000243 -0.000053  0.000001  0.000003 -0.000011 -0.000020
                                 0.000156  0.000284  0.003110  0.005491  0.004847  0.008230  0.005214  0.008568  0.002226  0.005867
                                 0.001409  0.002655  0.000963  0.002176 -0.000204 -0.011940  0.000366  0.013052 -0.000233  0.017335
                                 0.000438 -0.008339  0.000040  0.002185  0.000011  0.000032  0.000036  0.000110  0.000126  0.000155
                                -0.000016  0.000240  0.000323  0.000033 -0.000046  0.000445  0.001166  0.000026  0.000460  0.000442
                                 0.000169  0.000617  0.004465  0.001096  0.000269  0.001037  0.001106  0.000021 -0.001109 -0.000005
                                -0.000145 -0.000003  0.000009  0.000027 -0.000022  0.000010  0.000040 -0.000096  0.000030  0.000025
                                -0.000384 -0.004327 -0.017944 -0.053021 -0.110544 -0.006972  0.000737  0.006290  0.014184  0.000677
                                -0.000535  0.002456  0.000159 -0.000728 -0.008188 -0.033580 -0.091999 -0.172999 -0.024688  0.000061
                                -0.000550 -0.000341 -0.005340 -0.004412 -0.015013  0.000736  0.000338 -0.000276  0.002968  0.000082
                                 0.001436

                                   1 2py     1 2py     1 2py     1 2py     1 2py     1 2py     1 2py     1 2py     1 2py     1 2py
                                   1 2py     1 2py     1 2py     1 2py     1 2py     1 2py     1 2py     1 2py     1 2py     1 2py
                                   1 2py     1 2py     1 2py     1 2py     1 2py     1 2py     1 2py     1 2py     1 2py     1 2py
                                   1 3d2-    1 3d2-    1 3d2-    1 3d2-    1 3d2-    1 3d2-    1 3d2-    1 3d2-    1 3d2-    1 3d2-
                                   1 3d2-    1 3d2-    1 3d2-    1 3d2-    1 3d2-    1 3d2-    1 3d2-    1 3d2-    1 3d2-    1 3d2-
                                   1 3d2-    1 3d2-    1 4f1-    1 4f3-    1 4f1-    1 4f3-    1 4f1-    1 4f3-    1 4f1-    1 4f3-
                                   1 4f1-    1 4f3-    1 4f1-    1 4f3-    1 4f1-    1 4f3-    1 4f1-    1 4f3-    1 4f1-    1 4f3-
                                   1 4f1-    1 4f3-    1 4f1-    1 4f3-    1 4f1-    1 4f3-    1 4f1-    1 4f3-    1 4f1-    1 4f3-
                                   1 5g2-    1 5g4-    1 5g2-    1 5g4-    1 5g2-    1 5g4-    1 5g2-    1 5g4-    1 5g2-    1 5g4-
                                   1 5g2-    1 5g4-    1 5g2-    1 5g4-    1 5g2-    1 5g4-    1 5g2-    1 5g4-    1 6h1-    1 6h3-
                                   1 6h5-    1 6h1-    1 6h3-    1 6h5-    1 6h1-    1 6h3-    1 6h5-    2 2py     2 2py     2 2py
                                   2 3d2-    2 3d2-    3 1s      3 1s      3 1s      3 1s      3 1s      3 1s      3 2py     3 2px
                                   3 2py     3 2px     3 2py     3 2px     3 3d2-    3 3d0     3 3d2+    3 3d2-    3 3d0     3 3d2+


   1.2   2    -1.1723  -12.3017 -0.000000  0.000000 -0.000001  0.000002 -0.000002  0.000003 -0.000006  0.000017 -0.000070  0.000653
                                 0.006845  0.005443 -0.161239  0.098345 -0.217492 -0.367238 -0.086452 -0.007056  0.002013 -0.002606
                                -0.009169  0.083517  0.184173 -0.154713 -0.342490 -0.002262 -0.003236  0.008044  0.000572 -0.000101
                                 0.000000 -0.000001  0.000003 -0.000017  0.000313  0.002840 -0.005955  0.002346  0.011520  0.004117
                                -0.000746 -0.005440  0.008261 -0.007166 -0.006976 -0.002768  0.000064  0.000981 -0.000622 -0.001262
                                 0.000323 -0.000080 -0.000001 -0.000000  0.000008  0.000003 -0.000096 -0.000010 -0.001349  0.000731
                                -0.002054  0.001781 -0.002412  0.000540 -0.004580  0.000426 -0.001113 -0.000755 -0.000438 -0.000373
                                 0.001417 -0.000987 -0.002231  0.000380  0.001765  0.000044 -0.000827  0.000158  0.000058 -0.000059
                                 0.000006  0.000013  0.000011 -0.000043  0.000050  0.000205 -0.000027 -0.000646  0.000665  0.002074
                                -0.000799 -0.002490  0.000903  0.001664 -0.000519 -0.000851  0.000025  0.000121  0.000146  0.000098
                                 0.000143  0.000201  0.000683  0.000465  0.000282  0.000520 -0.000031 -0.000171 -0.001408 -0.000876
                                 0.000253  0.000702  0.000259  0.002844  0.009621  0.022016  0.004454  0.007816  0.001202  0.000868
                                 0.006063  0.004343  0.002970  0.001478  0.000794 -0.000458 -0.000209  0.001128 -0.000619 -0.000427

   2.2   2    -0.4630   -6.0071  0.000000 -0.000000  0.000000 -0.000000  0.000000 -0.000001  0.000001 -0.000004  0.000017 -0.000161
                                -0.001742 -0.001509  0.035441 -0.021218  0.031840  0.088077  0.009714 -0.095056  0.018166  0.000654
                                 0.002358 -0.017645 -0.044859  0.047438  0.116453 -0.016105 -0.056919  0.059941  0.003833 -0.000655
                                -0.000000  0.000001 -0.000002  0.000011 -0.000171 -0.001328  0.008724 -0.012011  0.010395  0.101748
                                 0.000383  0.002642 -0.007250 -0.001649  0.055024  0.075927  0.055098 -0.002770  0.007858 -0.007541
                                 0.001763 -0.000426  0.000003 -0.000000 -0.000024  0.000001  0.000356 -0.000018  0.007490 -0.000617
                                 0.013210 -0.001281  0.015463 -0.000988  0.013987 -0.000624  0.002790  0.000072  0.000050  0.000269
                                 0.007588 -0.001699  0.016129 -0.000725 -0.001437  0.000131  0.001511 -0.000117 -0.001216  0.000057
                                -0.000006 -0.000004 -0.000031 -0.000039 -0.000111 -0.000172 -0.000357  0.000070 -0.000265 -0.001439
                                -0.001703 -0.000521 -0.000764 -0.002560 -0.001916 -0.005232  0.001140  0.000368 -0.000033 -0.000003
                                 0.000006 -0.000062 -0.000165 -0.000071 -0.000095 -0.000098  0.000142  0.000340  0.003117  0.006922
                                -0.000383 -0.001613  0.003774  0.042609  0.165870  0.405639  0.339111  0.044396  0.001508  0.000888
                                 0.024089  0.012495  0.028538  0.011199  0.000938 -0.000608 -0.000643  0.002221 -0.000840 -0.002766

   3.2   +    -0.6138  -14.6570  0.000000 -0.000000  0.000000 -0.000000  0.000000 -0.000000  0.000000 -0.000003  0.000025 -0.000465
                                -0.005532 -0.003239  0.006423  0.014666  0.067476  0.086966 -0.152644  0.206705  0.069362  0.002205
                                 0.006173 -0.002209 -0.018032 -0.011182 -0.070641 -0.017491 -0.093179  0.033755  0.004851 -0.000879
                                -0.000000  0.000000 -0.000001  0.000005 -0.000108 -0.001113  0.002655 -0.001424 -0.006235 -0.012344
                                 0.000273  0.002176 -0.003492  0.002909  0.008250  0.065085 -0.108182 -0.019640  0.016887  0.003350
                                -0.000255  0.000024 -0.000059  0.000067  0.000476 -0.000538 -0.007028  0.007861 -0.145867  0.164026
                                -0.234998  0.265718 -0.253884  0.286131 -0.153265  0.167558 -0.063836  0.069339 -0.034002  0.034737
                                 0.012809 -0.004190 -0.051630  0.036478  0.000076 -0.026262 -0.002024  0.012340  0.002496 -0.004336
                                 0.000052  0.000011 -0.000043 -0.000201  0.000497  0.000241 -0.000335 -0.001206  0.001712  0.001733
                                -0.003104 -0.003534  0.000652 -0.002357  0.008999  0.016336 -0.002913 -0.004149  0.000378  0.000108
                                 0.000592  0.000127 -0.000137  0.000790 -0.000263  0.000081  0.000788  0.000171  0.003315  0.003942
                                -0.001072 -0.005332  0.000111  0.001136  0.006540  0.004585  0.202560 -0.045070 -0.000385  0.000117
                                -0.009934 -0.002839  0.041512  0.037054 -0.000317  0.000658  0.001380 -0.003328  0.003433  0.006196

   4.2   0    -0.2499  -13.6439  0.000000 -0.000000  0.000000 -0.000001  0.000001 -0.000002  0.000005 -0.000016  0.000094 -0.001257
                                -0.012860 -0.010012 -0.014940 -0.007234 -0.083344 -0.113740  0.183496 -0.342140 -0.129516  0.005356
                                 0.014997  0.016294  0.002009  0.051038  0.122665  0.032515  0.161529 -0.058700 -0.009431  0.001770
                                 0.000000 -0.000001  0.000004 -0.000019  0.000341  0.003121 -0.009735  0.008374  0.004848 -0.026017
                                -0.000805 -0.006142  0.011055 -0.006721 -0.039141 -0.123837  0.131218  0.012652 -0.034592 -0.008130
                                 0.001043 -0.000201  0.000055  0.000050 -0.000455 -0.000409  0.007089  0.006320  0.149594  0.134313
                                 0.248614  0.224834  0.283502  0.255329  0.197053  0.171757  0.062670  0.053982  0.027596  0.021240
                                 0.005654  0.016286  0.095138  0.061411  0.007373 -0.025143  0.003816  0.017744 -0.004442 -0.006067
                                -0.000055 -0.000063  0.000078  0.000107 -0.000560 -0.000600  0.000557  0.000596 -0.002293 -0.002480
                                 0.004073  0.004434 -0.000918  0.001556 -0.013745 -0.024005  0.004832  0.007459  0.001096  0.000945
                                 0.001616  0.000903  0.000511  0.001497  0.001066  0.000709  0.001046 -0.000173 -0.001300  0.006122
                                -0.000412 -0.000707  0.000002  0.000183 -0.002028  0.008457 -0.289104  0.084601 -0.000308  0.001315
                                 0.007065  0.016622 -0.078548 -0.023098  0.001996 -0.000988  0.001016  0.010929 -0.005684  0.003303

   5.2   0    -0.2066   -6.4923 -0.000000  0.000000 -0.000000  0.000000 -0.000000  0.000000 -0.000001  0.000002 -0.000004 -0.000018
                                -0.000071  0.000583 -0.025350  0.016350 -0.076344 -0.118823  0.005675  0.160250  0.285368  0.000118
                                -0.000395  0.011755  0.036500 -0.024138 -0.046524 -0.011048  0.004919  0.014359  0.004694 -0.000959
                                -0.000000  0.000001 -0.000006  0.000029 -0.000483 -0.004557  0.024624 -0.031595  0.028487  0.261251
                                 0.001137  0.009328 -0.022282  0.000255  0.142973  0.192115  0.165901  0.093958  0.042815  0.025298
                                -0.006156  0.001643  0.000009  0.000008 -0.000072 -0.000064  0.001121  0.000994  0.023707  0.021192
                                 0.039438  0.035485  0.044793  0.040080  0.029223  0.026646  0.009846  0.008443  0.004159  0.003167
                                 0.001816  0.004724  0.002529  0.015859 -0.007389 -0.001862 -0.001070  0.005219  0.001461 -0.001060
                                -0.000019 -0.000005 -0.000008  0.000032 -0.000184  0.000053 -0.000254  0.000725  0.001117  0.000725
                                -0.000346 -0.000185  0.002319  0.011214  0.001239  0.001462  0.001100 -0.000003  0.000206  0.000172
                                 0.000270  0.000161  0.000182  0.000339  0.000279  0.000112  0.000042  0.004254  0.031174  0.074025
                                -0.001802 -0.009123 -0.000461 -0.005242 -0.021744 -0.046450 -0.101663 -0.123717  0.004342 -0.000323
                                 0.025906 -0.005422  0.035320 -0.025371  0.000896 -0.000750 -0.001466  0.002874  0.000897 -0.006840

                                   1 2pz     1 2pz     1 2pz     1 2pz     1 2pz     1 2pz     1 2pz     1 2pz     1 2pz     1 2pz
                                   1 2pz     1 2pz     1 2pz     1 2pz     1 2pz     1 2pz     1 2pz     1 2pz     1 2pz     1 2pz
                                   1 2pz     1 2pz     1 2pz     1 2pz     1 2pz     1 2pz     1 2pz     1 2pz     1 2pz     1 2pz
                                   1 3d1+    1 3d1+    1 3d1+    1 3d1+    1 3d1+    1 3d1+    1 3d1+    1 3d1+    1 3d1+    1 3d1+
                                   1 3d1+    1 3d1+    1 3d1+    1 3d1+    1 3d1+    1 3d1+    1 3d1+    1 3d1+    1 3d1+    1 3d1+
                                   1 3d1+    1 3d1+    1 4f0     1 4f2+    1 4f0     1 4f2+    1 4f0     1 4f2+    1 4f0     1 4f2+
                                   1 4f0     1 4f2+    1 4f0     1 4f2+    1 4f0     1 4f2+    1 4f0     1 4f2+    1 4f0     1 4f2+
                                   1 4f0     1 4f2+    1 4f0     1 4f2+    1 4f0     1 4f2+    1 4f0     1 4f2+    1 4f0     1 4f2+
                                   1 5g1+    1 5g3+    1 5g1+    1 5g3+    1 5g1+    1 5g3+    1 5g1+    1 5g3+    1 5g1+    1 5g3+
                                   1 5g1+    1 5g3+    1 5g1+    1 5g3+    1 5g1+    1 5g3+    1 5g1+    1 5g3+    1 6h2+    1 6h4+
                                   1 6h0     1 6h2+    1 6h4+    1 6h0     1 6h2+    1 6h4+    1 6h0     2 2pz     2 2pz     2 2pz
                                   2 3d1+    2 3d1+    3 2pz     3 2pz     3 2pz     3 3d1+    3 3d1-    3 3d1+    3 3d1-

   1.3   2    -1.1786  -12.3086 -0.000000  0.000000 -0.000001  0.000002 -0.000002  0.000003 -0.000006  0.000018 -0.000074  0.000683
                                 0.006839  0.004268 -0.174254  0.094865 -0.190701 -0.358675 -0.092448 -0.005660  0.002297 -0.002692
                                -0.008706  0.093980  0.191791 -0.160611 -0.375880 -0.000484 -0.001878  0.001314  0.000141 -0.000035
                                 0.000000 -0.000000  0.000000 -0.000000  0.000005 -0.000031  0.000781 -0.000858  0.000391  0.001269
                                -0.000010  0.000184 -0.000721  0.000602  0.002700 -0.000488  0.000208 -0.000306  0.000134 -0.000046
                                 0.000019 -0.000005 -0.000000 -0.000000  0.000000  0.000003 -0.000009 -0.000040 -0.000414 -0.000729
                                -0.001084 -0.001160 -0.000514 -0.001944 -0.003412 -0.001184  0.000202 -0.000439  0.000407 -0.000103
                                -0.000128 -0.000239 -0.001545 -0.000339  0.000111  0.000094 -0.000436 -0.000083  0.000145  0.000029
                                 0.000002  0.000005 -0.000007 -0.000039  0.000010  0.000090  0.000098 -0.000426  0.000137  0.001068
                                 0.000127 -0.001398  0.000052  0.000869  0.000024 -0.000058  0.000014  0.000276 -0.000118 -0.000014
                                -0.000010 -0.000369 -0.000652 -0.000073 -0.000278 -0.000614 -0.000224 -0.000144 -0.001401 -0.001282
                                 0.000274  0.000882 -0.000175 -0.001942 -0.002166 -0.000170 -0.000303 -0.000709 -0.001165

   2.3   2    -0.5096  -14.4163 -0.000000  0.000000 -0.000000  0.000000 -0.000000  0.000000 -0.000001  0.000003 -0.000022  0.000339
                                 0.003753  0.002744  0.008281  0.004785  0.012953  0.008476 -0.004156  0.001219 -0.002334 -0.001516
                                -0.004355 -0.007186 -0.006418 -0.005119 -0.010781 -0.000313  0.000266  0.000399  0.000109 -0.000020
                                -0.000000  0.000000 -0.000002  0.000010 -0.000199 -0.001776  0.003491 -0.001413 -0.004469 -0.003219
                                 0.000476  0.003307 -0.004850  0.003354  0.004169  0.004892 -0.001469  0.002229  0.000124 -0.000241
                                 0.000131 -0.000041 -0.000053 -0.000077  0.000426  0.000618 -0.006004 -0.008782 -0.122226 -0.178638
                                -0.200518 -0.293137 -0.218422 -0.320242 -0.136603 -0.198204 -0.049019 -0.072662 -0.020238 -0.031708
                                -0.003597 -0.003357 -0.038173 -0.055486  0.020510  0.029979 -0.011913 -0.017458  0.004268  0.006247
                                 0.000008  0.000026  0.000031  0.000067  0.000100  0.000204  0.000177  0.000433 -0.000119 -0.000115
                                 0.000580  0.000469 -0.002084 -0.002053  0.001103  0.001082 -0.000878 -0.000846 -0.000140  0.000270
                                 0.000299 -0.000279  0.000071  0.000285 -0.000388  0.000045 -0.000304 -0.000141 -0.001140 -0.002269
                                 0.000421  0.001449  0.000417  0.003883  0.007459  0.000844  0.000991  0.002572  0.004208

   3.3   +    -0.6226  -14.6715 -0.000000  0.000000 -0.000000  0.000000 -0.000000  0.000000 -0.000001  0.000002 -0.000015  0.000258
                                 0.003306  0.002386  0.003598 -0.002003 -0.011512 -0.007006  0.008376  0.000488  0.002130 -0.001247
                                -0.003940 -0.003933  0.001274  0.001014  0.012724  0.000671  0.000877 -0.001418 -0.000229  0.000052
                                -0.000000  0.000000 -0.000001  0.000007 -0.000130 -0.001138  0.002514 -0.001439 -0.002335  0.000284
                                 0.000307  0.002122 -0.003261  0.002874  0.005596  0.004409 -0.000613  0.001556  0.000040 -0.000133
                                 0.000077 -0.000023  0.000075 -0.000051 -0.000605  0.000411  0.008765 -0.005975  0.181833 -0.124070
                                 0.295493 -0.201242  0.317282 -0.216535  0.186818 -0.125486  0.076490 -0.053064  0.037044 -0.027021
                                -0.003855  0.004275  0.045527 -0.030056 -0.027519  0.018802  0.015342 -0.010370 -0.005432  0.003666
                                -0.000041  0.000021 -0.000098  0.000065 -0.000319  0.000129 -0.000521  0.000207 -0.000360  0.000423
                                 0.000287 -0.000779 -0.001325  0.002725  0.000723 -0.001604 -0.000532  0.001084  0.000108 -0.000045
                                 0.000093 -0.000079 -0.000340 -0.000055  0.000145 -0.000322  0.000291 -0.000252 -0.003054 -0.006155
                                 0.001148  0.004532 -0.000124 -0.001438 -0.002593 -0.000141 -0.000483 -0.000975 -0.001702

   4.3   0    -0.2233   -7.2220 -0.000000  0.000000 -0.000000  0.000000 -0.000000  0.000000 -0.000000  0.000001 -0.000003  0.000027
                                 0.000296  0.000345 -0.000488  0.002831 -0.000137 -0.006880  0.000425  0.019287  0.022483 -0.000111
                                -0.000412 -0.000259  0.001146 -0.004133 -0.009993 -0.001489  0.001733  0.005175  0.000456 -0.000087
                                -0.000001  0.000003 -0.000013  0.000068 -0.001178 -0.010979  0.042435 -0.044593  0.016760  0.319308
                                 0.002792  0.021861 -0.043670  0.012591  0.195317  0.257251  0.200548  0.138817  0.033324  0.012592
                                -0.004045  0.001189 -0.000000 -0.000001  0.000004  0.000005 -0.000055 -0.000061 -0.001065 -0.001081
                                -0.001589 -0.001414 -0.001665 -0.001599 -0.000706 -0.002069 -0.000516 -0.000647 -0.000424 -0.000713
                                -0.000524  0.002814 -0.002480  0.007172 -0.001436 -0.003191 -0.001064  0.002953 -0.000028  0.000613
                                -0.000006  0.000015 -0.000074 -0.000030 -0.000066  0.000233 -0.001081  0.000262  0.001642  0.000484
                                -0.000566  0.000419  0.001080  0.000479  0.001319  0.000115  0.001652 -0.000145 -0.000003 -0.000007
                                -0.000003  0.000005  0.000019 -0.000009 -0.000043 -0.000026  0.000067  0.003540  0.029422  0.065793
                                -0.001827 -0.010852 -0.002106 -0.016809 -0.035884 -0.000232 -0.001184  0.001477 -0.008436

   5.3   0    -0.1732   -4.6290  0.000000 -0.000000  0.000000 -0.000001  0.000001 -0.000002  0.000003 -0.000010  0.000042 -0.000394
                                -0.004251 -0.004861  0.026625 -0.041058  0.024329  0.131546  0.027836 -0.317510 -0.511917  0.001589
                                 0.005959 -0.007026 -0.044943  0.079606  0.180593  0.021282 -0.089467 -0.152782 -0.009162  0.001752
                                -0.000000  0.000000 -0.000001  0.000004 -0.000066 -0.000615  0.002455 -0.002578  0.001032  0.021284
                                 0.000156  0.001228 -0.002495  0.000504  0.011539  0.017746  0.010194  0.002174 -0.004082 -0.000772
                                -0.000084  0.000026 -0.000001 -0.000000  0.000006  0.000002 -0.000092 -0.000025 -0.001924 -0.000513
                                -0.003137 -0.000823 -0.003209 -0.000816  0.000842 -0.000697 -0.000756 -0.000211 -0.000345 -0.000096
                                -0.001034 -0.000558  0.000331 -0.002677  0.011190 -0.000560  0.009083 -0.000945  0.000760  0.000033
                                 0.000001 -0.000003 -0.000005  0.000016  0.000005 -0.000030 -0.000120  0.000170  0.000184 -0.000822
                                -0.000099  0.001564  0.000882 -0.004758  0.000722 -0.005148  0.000865 -0.004591  0.000016 -0.000002
                                 0.000011 -0.000166  0.000038  0.000004 -0.000166  0.000023  0.000035 -0.002196 -0.016483 -0.042681
                                 0.000344  0.003003 -0.003103 -0.023795 -0.058882 -0.000318 -0.000536 -0.003031 -0.005444

                                   1 3d1-    1 3d1-    1 3d1-    1 3d1-    1 3d1-    1 3d1-    1 3d1-    1 3d1-    1 3d1-    1 3d1-
                                   1 3d1-    1 3d1-    1 3d1-    1 3d1-    1 3d1-    1 3d1-    1 3d1-    1 3d1-    1 3d1-    1 3d1-
                                   1 3d1-    1 3d1-    1 4f2-    1 4f2-    1 4f2-    1 4f2-    1 4f2-    1 4f2-    1 4f2-    1 4f2-
                                   1 4f2-    1 4f2-    1 4f2-    1 4f2-    1 4f2-    1 4f2-    1 5g1-    1 5g3-    1 5g1-    1 5g3-
                                   1 5g1-    1 5g3-    1 5g1-    1 5g3-    1 5g1-    1 5g3-    1 5g1-    1 5g3-    1 5g1-    1 5g3-
                                   1 5g1-    1 5g3-    1 5g1-    1 5g3-    1 6h4-    1 6h2-    1 6h4-    1 6h2-    1 6h4-    1 6h2-
                                   2 3d1-    2 3d1-    3 2pz     3 2pz     3 2pz     3 3d1-    3 3d1+    3 3d1-    3 3d1+

   1.4   +    -0.5840  -14.5990 -0.000000  0.000000 -0.000002  0.000009 -0.000167 -0.001457  0.002717 -0.000520 -0.005698 -0.007859
                                 0.000394  0.002773 -0.004042  0.002287  0.000073  0.004135 -0.001863  0.002421  0.000129 -0.000222
                                 0.000118 -0.000036  0.000088 -0.000715  0.010515  0.219052  0.356684  0.384882  0.229268  0.092151
                                 0.043665 -0.002776  0.059040 -0.034615  0.019565 -0.006953  0.000009 -0.000038  0.000020 -0.000091
                                 0.000093 -0.000327  0.000171 -0.000492 -0.000164 -0.000265  0.000558 -0.000082 -0.002415  0.000123
                                 0.001258  0.000001 -0.000971  0.000008  0.000088 -0.000404  0.000730 -0.000103  0.000447  0.000229
                                 0.000196  0.000121  0.000349  0.003207  0.006658  0.001117  0.000497  0.003965  0.002248

   2.4   0    -0.2180   -7.1960 -0.000001  0.000003 -0.000012  0.000061 -0.001089 -0.010543  0.041779 -0.044224  0.015115  0.316974
                                 0.002616  0.021186 -0.042810  0.012499  0.194705  0.257756  0.203296  0.147891  0.035503  0.013566
                                -0.004223  0.001237  0.000002 -0.000013  0.000186  0.003555  0.005005  0.005266  0.002798  0.001913
                                 0.001889 -0.001907 -0.002447  0.006957 -0.001439 -0.000573 -0.000006 -0.000019 -0.000158 -0.000017
                                 0.000220 -0.000101 -0.000431  0.000267  0.001611 -0.000198 -0.000047  0.000743  0.000672  0.000948
                                 0.000745  0.000334  0.001265  0.000057 -0.000004 -0.000010  0.000037  0.000004 -0.000064 -0.000136
                                 0.000394  0.005131 -0.003978 -0.031253 -0.066793 -0.001652 -0.001300 -0.008106 -0.008897

   3.4   0    -0.0634   -2.7385 -0.000000  0.000001 -0.000006  0.000029 -0.000509 -0.004875  0.018072 -0.018574  0.004874  0.132445
                                 0.001222  0.009708 -0.018963  0.006591  0.081801  0.114431  0.089206  0.017984 -0.335636 -0.469598
                                -0.275153 -0.018779 -0.000000  0.000001 -0.000012 -0.000312 -0.000660 -0.000664  0.000235 -0.000038
                                 0.000190  0.001260  0.001110 -0.008273  0.037885  0.004600  0.000006 -0.000007 -0.000091 -0.000008
                                 0.000179 -0.000029 -0.000347  0.000101  0.001340 -0.000056 -0.001016  0.000263  0.002064  0.000009
                                -0.010073 -0.000044  0.021095  0.000120 -0.000002 -0.000001  0.000009  0.000002 -0.000033 -0.000061
                                 0.000158 -0.001922  0.001245  0.005269  0.073854 -0.000904 -0.000645 -0.002853  0.000044

 HOMO      1.4    -0.583953 =     -15.8902eV
 LUMO      6.1    -0.444437 =     -12.0937eV
 LUMO-HOMO         0.139516 =       3.7964eV

 No convergence



[...]
   -->
   <time start="19:12:37" end="19:13:53" cpu="70.41" system="6.14" real="76.66"/>
   <storage units="megabyte" memory="8001.84" sf="0.31" df="703.32" eaf="25948.56"
     ga="0.25"/>
  </jobstep><!--
  --><jobstep command="RKS-SCF" commandset="SCFPRO">
   <!--

 Density functional group PBE0=PBEX+PBEC
 Functional: PBEX(Automatically generated (new) PBEX)                          Gradient terms: 1
 Functional: PBEC(Automatically generated (new) PBEC)                          Gradient terms: 1
 Use grid at  1800.2


 Exact exchange will be calculated, factor:  0.2500

 Functional: PBEX                      Factor:  0.7500
 Functional: PBEC                      Factor:  1.0000

  414270 words reserved for DFT integration

 PROGRAM * RKS-SCF (Restricted open shell Kohn-Sham)     Authors: W. Meyer, H.-J. Werner, P.J. Knowles, 1993

 NUMBER OF ELECTRONS:      13+    8-    SPACE SYMMETRY=1    SPIN SYMMETRY: Sextet
 CONVERGENCE THRESHOLDS:    1.00E-05 (Density)    1.00E-06 (Energy)
 MAX. NUMBER OF ITERATIONS:      200
 INTERPOLATION TYPE:            DIIS
 INTERPOLATION STEPS:              2 (START)      1 (STEP)
 LEVEL SHIFTS:                 -2.00 (CLOSED) -1.00 (OPEN)

 Number of closed-shell orbitals:    8 (   4   2   2   0 )
 Number of open-shell orbitals:      5 (   2   1   1   1 )


 Use fine grid record 1800.2 for energy threshold  1.0D-06
 Molecular orbitals read from record     3202.2  Type=RHF/CANONICAL (state 1.1)

 Molecular orbital dump at record        4202.2

 ITERATION    DDIFF          GRAD             ENERGY        2-EL.EN.            DIPOLE MOMENTS         DIIS   ORB.
    1      0.000D+00      0.000D+00      -111.69483385    230.986339    0.23312    0.00000    0.00000    0    start
    2      0.000D+00      0.453D-02      -111.70739474    233.125385    0.78630    0.00000    0.00000    1    diag,B
    3      0.475D-02      0.302D-02      -111.59234983    213.498498   -0.23915    0.00000    0.00000    2    diag,B
    4      0.588D-02      0.126D-01      -111.69631032    216.446042   -0.25962    0.00000    0.00000    3    diag,B
    5      0.142D-02      0.941D-02      -111.72017054    217.092758   -0.23818    0.00000    0.00000    4    diag,B
    6      0.534D-03      0.841D-02      -111.73455667    217.526801   -0.22477    0.00000    0.00000    5    diag,B
    7      0.326D-03      0.779D-02      -111.74832918    217.974628   -0.20918    0.00000    0.00000    6    diag,B
    8      0.324D-03      0.723D-02      -111.76988911    218.709099   -0.17979    0.00000    0.00000    7    orth
    9      0.606D-03      0.643D-02      -111.78481785    219.193403   -0.15396    0.00000    0.00000    8    diag,B
   10      0.655D-03      0.592D-02      -111.78630141    219.233984   -0.15262    0.00000    0.00000    9    diag,B
   11      0.834D-04      0.586D-02      -111.78657788    219.117457   -0.15972    0.00000    0.00000   10    diag,B
   12      0.269D-03      0.594D-02      -111.79953473    220.287354   -0.10727    0.00000    0.00000   11    diag,B
   13      0.114D-02      0.491D-02      -111.79758663    220.704811   -0.08973    0.00000    0.00000   12    diag,B
   14      0.143D-02      0.471D-02      -111.79702776    221.519477   -0.05909    0.00000    0.00000   13    diag,B
   15      0.199D-02      0.422D-02      -111.79097369    222.024415   -0.03457    0.00000    0.00000   14    diag,B
   16      0.201D-02      0.407D-02      -111.79266707    222.568267   -0.00389    0.00000    0.00000   15    diag,B
   17      0.921D-03      0.370D-02      -111.78566754    221.998573   -0.02629    0.00000    0.00000   16    diag,B
   18      0.229D-02      0.426D-02      -111.78707289    222.240038   -0.01053    0.00000    0.00000   17    orth
   19      0.337D-03      0.410D-02      -111.78721417    222.260764   -0.00807    0.00000    0.00000   18    diag,B
   20      0.143D-03      0.409D-02      -111.78693679    222.242466   -0.00969    0.00000    0.00000   19    diag,B
   21      0.598D-03      0.411D-02      -111.78651702    222.238150   -0.00992    0.00000    0.00000   20    diag,B
   22      0.582D-03      0.413D-02      -111.78705659    222.321921   -0.00764    0.00000    0.00000   21    diag,B
   23      0.148D-02      0.406D-02      -111.78652060    222.299640   -0.01202    0.00000    0.00000   22    diag,B
   24      0.403D-03      0.408D-02      -111.78664223    222.321801   -0.00972    0.00000    0.00000   23    diag,B
   25      0.768D-03      0.407D-02      -111.78545974    222.361441   -0.00576    0.00000    0.00000   24    diag,B
   26      0.362D-02      0.408D-02      -111.78363045    222.430113   -0.00098    0.00000    0.00000   25    diag,B
   27      0.119D-02      0.412D-02      -111.78296151    222.341671   -0.00616    0.00000    0.00000   26    diag,B
   28      0.239D-02      0.419D-02      -111.78290695    222.336820   -0.00618    0.00000    0.00000   27    orth
   29      0.387D-03      0.420D-02      -111.78305114    222.333473   -0.00626    0.00000    0.00000   28    diag,B
   30      0.163D-02      0.418D-02      -111.78331952    222.359366   -0.00570    0.00000    0.00000   29    diag,B
   31      0.401D-03      0.416D-02      -111.79234923    224.434626    0.10035    0.00000    0.00000   29    diag,B
   32      0.692D-02      0.262D-02      -111.78369492    224.778919    0.09625    0.00000    0.00000   29    diag,B
   33      0.770D-02      0.275D-02      -111.77834055    225.612653    0.08192    0.00000    0.00000   29    diag,B
   34      0.277D-02      0.232D-02      -111.76937445    226.414593    0.04770    0.00000    0.00000   29    diag,B
   35      0.558D-02      0.211D-02      -111.77429579    226.076008    0.05738    0.00000    0.00000   29    diag,B
   36      0.451D-02      0.211D-02      -111.77960782    225.790116    0.04388    0.00000    0.00000   29    diag,B
   37      0.207D-02      0.208D-02      -111.77698503    225.939059    0.05015    0.00000    0.00000   29    diag,B
   38      0.892D-03      0.209D-02      -111.77509575    226.094844    0.06471    0.00000    0.00000   29    orth
   39      0.213D-02      0.205D-02      -111.77502336    225.785586    0.03750    0.00000    0.00000   29    diag,B
   40      0.890D-02      0.234D-02      -111.77133572    226.167190    0.08432    0.00000    0.00000   29    diag,B
   41      0.102D-01      0.213D-02      -111.76822136    226.153012    0.04785    0.00000    0.00000   29    diag,B
   42      0.497D-02      0.234D-02      -111.77045091    226.110548    0.03844    0.00000    0.00000   29    diag,B
   43      0.156D-02      0.227D-02      -111.76887022    226.249562    0.04520    0.00000    0.00000   29    diag,B
   44      0.668D-03      0.224D-02      -111.76003466    226.879419    0.03718    0.00000    0.00000   29    diag,B
   45      0.571D-02      0.220D-02      -111.76188741    226.717496    0.05682    0.00000    0.00000   29    diag,B
   46      0.464D-02      0.224D-02      -111.76148932    226.751647    0.04648    0.00000    0.00000   29    diag,B
   47      0.368D-02      0.222D-02      -111.76144891    226.814061    0.03240    0.00000    0.00000   29    fixocc
   48      0.777D-02      0.217D-02      -111.76115675    226.787187    0.02501    0.00000    0.00000   29    orth
   49      0.390D-02      0.222D-02      -111.76161128    226.843990    0.02848    0.00000    0.00000   29    diag,B
   50      0.935D-03      0.214D-02      -111.76076845    226.865992    0.02709    0.00000    0.00000   29    diag,B
   51      0.430D-02      0.217D-02      -111.75913182    226.949612    0.02814    0.00000    0.00000   29    diag,B
   52      0.117D-02      0.218D-02      -111.75614565    227.117224    0.02378    0.00000    0.00000   29    diag,B
   53      0.489D-02      0.220D-02      -111.75073808    227.476085    0.03204    0.00000    0.00000   29    diag,B
   54      0.493D-02      0.217D-02      -111.74984674    227.603271    0.04255    0.00000    0.00000   29    diag,B
   55      0.337D-02      0.211D-02      -111.74996560    227.581986    0.04950    0.00000    0.00000   29    diag,B
   56      0.542D-03      0.212D-02      -111.74999223    227.579342    0.04927    0.00000    0.00000   29    diag,B
   57      0.213D-03      0.212D-02      -111.75048787    227.611539    0.04073    0.00000    0.00000   29    diag,B
   58      0.334D-02      0.207D-02      -111.75225540    227.518458    0.02496    0.00000    0.00000   29    orth
   59      0.241D-02      0.204D-02      -111.74921323    228.042504    0.09007    0.00000    0.00000   29    diag,B
   60      0.501D-02      0.181D-02      -111.76386179    228.224497    0.16096    0.00000    0.00000   29    diag,B
   61      0.133D-01      0.740D-03      -111.76269455    228.272139    0.20035    0.00000    0.00000   29    diag,B
   62      0.392D-02      0.749D-03      -111.76330969    228.237206    0.25198    0.00000    0.00000   29    diag,B
   63      0.357D-02      0.752D-03      -111.76358575    228.220403    0.25011    0.00000    0.00000   29    diag,B
   64      0.556D-03      0.753D-03      -111.76327163    228.230847    0.25460    0.00000    0.00000   29    diag,B
   65      0.240D-02      0.756D-03      -111.76271589    228.303438    0.25771    0.00000    0.00000   29    diag,B
   66      0.260D-02      0.739D-03      -111.76119853    228.398405    0.26932    0.00000    0.00000   29    diag,B
   67      0.169D-02      0.739D-03      -111.75898984    228.506863    0.28234    0.00000    0.00000   29    diag,B
   68      0.803D-03      0.762D-03      -111.74878913    229.111344    0.31992    0.00000    0.00000   29    orth
   69      0.437D-02      0.807D-03      -111.72664764    230.283702    0.46228    0.00000    0.00000   29    diag,B
   70      0.658D-02      0.966D-03      -111.71781650    230.536872    0.56838    0.00000    0.00000   29    diag,B
   71      0.226D-02      0.101D-02      -111.71654337    231.439316    0.67183    0.00000    0.00000   29    diag,B
   72      0.634D-02      0.311D-03      -111.72025612    232.166995    0.56004    0.00000    0.00000   29    diag,B
   73      0.647D-02      0.100D-02      -111.71901455    231.289144    0.56816    0.00000    0.00000   29    diag,B
   74      0.989D-03      0.262D-03      -111.71735155    231.380780    0.64661    0.00000    0.00000   29    diag,B
   75      0.393D-02      0.123D-03      -111.71752307    231.374425    0.67383    0.00000    0.00000   29    diag,B
   76      0.254D-02      0.105D-03      -111.71786753    231.346769    0.70051    0.00000    0.00000   29    diag,B
   77      0.298D-02      0.110D-03      -111.71783838    231.492942    0.73345    0.00000    0.00000   29    diag,B
   78      0.218D-02      0.186D-03      -111.71800793    231.691972    0.75243    0.00000    0.00000   29    orth
   79      0.893D-03      0.384D-03      -111.71827409    231.686599    0.75203    0.00000    0.00000   29    diag,B
   80      0.321D-03      0.356D-03      -111.71855640    231.506837    0.75762    0.00000    0.00000   29    diag,B
   81      0.361D-03      0.171D-03      -111.71867314    231.678147    0.76321    0.00000    0.00000   29    diag,B
   82      0.449D-03      0.355D-03      -111.71791103    232.185636    0.77733    0.00000    0.00000   29    diag,B
   83      0.782D-03      0.928D-03      -111.71801538    232.160766    0.77637    0.00000    0.00000   29    diag,B
   84      0.105D-03      0.899D-03      -111.71817596    232.139765    0.77467    0.00000    0.00000   29    diag,B
   85      0.402D-03      0.879D-03      -111.71819821    232.135335    0.77442    0.00000    0.00000   29    diag,B
   86      0.120D-03      0.870D-03      -111.71820480    232.142286    0.77585    0.00000    0.00000   29    diag,B
   87      0.107D-03      0.876D-03      -111.71856138    232.079822    0.77254    0.00000    0.00000   29    diag,B
   88      0.295D-03      0.802D-03      -111.71848492    232.096087    0.77461    0.00000    0.00000   29    orth
   89      0.113D-03      0.818D-03      -111.71850592    232.080423    0.77583    0.00000    0.00000   29    diag,B
   90      0.325D-04      0.805D-03      -111.71849984    232.085909    0.77583    0.00000    0.00000   29    diag,B
   91      0.115D-03      0.809D-03      -111.71850562    232.084632    0.77557    0.00000    0.00000   29    diag,B
   92      0.753D-04      0.808D-03      -111.71853907    232.074433    0.77410    0.00000    0.00000   29    diag,B
   93      0.288D-03      0.799D-03      -111.71843558    232.016567    0.77365    0.00000    0.00000   29    diag,B
   94      0.545D-03      0.736D-03      -111.71849007    232.027228    0.77264    0.00000    0.00000   29    diag,B
   95      0.213D-03      0.750D-03      -111.71839888    232.044849    0.77191    0.00000    0.00000   29    diag,B
   96      0.458D-03      0.768D-03      -111.71842264    232.010932    0.77067    0.00000    0.00000   29    diag,B
   97      0.349D-03      0.728D-03      -111.71844093    232.004061    0.77082    0.00000    0.00000   29    diag,B
   98      0.160D-03      0.721D-03      -111.71848959    231.981726    0.77277    0.00000    0.00000   29    orth
   99      0.124D-03      0.700D-03      -111.71853168    231.972046    0.77112    0.00000    0.00000   29    diag,B
  100      0.211D-03      0.689D-03      -111.71857430    232.016056    0.77163    0.00000    0.00000   29    diag,B
  101      0.626D-03      0.738D-03      -111.71865090    232.002506    0.76754    0.00000    0.00000   29    diag,B
  102      0.280D-03      0.717D-03      -111.71865182    232.010388    0.76796    0.00000    0.00000   29    diag,B
  103      0.657D-04      0.726D-03      -111.71865045    232.005135    0.76703    0.00000    0.00000   29    diag,B
  104      0.756D-04      0.720D-03      -111.71873379    231.952046    0.76636    0.00000    0.00000   29    diag,B
  105      0.237D-03      0.669D-03      -111.71859250    232.009313    0.77016    0.00000    0.00000   29    diag,B
  106      0.442D-03      0.733D-03      -111.71873717    231.993856    0.77213    0.00000    0.00000   29    diag,B
  107      0.885D-03      0.720D-03      -111.71859939    232.036572    0.77932    0.00000    0.00000   29    diag,B
  108      0.306D-03      0.769D-03      -111.71890221    231.899782    0.76389    0.00000    0.00000   29    orth
  109      0.292D-03      0.608D-03      -111.71906656    231.849708    0.75334    0.00000    0.00000   29    diag,B
  110      0.615D-03      0.550D-03      -111.71915591    231.803924    0.73708    0.00000    0.00000   29    diag,B
  111      0.135D-03      0.500D-03      -111.71911467    231.818232    0.72278    0.00000    0.00000   29    diag,B
  112      0.586D-03      0.518D-03      -111.71914192    231.846055    0.72849    0.00000    0.00000   29    diag,B
  113      0.376D-03      0.546D-03      -111.71913810    231.839898    0.72664    0.00000    0.00000   29    diag,B
  114      0.843D-04      0.540D-03      -111.71923692    231.792905    0.72459    0.00000    0.00000   29    diag,B
  115      0.259D-03      0.485D-03      -111.71960436    231.368436    0.70222    0.00000    0.00000   29    diag,B
  116      0.446D-03      0.561D-04      -111.71996783    231.363507    0.70565    0.00000    0.00000   29    diag,B
  117      0.289D-03      0.548D-04      -111.71990649    231.365113    0.69643    0.00000    0.00000   29    diag,B
  118      0.836D-03      0.696D-04      -111.71999232    231.369463    0.69543    0.00000    0.00000   29    orth
  119      0.951D-04      0.690D-04      -111.72012802    231.369249    0.69449    0.00000    0.00000   29    diag,B
  120      0.582D-03      0.655D-04      -111.72022053    231.362276    0.69049    0.00000    0.00000   29    diag,B
  121      0.104D-02      0.653D-04      -111.72023936    231.363299    0.69007    0.00000    0.00000   29    diag,B
  122      0.753D-04      0.643D-04      -111.72034446    231.382063    0.69200    0.00000    0.00000   29    diag,B
  123      0.415D-03      0.587D-04      -111.72040473    231.379285    0.69254    0.00000    0.00000   29    diag,B
  124      0.188D-03      0.543D-04      -111.72050376    231.367414    0.69437    0.00000    0.00000   29    diag,B
  125      0.582D-03      0.471D-04      -111.72061892    231.384063    0.70233    0.00000    0.00000   29    diag,B
  126      0.727D-03      0.686D-04      -111.72081960    231.377365    0.71212    0.00000    0.00000   29    diag,B
  127      0.265D-03      0.380D-04      -111.72100774    231.368474    0.71039    0.00000    0.00000   29    diag,B
  128      0.745D-03      0.353D-04      -111.72105663    231.368886    0.71467    0.00000    0.00000   29    orth
  129      0.539D-03      0.258D-04      -111.72108671    231.368615    0.71469    0.00000    0.00000   29    diag,B
  130      0.270D-03      0.370D-04      -111.72112538    231.371514    0.71914    0.00000    0.00000   29    diag,B
  131      0.336D-03      0.265D-04      -111.72116489    231.373009    0.72688    0.00000    0.00000   29    diag,B
  132      0.331D-03      0.162D-04      -111.72116725    231.369381    0.72714    0.00000    0.00000   29    diag,B
  133      0.156D-03      0.170D-04      -111.72116976    231.369334    0.72791    0.00000    0.00000   29    diag,B
  134      0.117D-03      0.998D-05      -111.72116821    231.373534    0.72944    0.00000    0.00000   29    diag,B
  135      0.251D-03      0.147D-04      -111.72117065    231.370993    0.73164    0.00000    0.00000   29    diag,B
  136      0.154D-03      0.103D-04      -111.72117202    231.371307    0.73472    0.00000    0.00000   29    diag,B
  137      0.733D-04      0.509D-05      -111.72117250    231.372882    0.73732    0.00000    0.00000   29    diag,B
  138      0.700D-04      0.252D-05      -111.72117258    231.372434    0.73865    0.00000    0.00000   29    orth
  139      0.942D-04      0.177D-05      -111.72117265    231.372903    0.74011    0.00000    0.00000   29    diag,B
  140      0.480D-04      0.146D-05      -111.72117269    231.372821    0.74115    0.00000    0.00000   29    diag,B
  141      0.270D-04      0.981D-06      -111.72117270    231.372658    0.74188    0.00000    0.00000   29    diag,B
  142      0.413D-04      0.569D-06      -111.72117271    231.372706    0.74227    0.00000    0.00000   29    diag,B
  143      0.249D-04      0.415D-06      -111.72117271    231.372723    0.74246    0.00000    0.00000   29    diag,B
  144      0.673D-05      0.236D-06      -111.72117271    231.372718    0.74248    0.00000    0.00000    0    orth

 Final alpha occupancy:   6   3   3   1
 Final beta  occupancy:   4   2   2   0

 !RKS STATE 1.1 Energy               -111.721172712688
   --><property name="Energy" method="RKS" principal="true" stateSymmetry="1" stateNumber="1"
     value="-111.721172712688"/><!--
 Nuclear energy                        13.40551418
 One-electron energy                 -230.59760092
 Two-electron energy                  115.68635899
 Density functional                   -10.21544496     PBEX=-12.65740815 PBEC= -0.72238885
 Virial quotient                       -0.79060124
 !RKS STATE 1.1 Dipole moment           0.74247784     0.00000000     0.00000000
 Dipole moment /Debye                   1.88706683     0.00000000     0.00000000
   --><property name="Dipole moment" method="RKS" principal="true" stateSymmetry="1"
     stateNumber="1" value="0.742477839907278 0.0 0.0"/><!--

 ELECTRON ORBITALS
 =================


   Orb  Occ    Energy  Couls-En    Coefficients

                                   1 1s      1 1s      1 1s      1 1s      1 1s      1 1s      1 1s      1 1s      1 1s      1 1s
                                   1 1s      1 1s      1 1s      1 1s      1 1s      1 1s      1 1s      1 1s      1 1s      1 1s
                                   1 1s      1 1s      1 1s      1 1s      1 1s      1 1s      1 1s      1 1s      1 1s      1 1s
                                   1 1s      1 1s      1 2px     1 2px     1 2px     1 2px     1 2px     1 2px     1 2px     1 2px
