<?xml version="1.0"?>
<molpro xmlns="http://www.molpro.net/schema/molpro-output"
  xmlns:xsd="http://www.w3.org/1999/XMLSchema"
  xmlns:cml="http://www.xml-cml.org/schema"
  xmlns:stm="http://www.xml-cml.org/schema"
  xmlns:xhtml="http://www.w3.org/1999/xhtml">
 <!--

 Nodes     nprocs
 nid01845    11
 Number of processes for MPI-2 version of Molpro:   nprocs(total)=   12   nprocs(compute)=   11   nprocs(helper)=    1

 Using customized tuning parameters: mindgm=7; mindgv=16; mindgc=1; mindgr=1; noblas=0; minvec=7
 default implementation of scratch files=sf

 --><job>
  <!--

 Variables initialized (889), CPU time= 0.02 sec
 Commands  initialized (702), CPU time= 0.01 sec, 572 directives.
 Default parameters read. Elapsed time= 0.11 sec

 Checking input...
 Passed
1


                                         ***  PROGRAM SYSTEM MOLPRO  ***
                                       Copyright, TTI GmbH Stuttgart, 2015
                                    Version 2015.1 linked Dec 29 2018 15:55:43


 **********************************************************************************************************************************
 LABEL *   Calculation for Lu atom, singlet and triplet
  64 bit mpp version                                                                     DATE: 31-Mar-23          TIME: 18:09:38
 **********************************************************************************************************************************

 SHA1:             19cd028119e0e09f93f0674bd8af7968d9b3eff6
 **********************************************************************************************************************************
  -->
  <!--

 THRESHOLDS:

 ZERO    =  1.00D-12  ONEINT  =  1.00D-12  TWOINT  =  1.00D-15  PREFAC  =  1.00D-14  LOCALI  =  1.00D-09  EORDER  =  1.00D-04
 ENERGY  =  0.00D+00  ETEST   =  0.00D+00  EDENS   =  0.00D+00  THRDEDEF=  1.00D-06  GRADIENT=  1.00D-02  STEP    =  1.00D-03
 ORBITAL =  1.00D-05  CIVEC   =  1.00D-05  COEFF   =  1.00D-04  PRINTCI =  5.00D-02  PUNCHCI =  9.90D+01  OPTGRAD =  3.00D-04
 OPTENERG=  1.00D-06  OPTSTEP =  3.00D-04  THRGRAD =  1.00D-10  COMPRESS=  1.00D-11  VARMIN  =  1.00D-07  VARMAX  =  1.00D-03
 THRDOUB =  0.00D+00  THRDIV  =  1.00D-05  THRRED  =  1.00D-07  THRPSP  =  1.00D+00  THRDC   =  1.00D-10  THRCS   =  1.00D-10
 THRNRM  =  1.00D-08  THREQ   =  0.00D+00  THRDE   =  1.00D+00  THRREF  =  1.00D-05  SPARFAC =  1.00D+00  THRDLP  =  1.00D-07
 THRDIA  =  1.00D-10  THRDLS  =  1.00D-07  THRGPS  =  0.00D+00  THRKEX  =  0.00D+00  THRDIS  =  2.00D-01  THRVAR  =  1.00D-10
 THRLOC  =  1.00D-06  THRGAP  =  1.00D-06  THRLOCT = -1.00D+00  THRGAPT = -1.00D+00  THRORB  =  1.00D-06  THRMLTP =  0.00D+00
 THRCPQCI=  1.00D-10  KEXTA   =  0.00D+00  THRCOARS=  0.00D+00  SYMTOL  =  1.00D-06  GRADTOL =  1.00D-06  THROVL  =  1.00D-08
 THRORTH =  1.00D-08  GRID    =  1.00D-06  GRIDMAX =  1.00D-03  DTMAX   =  0.00D+00  THROCCDE=  1.00D-01  THROCCDE=  1.00D-01



 THRESHOLDS:

 ZERO    =  1.00D-12  ONEINT  =  1.00D-15  TWOINT  =  1.00D-15  PREFAC  =  1.00D-14  LOCALI  =  1.00D-09  EORDER  =  1.00D-04
 ENERGY  =  0.00D+00  ETEST   =  0.00D+00  EDENS   =  0.00D+00  THRDEDEF=  1.00D-06  GRADIENT=  1.00D-02  STEP    =  1.00D-03
 ORBITAL =  1.00D-05  CIVEC   =  1.00D-05  COEFF   =  1.00D-04  PRINTCI =  5.00D-02  PUNCHCI =  9.90D+01  OPTGRAD =  3.00D-04
 OPTENERG=  1.00D-06  OPTSTEP =  3.00D-04  THRGRAD =  1.00D-10  COMPRESS=  1.00D-11  VARMIN  =  1.00D-07  VARMAX  =  1.00D-03
 THRDOUB =  0.00D+00  THRDIV  =  1.00D-05  THRRED  =  1.00D-07  THRPSP  =  1.00D+00  THRDC   =  1.00D-10  THRCS   =  1.00D-10
 THRNRM  =  1.00D-08  THREQ   =  0.00D+00  THRDE   =  1.00D+00  THRREF  =  1.00D-05  SPARFAC =  1.00D+00  THRDLP  =  1.00D-07
 THRDIA  =  1.00D-10  THRDLS  =  1.00D-07  THRGPS  =  0.00D+00  THRKEX  =  0.00D+00  THRDIS  =  2.00D-01  THRVAR  =  1.00D-10
 THRLOC  =  1.00D-06  THRGAP  =  1.00D-06  THRLOCT = -1.00D+00  THRGAPT = -1.00D+00  THRORB  =  1.00D-06  THRMLTP =  0.00D+00
 THRCPQCI=  1.00D-10  KEXTA   =  0.00D+00  THRCOARS=  0.00D+00  SYMTOL  =  1.00D-06  GRADTOL =  1.00D-06  THROVL  =  1.00D-08
 THRORTH =  1.00D-08  GRID    =  1.00D-06  GRIDMAX =  1.00D-03  DTMAX   =  0.00D+00  THROCCDE=  1.00D-01  THROCCDE=  1.00D-01



Geometry recognized as XYZ


 Variable memory set to 1000000000 words,  buffer space   230000 words

 SETTING BASIS          =    USERDEF

 DO I                   =         7.00000000

 Running procedure=IIIDS1
  --><jobstep command="RHF-SCF" commandset="SCFPRO">
   <!--


 Recomputing integrals since basis changed


 Using spherical harmonics



 PROGRAM * SEWARD (Integral evaluation for generally contracted gaussian basis sets)     Author: Roland Lindh, 1990

 Geometry written to block  1 of record 700

 Orientation using atomic masses
 Molecule type: Atom
 Symmetry elements: X,Y,Z
 Rotational constants:       0.0000000      0.0000000      0.0000000 GHz  (calculated with average atomic masses)

 Point group  D2h


   --><cml:molecule>
    <cml:symmetry pointGroup="D2h"/>
    <cml:atomArray>
     <cml:atom id="a1" elementType="Lu" x3="0.0" y3="0.0" z3="0.0"/>
    </cml:atomArray>
    <cml:bondArray>
    </cml:bondArray>
   </cml:molecule><!--

 ATOMIC COORDINATES

 NR  ATOM    CHARGE       X              Y              Z

   1  LU     25.00    0.000000000    0.000000000    0.000000000

 NUCLEAR CHARGE:                   25
 NUMBER OF PRIMITIVE AOS:         581
 NUMBER OF SYMMETRY AOS:          442
 NUMBER OF CONTRACTIONS:          442   ( 103Ag  +  70B3u +  70B2u +  36B1g +  70B1u +  36B2g +  36B3g +  21Au  )
 NUMBER OF CORE ORBITALS:           0   (   0Ag  +   0B3u +   0B2u +   0B1g +   0B1u +   0B2g +   0B3g +   0Au  )
 NUMBER OF VALENCE ORBITALS:       17   (   4Ag  +   3B3u +   3B2u +   1B1g +   3B1u +   1B2g +   1B3g +   1Au  )


 NUCLEAR REPULSION ENERGY    0.00000000

 EXTRA SYMMETRY OF AOS IN SYMMETRY 1:   1 1 1 1 1 1 1 1 1 1   1 1 1 1 1 1 1 1 1 1   1 1 1 1 1 1 1 1 1 1   1 1 1 1 1 1 1 1 2 3
                                        2 3 2 3 2 3 2 3 2 3   2 3 2 3 2 3 2 3 2 3   2 3 2 3 2 3 2 3 2 3   2 3 2 3 2 3 2 3 2 3
                                        2 3 4 5 6 4 5 6 4 5   6 4 5 6 4 5 6 4 5 6   4 5 6
 EXTRA SYMMETRY OF AOS IN SYMMETRY 2:   1 1 1 1 1 1 1 1 1 1   1 1 1 1 1 1 1 1 1 1   1 1 1 1 1 1 1 1 1 1   1 2 3 2 3 2 3 2 3 2
                                        3 2 3 2 3 2 3 2 3 2   3 2 3 2 3 2 3 2 3 2   3 4 5 6 4 5 6 4 5 6
 EXTRA SYMMETRY OF AOS IN SYMMETRY 3:   1 1 1 1 1 1 1 1 1 1   1 1 1 1 1 1 1 1 1 1   1 1 1 1 1 1 1 1 1 1   1 2 3 2 3 2 3 2 3 2
                                        3 2 3 2 3 2 3 2 3 2   3 2 3 2 3 2 3 2 3 2   3 4 5 6 4 5 6 4 5 6
 EXTRA SYMMETRY OF AOS IN SYMMETRY 4:   1 1 1 1 1 1 1 1 1 1   1 1 1 1 1 1 1 1 1 1   1 1 2 3 2 3 2 3 2 3   2 3 2 3 2 3
 EXTRA SYMMETRY OF AOS IN SYMMETRY 5:   1 1 1 1 1 1 1 1 1 1   1 1 1 1 1 1 1 1 1 1   1 1 1 1 1 1 1 1 1 1   1 2 3 2 3 2 3 2 3 2
                                        3 2 3 2 3 2 3 2 3 2   3 2 3 2 3 2 3 2 3 2   3 4 5 6 4 5 6 4 5 6
 EXTRA SYMMETRY OF AOS IN SYMMETRY 6:   1 1 1 1 1 1 1 1 1 1   1 1 1 1 1 1 1 1 1 1   1 1 2 3 2 3 2 3 2 3   2 3 2 3 2 3
 EXTRA SYMMETRY OF AOS IN SYMMETRY 7:   1 1 1 1 1 1 1 1 1 1   1 1 1 1 1 1 1 1 1 1   1 1 2 3 2 3 2 3 2 3   2 3 2 3 2 3
 EXTRA SYMMETRY OF AOS IN SYMMETRY 8:   1 1 1 1 1 1 1 1 1 1   1 1 1 1 1 2 3 2 3 2   3

 Eigenvalues of metric

         1 0.333E-06 0.964E-06 0.340E-05 0.186E-04 0.475E-04 0.703E-04 0.799E-04 0.799E-04
         2 0.960E-06 0.179E-05 0.251E-04 0.110E-03 0.525E-03 0.525E-03 0.534E-03 0.156E-02
         3 0.960E-06 0.179E-05 0.251E-04 0.110E-03 0.525E-03 0.525E-03 0.534E-03 0.156E-02
         4 0.799E-04 0.144E-03 0.223E-02 0.632E-02 0.897E-02 0.238E-01 0.240E-01 0.240E-01
         5 0.960E-06 0.179E-05 0.251E-04 0.110E-03 0.525E-03 0.525E-03 0.534E-03 0.156E-02
         6 0.799E-04 0.144E-03 0.223E-02 0.632E-02 0.897E-02 0.238E-01 0.240E-01 0.240E-01
         7 0.799E-04 0.144E-03 0.223E-02 0.632E-02 0.897E-02 0.238E-01 0.240E-01 0.240E-01
         8 0.525E-03 0.142E-01 0.219E-01 0.528E-01 0.103E+00 0.167E+00 0.268E+00 0.268E+00


 Contracted 2-electron integrals neglected if value below      1.0D-15
 AO integral compression algorithm  1   Integral accuracy      1.0D-15

     3531.866 MB (compressed) written to integral file ( 42.0%)

     Node minimum: 159.384 MB, node maximum: 453.771 MB


 NUMBER OF SORTED TWO-ELECTRON INTEGRALS:   55863239.     BUFFER LENGTH:  32768
 NUMBER OF SEGMENTS:   2  SEGMENT LENGTH:   31999091      RECORD LENGTH: 524288

 Memory used in sort:      32.56 MW

 SORT1 READ  1050599776. AND WROTE    31830207. INTEGRALS IN     92 RECORDS. CPU TIME:    28.20 SEC, REAL TIME:    32.62 SEC
 SORT2 READ   352987961. AND WROTE   613618504. INTEGRALS IN  10846 RECORDS. CPU TIME:     0.80 SEC, REAL TIME:     5.36 SEC

 Node minimum:    55639389.  Node maximum:    55868715. integrals

 OPERATOR DM      FOR CENTER  0  COORDINATES:    0.000000    0.000000    0.000000


 **********************************************************************************************************************************
 DATASETS  * FILE   NREC   LENGTH (MB)   RECORD NAMES
              1      19       21.26       500      610      700      900      950      970     1000      129      960     1100
                                          VAR    BASINP    GEOM    SYMINP    ZMAT    AOBASIS   BASIS     P2S    ABASIS      S
                                         1400     1410     1420     1200     1210     1080     1600     1650     1700
                                           T        V       ECP      H0       H01     AOSYM     SMH    MOLCAS    OPER

 PROGRAMS   *        TOTAL       INT
 CPU TIMES  *       160.45    160.06
 REAL TIME  *       172.03 SEC
 DISK USED  *         7.79 GB
 GA USED    *         0.00 MB       (max)       0.00 MB       (current)
 **********************************************************************************************************************************


 PROGRAM * RHF-SCF (OPEN SHELL)       Authors: W. Meyer, H.-J. Werner


 NUMBER OF ELECTRONS:      12+   11-    SPACE SYMMETRY=1    SPIN SYMMETRY: Doublet
 CONVERGENCE THRESHOLDS:    1.00E-05 (Density)    1.00E-07 (Energy)
 MAX. NUMBER OF ITERATIONS:       60
 INTERPOLATION TYPE:            DIIS
 INTERPOLATION STEPS:              2 (START)      1 (STEP)
 LEVEL SHIFTS:                 -0.60 (CLOSED) -0.30 (OPEN)

 Number of closed-shell orbitals:   11 (   1   3   3   0   3   0   0   1 )
 Number of open-shell orbitals:      1 (   1   0   0   0   0   0   0   0 )



 Extra symmetries of mos in symmetry 1:   1   1
 Guess basis ATOMIC-GUESS,LU=ECP46_GUESS not found. No density guess!


 Molecular orbital dump at record        4202.2

 ITERATION    DDIFF          GRAD             ENERGY        2-EL.EN.            DIPOLE MOMENTS         DIIS   ORB.
    1      0.000D+00      0.000D+00      -146.09730584    440.145844    0.00000    0.00000    0.00000    0    start
    2      0.000D+00      0.322D+00      -126.27235899     87.830468    0.00000    0.00000    0.00000    0    diag,B
    3      0.931D+01      0.175D+00      -155.27816454    419.202821    0.00000    0.00000    0.00000    1    diag,B
    4      0.929D+01      0.279D+00      -171.07538220    373.193538    0.00000    0.00000    0.00000    2    diag,B
    5      0.244D+00      0.158D+00      -178.12003098    336.649263    0.00000    0.00000    0.00000    3    diag,B
    6      0.147D+00      0.768D-01      -180.64289656    301.562696    0.00000    0.00000    0.00000    4    diag,B
    7      0.652D-01      0.858D-02      -180.72111679    293.820253    0.00000    0.00000    0.00000    5    fixocc
    8      0.202D-01      0.559D-02      -180.73195900    294.237458    0.00000    0.00000    0.00000    6    diag,B
    9      0.756D-02      0.238D-02      -180.73412458    294.779463    0.00000    0.00000    0.00000    7    diag,B
   10      0.278D-02      0.194D-03      -180.73415183    294.865132    0.00000    0.00000    0.00000    8    orth
   11      0.124D-02      0.287D-04      -180.73415337    294.848509    0.00000    0.00000    0.00000    9    diag,B
   12      0.178D-03      0.101D-04      -180.73415355    294.846463    0.00000    0.00000    0.00000    9    diag,B
   13      0.124D-03      0.333D-05      -180.73415358    294.844158    0.00000    0.00000    0.00000    9    diag,B
   14      0.205D-04      0.195D-05      -180.73415356    294.844026    0.00000    0.00000    0.00000    9    diag,B
   15      0.256D-05      0.815D-06      -180.73415359    294.844501    0.00000    0.00000    0.00000    0    orth

 Final alpha occupancy:   2   3   3   0   3   0   0   1
 Final beta  occupancy:   1   3   3   0   3   0   0   1

 !RHF STATE 1.1 Energy               -180.734153590902
   --><property name="Energy" method="RHF" principal="true" stateSymmetry="1" stateNumber="1"
     value="-180.734153590902"/><!--
 Nuclear energy                         0.00000000
 One-electron energy                 -328.15640433
 Two-electron energy                  147.42225074
 Virial quotient                       -1.82058768
 !RHF STATE 1.1 Dipole moment           0.00000000     0.00000000     0.00000000
 Dipole moment /Debye                   0.00000000     0.00000000     0.00000000
   --><property name="Dipole moment" method="RHF" principal="true" stateSymmetry="1"
     stateNumber="1" value="0.0 0.0 0.0"/><!--

 ELECTRON ORBITALS
 =================


   Orb  Occ    Energy  Couls-En    Coefficients

                                   1 1s      1 1s      1 1s      1 1s      1 1s      1 1s      1 1s      1 1s      1 1s      1 1s
                                   1 1s      1 1s      1 1s      1 1s      1 1s      1 1s      1 1s      1 1s      1 1s      1 1s
                                   1 1s      1 1s      1 1s      1 1s      1 1s      1 1s      1 1s      1 1s      1 1s      1 1s
                                   1 1s      1 1s      1 1s      1 1s      1 1s      1 1s      1 1s      1 1s      1 3d0     1 3d2+
                                   1 3d0     1 3d2+    1 3d0     1 3d2+    1 3d0     1 3d2+    1 3d0     1 3d2+    1 3d0     1 3d2+
                                   1 3d0     1 3d2+    1 3d0     1 3d2+    1 3d0     1 3d2+    1 3d0     1 3d2+    1 3d0     1 3d2+
                                   1 3d0     1 3d2+    1 3d0     1 3d2+    1 3d0     1 3d2+    1 3d0     1 3d2+    1 3d0     1 3d2+
                                   1 3d0     1 3d2+    1 3d0     1 3d2+    1 3d0     1 3d2+    1 3d0     1 3d2+    1 3d0     1 3d2+
                                   1 3d0     1 3d2+    1 5g0     1 5g4+    1 5g2+    1 5g0     1 5g4+    1 5g2+    1 5g0     1 5g4+
                                   1 5g2+    1 5g0     1 5g4+    1 5g2+    1 5g0     1 5g4+    1 5g2+    1 5g0     1 5g4+    1 5g2+
                                   1 5g0     1 5g4+    1 5g2+

   1.1   2    -3.3836  -19.8024 -0.000000  0.000000 -0.000000  0.000000 -0.000000  0.000000 -0.000000  0.000000 -0.000000  0.000000
                                -0.000000  0.000001 -0.000003  0.000011 -0.000072 -0.000316  0.000339 -0.000841  0.002903  0.000261
                                -0.015661  0.168964 -0.256984  0.069911  0.455477 -0.879732 -0.402374  1.170829  0.406818  0.069367
                                -0.054900  0.084314 -0.126941  0.095269 -0.037597  0.014503 -0.003746  0.000667 -0.000000 -0.000000
                                 0.000000  0.000000 -0.000000 -0.000000  0.000000  0.000000 -0.000000 -0.000000  0.000000  0.000000
                                -0.000000 -0.000000  0.000000  0.000000 -0.000000 -0.000000  0.000000  0.000000 -0.000000 -0.000000
                                 0.000000  0.000000 -0.000000 -0.000000  0.000001  0.000000  0.000000  0.000000 -0.000000 -0.000000
                                 0.000001  0.000000 -0.000001 -0.000000  0.000001  0.000000 -0.000000 -0.000000  0.000000  0.000000
                                -0.000000 -0.000000  0.000000 -0.000000  0.000000  0.000000  0.000000 -0.000000  0.000000  0.000000
                                 0.000000  0.000000  0.000000 -0.000000 -0.000000 -0.000000  0.000000  0.000000  0.000000 -0.000000
                                -0.000000 -0.000000  0.000000

   2.1   +    -0.7234   -8.7357  0.000000 -0.000000  0.000000 -0.000000  0.000000 -0.000000  0.000000 -0.000000  0.000000 -0.000001
                                 0.000002 -0.000006  0.000017 -0.000056  0.000312  0.000985 -0.000657  0.000849 -0.001080 -0.000948
                                -0.000537  0.039981 -0.069134  0.005300  0.238973 -0.477537 -0.150156  0.716506  0.521114 -0.035051
                                -0.954691 -0.468075  0.127041 -0.058717  0.009856 -0.001555  0.000054  0.000022 -0.000000 -0.000000
                                 0.000000  0.000000 -0.000000 -0.000000  0.000000  0.000000 -0.000000 -0.000000  0.000000  0.000000
                                -0.000000 -0.000000  0.000000  0.000000 -0.000002 -0.000001  0.000006  0.000003 -0.000006 -0.000002
                                 0.000006  0.000003 -0.000034 -0.000015  0.000116  0.000051  0.000150  0.000065  0.000038  0.000017
                                 0.000003  0.000001 -0.000010 -0.000004  0.000008  0.000003 -0.000002 -0.000001  0.000001  0.000000
                                -0.000000 -0.000000  0.000000  0.000000  0.000000  0.000000  0.000000 -0.000000  0.000000  0.000000
                                -0.000000  0.000000  0.000000  0.000000 -0.000000 -0.000000 -0.000000  0.000000  0.000000  0.000000
                                -0.000000 -0.000000 -0.000000

   3.1   0    -0.8506  -13.0483  0.000000 -0.000000  0.000000 -0.000000  0.000000 -0.000000  0.000000 -0.000000  0.000000 -0.000000
                                 0.000000 -0.000000  0.000000 -0.000000  0.000000  0.000000 -0.000000  0.000000 -0.000000 -0.000000
                                 0.000000  0.000000 -0.000000 -0.000000  0.000000 -0.000000 -0.000000  0.000000  0.000000 -0.000000
                                -0.000000 -0.000000  0.000000 -0.000000  0.000000 -0.000000  0.000000 -0.000000  0.000000 -0.000000
                                -0.000000  0.000001  0.000002 -0.000004 -0.000007  0.000016  0.000025 -0.000058 -0.000080  0.000184
                                 0.000240 -0.000548 -0.000752  0.001720  0.003686 -0.008432 -0.009041  0.020680  0.008633 -0.019745
                                -0.009396  0.021492  0.052843 -0.120867 -0.182414  0.417231 -0.237201  0.542545 -0.065417  0.149629
                                -0.002869  0.006559  0.012399 -0.028356 -0.010777  0.024649  0.003330 -0.007615 -0.001396  0.003194
                                 0.000398 -0.000910 -0.000000  0.000000  0.000000  0.000000 -0.000000 -0.000000 -0.000000  0.000000
                                 0.000000 -0.000000  0.000000  0.000000  0.000000 -0.000000 -0.000000 -0.000000  0.000000  0.000000
                                 0.000000 -0.000000 -0.000000

   4.1   0    -0.8506  -13.0483 -0.000000  0.000000 -0.000000  0.000000 -0.000000  0.000000 -0.000000  0.000000 -0.000000  0.000000
                                -0.000000  0.000000 -0.000000  0.000000 -0.000000 -0.000000  0.000000 -0.000000  0.000000  0.000000
                                 0.000000 -0.000011  0.000018 -0.000001 -0.000063  0.000127  0.000040 -0.000187 -0.000138 -0.000009
                                 0.000259  0.000143 -0.000039  0.000019 -0.000004  0.000001 -0.000000  0.000000 -0.000000 -0.000000
                                 0.000001  0.000000 -0.000004 -0.000002  0.000016  0.000007 -0.000058 -0.000025  0.000184  0.000080
                                -0.000548 -0.000240  0.001720  0.000752 -0.008432 -0.003686  0.020680  0.009041 -0.019745 -0.008633
                                 0.021492  0.009396 -0.120868 -0.052843  0.417231  0.182413  0.542545  0.237201  0.149628  0.065418
                                 0.006561  0.002867 -0.028359 -0.012396  0.024650  0.010776 -0.007615 -0.003329  0.003194  0.001396
                                -0.000910 -0.000398  0.000000  0.000000  0.000000 -0.000000 -0.000000 -0.000000  0.000000  0.000000
                                 0.000000  0.000000  0.000000  0.000000 -0.000000 -0.000000 -0.000000  0.000000  0.000000  0.000000
                                -0.000000 -0.000000 -0.000000

                                   1 2px     1 2px     1 2px     1 2px     1 2px     1 2px     1 2px     1 2px     1 2px     1 2px
                                   1 2px     1 2px     1 2px     1 2px     1 2px     1 2px     1 2px     1 2px     1 2px     1 2px
                                   1 2px     1 2px     1 2px     1 2px     1 2px     1 2px     1 2px     1 2px     1 2px     1 2px
                                   1 2px     1 4f1+    1 4f3+    1 4f1+    1 4f3+    1 4f1+    1 4f3+    1 4f1+    1 4f3+    1 4f1+
                                   1 4f3+    1 4f1+    1 4f3+    1 4f1+    1 4f3+    1 4f1+    1 4f3+    1 4f1+    1 4f3+    1 4f1+
                                   1 4f3+    1 4f1+    1 4f3+    1 4f1+    1 4f3+    1 4f1+    1 4f3+    1 4f1+    1 4f3+    1 4f1+
                                   1 4f3+    1 6h1+    1 6h3+    1 6h5+    1 6h1+    1 6h3+    1 6h5+    1 6h1+    1 6h3+    1 6h5+


   1.2   2    -2.3969  -17.3543  0.000000 -0.000000  0.000000 -0.000000  0.000000 -0.000000  0.000001 -0.000003  0.000012 -0.000036
                                 0.000106 -0.000295  0.000816 -0.002480  0.009154 -0.075889  0.184434 -0.350768  0.619553 -0.609313
                                -0.066663  0.762158 -0.015374  0.434641 -0.035296  0.031182  0.000349  0.035443 -0.001033  0.000471
                                -0.000108 -0.000000 -0.000000  0.000000  0.000000 -0.000000 -0.000000  0.000000  0.000000 -0.000000
                                -0.000000  0.000000  0.000000 -0.000000  0.000000  0.000000  0.000000 -0.000000  0.000000  0.000000
                                 0.000000  0.000000  0.000000 -0.000000 -0.000000  0.000000  0.000000 -0.000000 -0.000000  0.000000
                                 0.000000  0.000000  0.000000 -0.000000 -0.000000  0.000000 -0.000000 -0.000000 -0.000000  0.000000

   2.2   2    -0.8172  -14.9288  0.000000 -0.000000 -0.000000  0.000000 -0.000000  0.000000 -0.000000  0.000000 -0.000000  0.000000
                                -0.000000  0.000000 -0.000000  0.000000 -0.000000  0.000000 -0.000000  0.000000 -0.000000  0.000000
                                -0.000000 -0.000001  0.000000 -0.000000 -0.000004  0.000000  0.000001  0.000004 -0.000000  0.000000
                                -0.000000  0.000013  0.000001 -0.000088 -0.000010  0.000430  0.000047 -0.002086 -0.000230  0.021543
                                 0.002379 -0.034306 -0.003788  0.120589  0.013315  0.195262  0.021561  0.333190  0.036791  0.412257
                                 0.045521  0.243824  0.026923  0.068362  0.007548 -0.019341 -0.002136  0.009233  0.001019 -0.002908
                                -0.000321 -0.000000 -0.000000  0.000000 -0.000000 -0.000000  0.000000  0.000000  0.000000  0.000000

   3.2   2    -0.8172  -14.9288  0.000000 -0.000000  0.000000 -0.000000  0.000000 -0.000000  0.000000 -0.000000  0.000000 -0.000000
                                 0.000000 -0.000000  0.000000 -0.000000  0.000000 -0.000000  0.000000 -0.000000  0.000001 -0.000001
                                -0.000000  0.000001 -0.000000  0.000001  0.000011 -0.000002 -0.000002 -0.000011  0.000000 -0.000000
                                 0.000000 -0.000001  0.000013  0.000010 -0.000088 -0.000047  0.000430  0.000230 -0.002086 -0.002379
                                 0.021543  0.003788 -0.034306 -0.013315  0.120589 -0.021561  0.195262 -0.036790  0.333190 -0.045521
                                 0.412257 -0.026923  0.243823 -0.007549  0.068362  0.002136 -0.019342 -0.001020  0.009233  0.000321
                                -0.002908 -0.000000 -0.000000 -0.000000 -0.000000 -0.000000 -0.000000 -0.000000  0.000000  0.000000

   4.2   0    -0.3712   -6.8655  0.000000 -0.000000  0.000000 -0.000000  0.000000 -0.000000  0.000000 -0.000000  0.000002 -0.000005
                                 0.000015 -0.000043  0.000121 -0.000375  0.001434 -0.012420  0.030782 -0.067556  0.156708 -0.186817
                                -0.029846  0.395165 -0.170749  0.376706  1.211837 -0.353434 -0.772782 -1.333442  0.051321 -0.023658
                                 0.005435 -0.000000 -0.000000  0.000000  0.000000 -0.000000 -0.000000  0.000000  0.000000  0.000000
                                -0.000000 -0.000000  0.000000  0.000000 -0.000000  0.000000 -0.000001  0.000000 -0.000001  0.000001
                                -0.000001  0.000001 -0.000000 -0.000001 -0.000001 -0.000000 -0.000000 -0.000000 -0.000000  0.000000
                                 0.000000  0.000000  0.000000 -0.000000  0.000000  0.000000  0.000000  0.000000  0.000000  0.000000

   5.2   0    -0.1645   -3.3710  0.000000 -0.000000  0.000000 -0.000000  0.000000 -0.000000  0.000000 -0.000000  0.000000 -0.000001
                                 0.000002 -0.000006  0.000017 -0.000057  0.000246 -0.002393  0.006238 -0.018645  0.060413 -0.082118
                                -0.020653  0.221430 -0.128753  0.233121 -4.686927 -0.238365 -0.659458  5.409443  0.594865 -0.073199
                                 0.017193 -0.000000 -0.000000  0.000000  0.000000 -0.000000 -0.000000  0.000000  0.000000 -0.000000
                                -0.000000  0.000000  0.000000 -0.000000 -0.000000 -0.000000 -0.000000 -0.000000 -0.000000  0.000000
                                -0.000000  0.000000 -0.000000 -0.000000 -0.000000  0.000001  0.000001  0.000002  0.000001  0.000001
                                 0.000000  0.000000  0.000000 -0.000000  0.000000  0.000000  0.000000  0.000000  0.000000  0.000000

                                   1 2py     1 2py     1 2py     1 2py     1 2py     1 2py     1 2py     1 2py     1 2py     1 2py
                                   1 2py     1 2py     1 2py     1 2py     1 2py     1 2py     1 2py     1 2py     1 2py     1 2py
                                   1 2py     1 2py     1 2py     1 2py     1 2py     1 2py     1 2py     1 2py     1 2py     1 2py
                                   1 2py     1 4f1-    1 4f3-    1 4f1-    1 4f3-    1 4f1-    1 4f3-    1 4f1-    1 4f3-    1 4f1-
                                   1 4f3-    1 4f1-    1 4f3-    1 4f1-    1 4f3-    1 4f1-    1 4f3-    1 4f1-    1 4f3-    1 4f1-
                                   1 4f3-    1 4f1-    1 4f3-    1 4f1-    1 4f3-    1 4f1-    1 4f3-    1 4f1-    1 4f3-    1 4f1-
                                   1 4f3-    1 6h1-    1 6h3-    1 6h5-    1 6h1-    1 6h3-    1 6h5-    1 6h1-    1 6h3-    1 6h5-


   1.3   2    -2.3969  -17.3543  0.000000 -0.000000  0.000000 -0.000000  0.000000 -0.000000  0.000001 -0.000003  0.000012 -0.000036
                                 0.000106 -0.000295  0.000816 -0.002480  0.009154 -0.075889  0.184434 -0.350768  0.619553 -0.609312
                                -0.066663  0.762158 -0.015375  0.434641 -0.035296  0.031182  0.000349  0.035443 -0.001032  0.000471
                                -0.000108 -0.000000 -0.000000  0.000000  0.000000 -0.000000 -0.000000  0.000000  0.000000 -0.000000
                                -0.000000  0.000000  0.000000 -0.000000 -0.000000  0.000000 -0.000000 -0.000000 -0.000000  0.000000
                                 0.000000  0.000000  0.000000 -0.000000 -0.000000  0.000000  0.000000 -0.000000 -0.000000  0.000000
                                 0.000000  0.000000 -0.000000 -0.000000 -0.000000 -0.000000 -0.000000 -0.000000  0.000000  0.000000

   2.3   2    -0.8172  -14.9288  0.000000 -0.000000 -0.000000 -0.000000  0.000000  0.000000 -0.000000  0.000000 -0.000000  0.000000
                                -0.000000  0.000000 -0.000000  0.000000 -0.000000  0.000000 -0.000000  0.000000 -0.000000  0.000000
                                -0.000000 -0.000000  0.000000 -0.000000 -0.000001 -0.000000  0.000000  0.000001 -0.000000  0.000000
                                -0.000000  0.000012 -0.000004 -0.000083  0.000031  0.000406 -0.000149 -0.001970  0.000722  0.020350
                                -0.007459 -0.032406  0.011878  0.113911 -0.041753  0.184448 -0.067607  0.314739 -0.115363  0.389427
                                -0.142739  0.230321 -0.084421  0.064576 -0.023669 -0.018270  0.006697  0.008722 -0.003197 -0.002747
                                 0.001007 -0.000000 -0.000000  0.000000 -0.000000 -0.000000  0.000000  0.000000  0.000000 -0.000000

   3.3   2    -0.8172  -14.9288  0.000000 -0.000000  0.000000  0.000000 -0.000000  0.000000 -0.000000  0.000000 -0.000000  0.000000
                                -0.000000  0.000000 -0.000000  0.000000 -0.000000  0.000000 -0.000000  0.000000 -0.000001  0.000001
                                 0.000000 -0.000001  0.000001 -0.000001 -0.000009  0.000001  0.000001  0.000009 -0.000000  0.000000
                                -0.000000  0.000004  0.000012 -0.000031 -0.000083  0.000149  0.000406 -0.000722 -0.001970  0.007459
                                 0.020350 -0.011878 -0.032406  0.041753  0.113912  0.067607  0.184449  0.115363  0.314739  0.142739
                                 0.389427  0.084421  0.230321  0.023670  0.064577 -0.006697 -0.018270  0.003197  0.008722 -0.001007
                                -0.002747 -0.000000 -0.000000 -0.000000 -0.000000 -0.000000 -0.000000  0.000000  0.000000  0.000000

   4.3   0    -0.3712   -6.8655  0.000000 -0.000000  0.000000 -0.000000  0.000000 -0.000000  0.000000 -0.000000  0.000002 -0.000005
                                 0.000015 -0.000043  0.000121 -0.000375  0.001434 -0.012420  0.030783 -0.067557  0.156709 -0.186818
                                -0.029846  0.395166 -0.170748  0.376706  1.211862 -0.353437 -0.772781 -1.333466  0.051321 -0.023658
                                 0.005435 -0.000000  0.000000  0.000000 -0.000000 -0.000000  0.000000  0.000000 -0.000000 -0.000000
                                 0.000000  0.000000 -0.000000 -0.000000  0.000000  0.000000  0.000000 -0.000000  0.000000  0.000001
                                 0.000001  0.000001  0.000001 -0.000001 -0.000000 -0.000000 -0.000000 -0.000000 -0.000000  0.000000
                                 0.000000  0.000000 -0.000000 -0.000000  0.000000 -0.000000  0.000000  0.000000 -0.000000  0.000000

   5.3   0    -0.1645   -3.3710  0.000000 -0.000000  0.000000 -0.000000  0.000000 -0.000000  0.000000 -0.000000  0.000000 -0.000001
                                 0.000002 -0.000006  0.000017 -0.000057  0.000246 -0.002393  0.006238 -0.018645  0.060414 -0.082119
                                -0.020653  0.221429 -0.128752  0.233120 -4.686932 -0.238365 -0.659456  5.409448  0.594865 -0.073199
                                 0.017193 -0.000000 -0.000000  0.000000  0.000000 -0.000000 -0.000000  0.000000  0.000000 -0.000000
                                -0.000000  0.000000  0.000000 -0.000000 -0.000000 -0.000000  0.000000 -0.000000 -0.000000  0.000000
                                 0.000000  0.000000  0.000000 -0.000001 -0.000000  0.000001  0.000001  0.000002  0.000001  0.000001
                                 0.000000  0.000000 -0.000000 -0.000000  0.000000 -0.000000  0.000000  0.000000 -0.000000  0.000000

                                   1 3d2-    1 3d2-    1 3d2-    1 3d2-    1 3d2-    1 3d2-    1 3d2-    1 3d2-    1 3d2-    1 3d2-
                                   1 3d2-    1 3d2-    1 3d2-    1 3d2-    1 3d2-    1 3d2-    1 3d2-    1 3d2-    1 3d2-    1 3d2-
                                   1 3d2-    1 3d2-    1 5g2-    1 5g4-    1 5g2-    1 5g4-    1 5g2-    1 5g4-    1 5g2-    1 5g4-
                                   1 5g2-    1 5g4-    1 5g2-    1 5g4-    1 5g2-    1 5g4-

   1.4   0    -0.8506  -13.0483 -0.000000  0.000001 -0.000004  0.000018 -0.000064  0.000201 -0.000598  0.001877 -0.009202  0.022570
                                -0.021550  0.023456 -0.131914  0.455363  0.592131  0.163305  0.007158 -0.030947  0.026901 -0.008311
                                 0.003485 -0.000993  0.000000  0.000000 -0.000000 -0.000000  0.000000  0.000000  0.000000  0.000000
                                -0.000000 -0.000000  0.000000  0.000000 -0.000000 -0.000000

   2.4   0    -0.1970   -4.5040 -0.000000  0.000000 -0.000001  0.000003 -0.000009  0.000028 -0.000084  0.000260 -0.001242  0.002990
                                -0.002851  0.004152 -0.031570  0.119741  0.169176 -0.045690 -0.532025  0.232741 -0.613452 -0.154969
                                 0.002754 -0.001311  0.000000  0.000000 -0.000000 -0.000000  0.000000  0.000000  0.000000  0.000000
                                -0.000001 -0.000000 -0.000000 -0.000000 -0.000001 -0.000001

                                   1 2pz     1 2pz     1 2pz     1 2pz     1 2pz     1 2pz     1 2pz     1 2pz     1 2pz     1 2pz
                                   1 2pz     1 2pz     1 2pz     1 2pz     1 2pz     1 2pz     1 2pz     1 2pz     1 2pz     1 2pz
                                   1 2pz     1 2pz     1 2pz     1 2pz     1 2pz     1 2pz     1 2pz     1 2pz     1 2pz     1 2pz
                                   1 2pz     1 4f0     1 4f2+    1 4f0     1 4f2+    1 4f0     1 4f2+    1 4f0     1 4f2+    1 4f0
                                   1 4f2+    1 4f0     1 4f2+    1 4f0     1 4f2+    1 4f0     1 4f2+    1 4f0     1 4f2+    1 4f0
                                   1 4f2+    1 4f0     1 4f2+    1 4f0     1 4f2+    1 4f0     1 4f2+    1 4f0     1 4f2+    1 4f0
                                   1 4f2+    1 6h2+    1 6h4+    1 6h0     1 6h2+    1 6h4+    1 6h0     1 6h2+    1 6h4+    1 6h0


   1.5   2    -2.3969  -17.3543  0.000000 -0.000000  0.000000 -0.000000  0.000000 -0.000000  0.000001 -0.000003  0.000012 -0.000036
                                 0.000106 -0.000295  0.000816 -0.002480  0.009154 -0.075889  0.184434 -0.350768  0.619553 -0.609313
                                -0.066663  0.762158 -0.015373  0.434640 -0.035296  0.031181  0.000349  0.035443 -0.001032  0.000471
                                -0.000108 -0.000000 -0.000000  0.000000  0.000000 -0.000000 -0.000000  0.000000  0.000000 -0.000000
                                -0.000000  0.000000  0.000000  0.000000  0.000000  0.000000  0.000000  0.000000 -0.000000  0.000000
                                 0.000000  0.000000  0.000000 -0.000000 -0.000000  0.000000  0.000000 -0.000000 -0.000000  0.000000
                                 0.000000  0.000000  0.000000 -0.000000 -0.000000  0.000000 -0.000000 -0.000000 -0.000000  0.000000

   2.5   2    -0.8172  -14.9288 -0.000000  0.000000 -0.000000  0.000000 -0.000000  0.000000 -0.000000  0.000000 -0.000000  0.000000
                                -0.000000  0.000000 -0.000000  0.000000 -0.000000  0.000000 -0.000000  0.000000 -0.000001  0.000001
                                 0.000000 -0.000001  0.000000 -0.000001 -0.000009  0.000002  0.000001  0.000009 -0.000000  0.000000
                                -0.000000 -0.000008  0.000010  0.000056 -0.000069 -0.000274  0.000335  0.001328 -0.001625 -0.013713
                                 0.016784  0.021837 -0.026728 -0.076759  0.093953 -0.124290  0.152132 -0.212085  0.259594 -0.262413
                                 0.321196 -0.155201  0.189967 -0.043515  0.053262  0.012311 -0.015069 -0.005877  0.007194  0.001851
                                -0.002265 -0.000000 -0.000000  0.000000 -0.000000 -0.000000  0.000000  0.000000  0.000000 -0.000000

   3.5   2    -0.8172  -14.9288  0.000000 -0.000000  0.000000 -0.000000  0.000000 -0.000000  0.000000 -0.000000  0.000000 -0.000000
                                 0.000000 -0.000000  0.000000 -0.000000  0.000000 -0.000000  0.000000 -0.000000  0.000001 -0.000001
                                -0.000000  0.000001  0.000000  0.000001  0.000012 -0.000003 -0.000002 -0.000012  0.000000 -0.000000
                                 0.000000  0.000010  0.000008 -0.000069 -0.000056  0.000335  0.000274 -0.001625 -0.001328  0.016784
                                 0.013713 -0.026728 -0.021837  0.093953  0.076759  0.152132  0.124290  0.259594  0.212085  0.321196
                                 0.262413  0.189967  0.155201  0.053262  0.043514 -0.015069 -0.012311  0.007194  0.005877 -0.002265
                                -0.001851 -0.000000 -0.000000 -0.000000 -0.000000 -0.000000 -0.000000  0.000000  0.000000  0.000000

   4.5   0    -0.3712   -6.8655  0.000000 -0.000000  0.000000 -0.000000  0.000000 -0.000000  0.000000 -0.000000  0.000002 -0.000005
                                 0.000015 -0.000043  0.000121 -0.000375  0.001434 -0.012420  0.030782 -0.067555  0.156706 -0.186815
                                -0.029847  0.395163 -0.170750  0.376707  1.211800 -0.353430 -0.772782 -1.333407  0.051320 -0.023658
                                 0.005435 -0.000000 -0.000000  0.000000  0.000000 -0.000000 -0.000000  0.000000  0.000000 -0.000000
                                -0.000000  0.000000  0.000000 -0.000001 -0.000000 -0.000001 -0.000000 -0.000002 -0.000000 -0.000001
                                -0.000000 -0.000000  0.000000 -0.000002 -0.000000 -0.000000 -0.000000 -0.000000 -0.000000  0.000000
                                 0.000000  0.000000  0.000000 -0.000000 -0.000000  0.000000  0.000000 -0.000000  0.000000  0.000000

   5.5   0    -0.1645   -3.3710  0.000000 -0.000000  0.000000 -0.000000  0.000000 -0.000000  0.000000 -0.000000  0.000000 -0.000001
                                 0.000002 -0.000006  0.000017 -0.000057  0.000246 -0.002393  0.006238 -0.018644  0.060413 -0.082118
                                -0.020653  0.221430 -0.128754  0.233123 -4.686920 -0.238365 -0.659461  5.409437  0.594865 -0.073199
                                 0.017193 -0.000000 -0.000000  0.000000  0.000000 -0.000000 -0.000000  0.000000  0.000000 -0.000000
                                -0.000000  0.000000  0.000000 -0.000000 -0.000000 -0.000000 -0.000000 -0.000000 -0.000000 -0.000000
                                -0.000000 -0.000000  0.000000 -0.000001 -0.000000  0.000001  0.000000  0.000002  0.000001  0.000001
                                 0.000000  0.000000  0.000000 -0.000000 -0.000000  0.000000  0.000000 -0.000000  0.000000 -0.000000

                                   1 3d1+    1 3d1+    1 3d1+    1 3d1+    1 3d1+    1 3d1+    1 3d1+    1 3d1+    1 3d1+    1 3d1+
                                   1 3d1+    1 3d1+    1 3d1+    1 3d1+    1 3d1+    1 3d1+    1 3d1+    1 3d1+    1 3d1+    1 3d1+
                                   1 3d1+    1 3d1+    1 5g1+    1 5g3+    1 5g1+    1 5g3+    1 5g1+    1 5g3+    1 5g1+    1 5g3+
                                   1 5g1+    1 5g3+    1 5g1+    1 5g3+    1 5g1+    1 5g3+

   1.6   0    -0.8506  -13.0483 -0.000000  0.000001 -0.000004  0.000018 -0.000064  0.000201 -0.000598  0.001877 -0.009202  0.022570
                                -0.021550  0.023456 -0.131914  0.455364  0.592131  0.163304  0.007160 -0.030950  0.026903 -0.008311
                                 0.003486 -0.000993  0.000000  0.000000 -0.000000  0.000000  0.000000  0.000000  0.000000  0.000000
                                -0.000000 -0.000000  0.000000 -0.000000 -0.000000 -0.000000

   2.6   0    -0.1970   -4.5040 -0.000000  0.000000 -0.000001  0.000003 -0.000009  0.000028 -0.000084  0.000260 -0.001242  0.002990
                                -0.002851  0.004152 -0.031570  0.119741  0.169177 -0.045691 -0.532031  0.232744 -0.613452 -0.154966
                                 0.002754 -0.001311  0.000000  0.000000 -0.000000  0.000000  0.000000  0.000000  0.000001  0.000000
                                -0.000001 -0.000000 -0.000001 -0.000000 -0.000001 -0.000000

                                   1 3d1-    1 3d1-    1 3d1-    1 3d1-    1 3d1-    1 3d1-    1 3d1-    1 3d1-    1 3d1-    1 3d1-
                                   1 3d1-    1 3d1-    1 3d1-    1 3d1-    1 3d1-    1 3d1-    1 3d1-    1 3d1-    1 3d1-    1 3d1-
                                   1 3d1-    1 3d1-    1 5g1-    1 5g3-    1 5g1-    1 5g3-    1 5g1-    1 5g3-    1 5g1-    1 5g3-
                                   1 5g1-    1 5g3-    1 5g1-    1 5g3-    1 5g1-    1 5g3-

   1.7   0    -0.8506  -13.0483 -0.000000  0.000001 -0.000004  0.000018 -0.000064  0.000201 -0.000598  0.001877 -0.009202  0.022570
                                -0.021550  0.023456 -0.131914  0.455364  0.592131  0.163304  0.007159 -0.030949  0.026902 -0.008311
                                 0.003485 -0.000993  0.000000  0.000000 -0.000000 -0.000000  0.000000  0.000000  0.000000  0.000000
                                -0.000000 -0.000000  0.000000  0.000000 -0.000000 -0.000000

   2.7   0    -0.1970   -4.5040 -0.000000  0.000000 -0.000001  0.000003 -0.000009  0.000028 -0.000084  0.000260 -0.001242  0.002990
                                -0.002851  0.004152 -0.031570  0.119741  0.169177 -0.045691 -0.532028  0.232743 -0.613452 -0.154967
                                 0.002754 -0.001311  0.000000  0.000000 -0.000000 -0.000000  0.000000 -0.000000  0.000001  0.000000
                                -0.000001 -0.000000 -0.000001 -0.000000 -0.000001 -0.000000

                                   1 4f2-    1 4f2-    1 4f2-    1 4f2-    1 4f2-    1 4f2-    1 4f2-    1 4f2-    1 4f2-    1 4f2-
                                   1 4f2-    1 4f2-    1 4f2-    1 4f2-    1 4f2-    1 6h4-    1 6h2-    1 6h4-    1 6h2-    1 6h4-
                                   1 6h2-

   1.8   2    -0.8172  -14.9287  0.000013 -0.000089  0.000432 -0.002098  0.021674 -0.034515  0.121322  0.196448  0.335214  0.414762
                                 0.245306  0.068780 -0.019458  0.009290 -0.002925 -0.000000 -0.000000 -0.000000 -0.000000  0.000000
                                 0.000000

   2.8   0    -0.1258   -3.2076 -0.000001  0.000005 -0.000027  0.000131 -0.001463  0.002209 -0.009983 -0.017772 -0.028374 -0.033261
                                -0.001628  0.061505  0.192498  0.445938  0.450792  0.000000  0.000000 -0.000000 -0.000000  0.000000
                                 0.000000

   3.8   0    -0.0703   -2.6875  0.000002 -0.000012  0.000060 -0.000289  0.002846 -0.004663  0.013654  0.019683  0.036576  0.033440
                                 0.015250 -0.184359 -0.002624 -1.203535  1.434652 -0.000000 -0.000000  0.000000  0.000000 -0.000000
                                -0.000000

 HOMO      2.1    -0.723394 =     -19.6846eV
 LUMO      1.4    -0.850607 =     -23.1462eV
 LUMO-HOMO        -0.127213 =      -3.4616eV


 **********************************************************************************************************************************
 DATASETS  * FILE   NREC   LENGTH (MB)   RECORD NAMES
              1      19       21.31       500      610      700      900      950      970     1000      129      960     1100
                                          VAR    BASINP    GEOM    SYMINP    ZMAT    AOBASIS   BASIS     P2S    ABASIS      S
                                         1400     1410     1420     1200     1210     1080     1600     1650     1700
                                           T        V       ECP      H0       H01     AOSYM     SMH    MOLCAS    OPER

              2       5        6.25       200      700     1000      520     4202
                                        OPTIONS   GEOM     BASIS   MCVARS     RHF

 PROGRAMS   *        TOTAL       RHF       INT
 CPU TIMES  *       163.72      3.26    160.06
 REAL TIME  *       175.71 SEC
 DISK USED  *         8.15 GB
 SF USED    *         0.12 MB
 GA USED    *         0.00 MB       (max)       0.00 MB       (current)
 **********************************************************************************************************************************
   -->
   <time start="18:09:38" end="18:12:33" cpu="163.72" system="7.34" real="175.71"/>
   <storage units="megabyte" memory="8001.84" sf="0.12" df="352.05" eaf="7794.41" ga="0.0"/>
  </jobstep><!--
  --><jobstep command="POP" commandset="POP">
   <!--


 PROGRAM * POP (Mulliken population analysis)


 Density matrix read from record         4202.2  Type=RHF/CHARGE (state 1.1)

 Population analysis by basis function type

 Unique atom        s        p        d        f        g    Total    Charge
   1  LU      3.00000  6.00000  0.00000 14.00000  0.00000 23.00000  + 2.00000


 **********************************************************************************************************************************
 DATASETS  * FILE   NREC   LENGTH (MB)   RECORD NAMES
              1      19       21.31       500      610      700      900      950      970     1000      129      960     1100
                                          VAR    BASINP    GEOM    SYMINP    ZMAT    AOBASIS   BASIS     P2S    ABASIS      S
                                         1400     1410     1420     1200     1210     1080     1600     1650     1700
                                           T        V       ECP      H0       H01     AOSYM     SMH    MOLCAS    OPER

              2       5        6.25       200      700     1000      520     4202
                                        OPTIONS   GEOM     BASIS   MCVARS     RHF

 PROGRAMS   *        TOTAL       POP       RHF       INT
 CPU TIMES  *       163.74      0.01      3.26    160.06
 REAL TIME  *       175.73 SEC
 DISK USED  *         8.15 GB
 SF USED    *         0.12 MB
 GA USED    *         0.00 MB       (max)       0.00 MB       (current)
 **********************************************************************************************************************************
   -->
   <time start="18:12:33" end="18:12:33" cpu="0.02" system="0.0" real="0.02"/>
   <storage units="megabyte" memory="8001.84" sf="0.12" df="352.05" eaf="7794.41" ga="0.0"/>
  </jobstep><!--
  --><jobstep command="MULTI" commandset="MULTI">
   <!--


 PROGRAM * MULTI (Direct Multiconfiguration SCF)       Authors: P.J. Knowles, H.-J. Werner (1984)     S.T. Elbert (1988)


 Number of closed-shell orbitals:  11 (   1   3   3   0   3   0   0   1 )
 Number of active  orbitals:        1 (   1   0   0   0   0   0   0   0 )
 Number of external orbitals:     430 ( 101  67  67  36  67  36  36  20 )

 State symmetry 1

 Number of electrons:     1    Spin symmetry=Doublet   Space symmetry=1
 Number of states:        1
 Number of CSFs:          1   (1 determinants, 1 intermediate states)

 Molecular orbitals read from record     4202.2  Type=RHF/CANONICAL (state 1.1)
 *** IN SYMMETRY 1 ORBITAL  2 SYMMETRY CONTAMINATION OF 0.142D-03 HAS BEEN REMOVED

 EXTRA SYMMETRY OF MOS IN SYMMETRY 1:   1 1 3 2 1 2 3 1 2 3   1 2 3 1 2 3 4 6 5 1   2 3 1 4 6 5 2 3 1 2   3 4 6 5 1 4 6 5 2 3
                                        1 4 6 5 1 2 3 5 6 4   1 3 2 3 2 1 5 6 4 3   2 1 3 2 1 1 3 2 1 2   3 1 1 3 2 1 3 2 1 1
                                        3 2 1 3 2 1 1 3 2 1   1 2 3 1 1 1 1 1 1 1   1 1 1
 *** IN SYMMETRY 2 ORBITAL  2 SYMMETRY CONTAMINATION OF 0.994D-01 HAS BEEN REMOVED
 *** IN SYMMETRY 2 ORBITAL  3 SYMMETRY CONTAMINATION OF 0.995D-01 HAS BEEN REMOVED
 EXTRA SYMMETRY OF MOS IN SYMMETRY 2:   1 2 3 1 1 2 3 1 2 3   1 1 2 3 1 2 3 1 2 3   1 4 5 6 2 3 1 4 5 6   1 2 3 1 6 5 4 3 2 1
                                        3 2 1 1 3 2 1 3 2 1   1 3 2 1 3 2 1 1 3 2   1 1 1 1 1 1 1 1 1 1
 *** IN SYMMETRY 3 ORBITAL  2 SYMMETRY CONTAMINATION OF 0.268D+00 HAS BEEN REMOVED
 *** IN SYMMETRY 3 ORBITAL  3 SYMMETRY CONTAMINATION OF 0.268D+00 HAS BEEN REMOVED
 EXTRA SYMMETRY OF MOS IN SYMMETRY 3:   1 2 3 1 1 2 3 1 2 3   1 1 2 3 1 2 3 1 2 3   1 4 5 6 2 3 1 4 5 6   1 2 3 1 6 5 4 3 2 1
                                        3 2 1 1 3 2 1 3 2 1   1 3 2 1 3 2 1 1 2 3   1 1 1 1 1 1 1 1 1 1
 EXTRA SYMMETRY OF MOS IN SYMMETRY 4:   1 1 1 1 1 2 3 1 2 3   1 1 2 3 2 3 1 2 3 1   3 2 1 1 3 2 1 1 1 1   1 1 1 1 1 1
 *** IN SYMMETRY 5 ORBITAL  2 SYMMETRY CONTAMINATION OF 0.450D+00 HAS BEEN REMOVED
 *** IN SYMMETRY 5 ORBITAL  3 SYMMETRY CONTAMINATION OF 0.450D+00 HAS BEEN REMOVED
 EXTRA SYMMETRY OF MOS IN SYMMETRY 5:   1 3 2 1 1 2 3 1 2 3   1 1 2 3 1 2 3 1 2 3   1 6 4 5 2 3 1 6 4 5   1 2 3 1 5 4 6 3 2 1
                                        3 2 1 1 3 2 1 3 2 1   1 3 2 1 3 2 1 1 2 3   1 1 1 1 1 1 1 1 1 1
 EXTRA SYMMETRY OF MOS IN SYMMETRY 6:   1 1 1 1 1 2 3 1 2 3   1 1 2 3 2 3 1 2 3 1   3 2 1 1 3 2 1 1 1 1   1 1 1 1 1 1
 EXTRA SYMMETRY OF MOS IN SYMMETRY 7:   1 1 1 1 1 2 3 1 2 3   1 1 2 3 2 3 1 2 3 1   3 2 1 1 3 2 1 1 1 1   1 1 1 1 1 1
 EXTRA SYMMETRY OF MOS IN SYMMETRY 8:   1 1 1 1 1 1 3 2 1 3   2 1 2 3 1 1 1 1 1 1   1

 Wavefunction dump at record             5202.2

 Convergence thresholds  0.10E-01 (gradient)  0.10E-05 (energy)  0.10E-02 (step length)

 Number of orbital rotations:      826   (     1 Core/Active    724 Core/Virtual   0 Active/Active    101 Active/Virtual)
 Total number of variables:        827


 ITER. MIC  NCI  NEG     ENERGY(VAR)     ENERGY(PROJ)   ENERGY CHANGE     GRAD(0)  GRAD(ORB)   GRAD(CI)     STEP       TIME

   1   26    4    0    -180.73415356    -180.73415356   -0.00000000    0.00002848 0.00000000 0.00000000  0.94D-05      1.30

 ** WVFN ****  CONVERGENCE REACHED, FINAL GRADIENT:  0.11D-09


 First order charge density matrix for state 1.1 saved on record  5202.2 (density set 1)

 Results for state 1.1
 =====================

 !MCSCF STATE 1.1 Energy             -180.734153557875
   --><property name="Energy" method="MCSCF" principal="true" stateSymmetry="1" stateNumber="1"
     value="-180.734153557875"/><!--
 Nuclear energy                         0.00000000
 Kinetic energy                        99.27230459
 One electron energy                 -328.15633162
 Two electron energy                  147.42217806
 Virial ratio                           2.82058988

 !MCSCF STATE 1.1 Dipole moment         0.00000000     0.00000000     0.00000000
 Dipole moment /Debye                   0.00000000     0.00000000     0.00000000
   --><property name="Dipole moment" method="MCSCF" principal="true" stateSymmetry="1"
     stateNumber="1" value="0.0 0.0 0.0"/><!--


 NATURAL ORBITALS
 ================

   Orb     Occ        Energy       Coefficients

                                   1 1s      1 1s      1 1s      1 1s      1 1s      1 1s      1 1s      1 1s      1 1s      1 1s
                                   1 1s      1 1s      1 1s      1 1s      1 1s      1 1s      1 1s      1 1s      1 1s      1 1s
                                   1 1s      1 1s      1 1s      1 1s      1 1s      1 1s      1 1s      1 1s      1 1s      1 1s
                                   1 1s      1 1s      1 1s      1 1s      1 1s      1 1s      1 1s      1 1s      1 3d0     1 3d2+
                                   1 3d0     1 3d2+    1 3d0     1 3d2+    1 3d0     1 3d2+    1 3d0     1 3d2+    1 3d0     1 3d2+
                                   1 3d0     1 3d2+    1 3d0     1 3d2+    1 3d0     1 3d2+    1 3d0     1 3d2+    1 3d0     1 3d2+
                                   1 3d0     1 3d2+    1 3d0     1 3d2+    1 3d0     1 3d2+    1 3d0     1 3d2+    1 3d0     1 3d2+
                                   1 3d0     1 3d2+    1 3d0     1 3d2+    1 3d0     1 3d2+    1 3d0     1 3d2+    1 3d0     1 3d2+
                                   1 3d0     1 3d2+    1 5g0     1 5g4+    1 5g2+    1 5g0     1 5g4+    1 5g2+    1 5g0     1 5g4+
                                   1 5g2+    1 5g0     1 5g4+    1 5g2+    1 5g0     1 5g4+    1 5g2+    1 5g0     1 5g4+    1 5g2+
                                   1 5g0     1 5g4+    1 5g2+

   1.1  2.00000    -3.383599    -0.000000  0.000000 -0.000000  0.000000 -0.000000  0.000000 -0.000000  0.000000 -0.000000  0.000000
                                -0.000000  0.000001 -0.000003  0.000011 -0.000072 -0.000316  0.000339 -0.000841  0.002903  0.000261
                                -0.015661  0.168964 -0.256984  0.069912  0.455476 -0.879730 -0.402375  1.170827  0.406820  0.069367
                                -0.054900  0.084314 -0.126941  0.095269 -0.037597  0.014503 -0.003746  0.000667  0.000000  0.000000
                                 0.000000  0.000000  0.000000  0.000000  0.000000  0.000000  0.000000  0.000000  0.000000  0.000000
                                 0.000000  0.000000  0.000000  0.000000  0.000000  0.000000  0.000000  0.000000  0.000000  0.000000
                                 0.000000  0.000000  0.000000  0.000000  0.000000  0.000000  0.000000  0.000000  0.000000  0.000000
                                 0.000000  0.000000  0.000000  0.000000  0.000000  0.000000  0.000000  0.000000  0.000000  0.000000
                                 0.000000  0.000000  0.000000  0.000000  0.000000  0.000000  0.000000  0.000000  0.000000  0.000000
                                 0.000000  0.000000  0.000000  0.000000  0.000000  0.000000  0.000000  0.000000  0.000000  0.000000
                                 0.000000  0.000000  0.000000

   2.1  1.00000    -0.586824     0.000000 -0.000000  0.000000 -0.000000  0.000000 -0.000000  0.000000 -0.000000  0.000000 -0.000001
                                 0.000002 -0.000006  0.000017 -0.000056  0.000312  0.000985 -0.000657  0.000849 -0.001080 -0.000948
                                -0.000537  0.039982 -0.069136  0.005301  0.238971 -0.477534 -0.150157  0.716504  0.521109 -0.035015
                                -0.954763 -0.467918  0.126848 -0.058616  0.009822 -0.001543  0.000051  0.000022  0.000000  0.000000
                                 0.000000  0.000000  0.000000  0.000000  0.000000  0.000000  0.000000  0.000000  0.000000  0.000000
                                 0.000000  0.000000  0.000000  0.000000  0.000000  0.000000  0.000000  0.000000  0.000000  0.000000
                                 0.000000  0.000000  0.000000  0.000000  0.000000  0.000000  0.000000  0.000000  0.000000  0.000000
                                 0.000000  0.000000  0.000000  0.000000  0.000000  0.000000  0.000000  0.000000  0.000000  0.000000
                                 0.000000  0.000000  0.000000  0.000000  0.000000  0.000000  0.000000  0.000000  0.000000  0.000000
                                 0.000000  0.000000  0.000000  0.000000  0.000000  0.000000  0.000000  0.000000  0.000000  0.000000
                                 0.000000  0.000000  0.000000

                                   1 2px     1 2px     1 2px     1 2px     1 2px     1 2px     1 2px     1 2px     1 2px     1 2px
                                   1 2px     1 2px     1 2px     1 2px     1 2px     1 2px     1 2px     1 2px     1 2px     1 2px
                                   1 2px     1 2px     1 2px     1 2px     1 2px     1 2px     1 2px     1 2px     1 2px     1 2px
                                   1 2px     1 4f1+    1 4f3+    1 4f1+    1 4f3+    1 4f1+    1 4f3+    1 4f1+    1 4f3+    1 4f1+
                                   1 4f3+    1 4f1+    1 4f3+    1 4f1+    1 4f3+    1 4f1+    1 4f3+    1 4f1+    1 4f3+    1 4f1+
                                   1 4f3+    1 4f1+    1 4f3+    1 4f1+    1 4f3+    1 4f1+    1 4f3+    1 4f1+    1 4f3+    1 4f1+
                                   1 4f3+    1 6h1+    1 6h3+    1 6h5+    1 6h1+    1 6h3+    1 6h5+    1 6h1+    1 6h3+    1 6h5+


   1.2  2.00000    -2.396895     0.000000 -0.000000  0.000000 -0.000000  0.000000 -0.000000  0.000001 -0.000003  0.000012 -0.000036
                                 0.000106 -0.000295  0.000816 -0.002480  0.009154 -0.075889  0.184433 -0.350767  0.619552 -0.609311
                                -0.066664  0.762157 -0.015374  0.434642 -0.035290  0.031182  0.000349  0.035437 -0.001032  0.000471
                                -0.000108  0.000000  0.000000  0.000000  0.000000  0.000000  0.000000  0.000000  0.000000  0.000000
                                 0.000000  0.000000  0.000000  0.000000  0.000000  0.000000  0.000000  0.000000  0.000000  0.000000
                                 0.000000  0.000000  0.000000  0.000000  0.000000  0.000000  0.000000  0.000000  0.000000  0.000000
                                 0.000000  0.000000  0.000000  0.000000  0.000000  0.000000  0.000000  0.000000  0.000000  0.000000

   2.2  2.00000    -0.817144     0.000000  0.000000  0.000000  0.000000  0.000000  0.000000  0.000000  0.000000  0.000000  0.000000
                                 0.000000  0.000000  0.000000  0.000000  0.000000  0.000000  0.000000  0.000000  0.000000  0.000000
                                 0.000000  0.000000  0.000000  0.000000  0.000000  0.000000  0.000000  0.000000  0.000000  0.000000
                                 0.000000  0.000000  0.000013  0.000000 -0.000089  0.000000  0.000432  0.000000 -0.002098  0.000000
                                 0.021674  0.000000 -0.034514  0.000000  0.121322  0.000000  0.196448  0.000000  0.335215  0.000000
                                 0.414763  0.000000  0.245306  0.000000  0.068777  0.000000 -0.019459  0.000000  0.009288  0.000000
                                -0.002925  0.000000  0.000000  0.000000  0.000000  0.000000  0.000000  0.000000  0.000000  0.000000

   3.2  2.00000    -0.817144     0.000000  0.000000  0.000000  0.000000  0.000000  0.000000  0.000000  0.000000  0.000000  0.000000
                                 0.000000  0.000000  0.000000  0.000000  0.000000  0.000000  0.000000  0.000000  0.000000  0.000000
                                 0.000000  0.000000  0.000000  0.000000  0.000000  0.000000  0.000000  0.000000  0.000000  0.000000
                                 0.000000  0.000013  0.000000 -0.000089  0.000000  0.000432  0.000000 -0.002098  0.000000  0.021674
                                 0.000000 -0.034514  0.000000  0.121322  0.000000  0.196448  0.000000  0.335215  0.000000  0.414763
                                 0.000000  0.245306  0.000000  0.068777  0.000000 -0.019459  0.000000  0.009288  0.000000 -0.002925
                                 0.000000  0.000000  0.000000  0.000000  0.000000  0.000000  0.000000  0.000000  0.000000  0.000000

                                   1 2py     1 2py     1 2py     1 2py     1 2py     1 2py     1 2py     1 2py     1 2py     1 2py
                                   1 2py     1 2py     1 2py     1 2py     1 2py     1 2py     1 2py     1 2py     1 2py     1 2py
                                   1 2py     1 2py     1 2py     1 2py     1 2py     1 2py     1 2py     1 2py     1 2py     1 2py
                                   1 2py     1 4f1-    1 4f3-    1 4f1-    1 4f3-    1 4f1-    1 4f3-    1 4f1-    1 4f3-    1 4f1-
                                   1 4f3-    1 4f1-    1 4f3-    1 4f1-    1 4f3-    1 4f1-    1 4f3-    1 4f1-    1 4f3-    1 4f1-
                                   1 4f3-    1 4f1-    1 4f3-    1 4f1-    1 4f3-    1 4f1-    1 4f3-    1 4f1-    1 4f3-    1 4f1-
                                   1 4f3-    1 6h1-    1 6h3-    1 6h5-    1 6h1-    1 6h3-    1 6h5-    1 6h1-    1 6h3-    1 6h5-


   1.3  2.00000    -2.396895     0.000000 -0.000000  0.000000 -0.000000  0.000000 -0.000000  0.000001 -0.000003  0.000012 -0.000036
                                 0.000106 -0.000295  0.000816 -0.002480  0.009154 -0.075889  0.184433 -0.350767  0.619552 -0.609311
                                -0.066664  0.762157 -0.015374  0.434642 -0.035290  0.031182  0.000349  0.035437 -0.001032  0.000471
                                -0.000108  0.000000  0.000000  0.000000  0.000000  0.000000  0.000000  0.000000  0.000000  0.000000
                                 0.000000  0.000000  0.000000  0.000000  0.000000  0.000000  0.000000  0.000000  0.000000  0.000000
                                 0.000000  0.000000  0.000000  0.000000  0.000000  0.000000  0.000000  0.000000  0.000000  0.000000
                                 0.000000  0.000000  0.000000  0.000000  0.000000  0.000000  0.000000  0.000000  0.000000  0.000000

   2.3  2.00000    -0.817144     0.000000  0.000000  0.000000  0.000000  0.000000  0.000000  0.000000  0.000000  0.000000  0.000000
                                 0.000000  0.000000  0.000000  0.000000  0.000000  0.000000  0.000000  0.000000  0.000000  0.000000
                                 0.000000  0.000000  0.000000  0.000000  0.000000  0.000000  0.000000  0.000000  0.000000  0.000000
                                 0.000000  0.000013  0.000000 -0.000089  0.000000  0.000432  0.000000 -0.002098  0.000000  0.021674
                                 0.000000 -0.034514  0.000000  0.121322  0.000000  0.196448  0.000000  0.335215  0.000000  0.414763
                                 0.000000  0.245306  0.000000  0.068777  0.000000 -0.019459  0.000000  0.009288  0.000000 -0.002925
                                 0.000000  0.000000  0.000000  0.000000  0.000000  0.000000  0.000000  0.000000  0.000000  0.000000

   3.3  2.00000    -0.817144     0.000000  0.000000  0.000000  0.000000  0.000000  0.000000  0.000000  0.000000  0.000000  0.000000
                                 0.000000  0.000000  0.000000  0.000000  0.000000  0.000000  0.000000  0.000000  0.000000  0.000000
                                 0.000000  0.000000  0.000000  0.000000  0.000000  0.000000  0.000000  0.000000  0.000000  0.000000
                                 0.000000  0.000000  0.000013  0.000000 -0.000089  0.000000  0.000432  0.000000 -0.002098  0.000000
                                 0.021674  0.000000 -0.034514  0.000000  0.121322  0.000000  0.196448  0.000000  0.335215  0.000000
                                 0.414763  0.000000  0.245306  0.000000  0.068777  0.000000 -0.019459  0.000000  0.009288  0.000000
                                -0.002925  0.000000  0.000000  0.000000  0.000000  0.000000  0.000000  0.000000  0.000000  0.000000

                                   1 2pz     1 2pz     1 2pz     1 2pz     1 2pz     1 2pz     1 2pz     1 2pz     1 2pz     1 2pz
                                   1 2pz     1 2pz     1 2pz     1 2pz     1 2pz     1 2pz     1 2pz     1 2pz     1 2pz     1 2pz
                                   1 2pz     1 2pz     1 2pz     1 2pz     1 2pz     1 2pz     1 2pz     1 2pz     1 2pz     1 2pz
                                   1 2pz     1 4f0     1 4f2+    1 4f0     1 4f2+    1 4f0     1 4f2+    1 4f0     1 4f2+    1 4f0
                                   1 4f2+    1 4f0     1 4f2+    1 4f0     1 4f2+    1 4f0     1 4f2+    1 4f0     1 4f2+    1 4f0
                                   1 4f2+    1 4f0     1 4f2+    1 4f0     1 4f2+    1 4f0     1 4f2+    1 4f0     1 4f2+    1 4f0
                                   1 4f2+    1 6h2+    1 6h4+    1 6h0     1 6h2+    1 6h4+    1 6h0     1 6h2+    1 6h4+    1 6h0


   1.5  2.00000    -2.396895     0.000000 -0.000000  0.000000 -0.000000  0.000000 -0.000000  0.000001 -0.000003  0.000012 -0.000036
                                 0.000106 -0.000295  0.000816 -0.002480  0.009154 -0.075889  0.184433 -0.350767  0.619552 -0.609311
                                -0.066664  0.762157 -0.015374  0.434642 -0.035290  0.031182  0.000349  0.035437 -0.001032  0.000471
                                -0.000108  0.000000  0.000000  0.000000  0.000000  0.000000  0.000000  0.000000  0.000000  0.000000
                                 0.000000  0.000000  0.000000  0.000000  0.000000  0.000000  0.000000  0.000000  0.000000  0.000000
                                 0.000000  0.000000  0.000000  0.000000  0.000000  0.000000  0.000000  0.000000  0.000000  0.000000
                                 0.000000  0.000000  0.000000  0.000000  0.000000  0.000000  0.000000  0.000000  0.000000  0.000000

   2.5  2.00000    -0.817144     0.000000  0.000000  0.000000  0.000000  0.000000  0.000000  0.000000  0.000000  0.000000  0.000000
                                 0.000000  0.000000  0.000000  0.000000  0.000000  0.000000  0.000000  0.000000  0.000000  0.000000
                                 0.000000  0.000000  0.000000  0.000000  0.000000  0.000000  0.000000  0.000000  0.000000  0.000000
                                 0.000000  0.000000  0.000013  0.000000 -0.000089  0.000000  0.000432  0.000000 -0.002098  0.000000
                                 0.021674  0.000000 -0.034514  0.000000  0.121322  0.000000  0.196448  0.000000  0.335215  0.000000
                                 0.414763  0.000000  0.245306  0.000000  0.068777  0.000000 -0.019459  0.000000  0.009288  0.000000
                                -0.002925  0.000000  0.000000  0.000000  0.000000  0.000000  0.000000  0.000000  0.000000  0.000000

   3.5  2.00000    -0.817144     0.000000 -0.000000  0.000000 -0.000000  0.000000 -0.000000  0.000000 -0.000000  0.000000 -0.000000
                                 0.000000 -0.000000  0.000000 -0.000000  0.000000 -0.000000  0.000000 -0.000000  0.000000 -0.000000
                                -0.000000  0.000000 -0.000000  0.000000 -0.000000  0.000000  0.000000  0.000000 -0.000000  0.000000
                                -0.000000  0.000013  0.000000 -0.000089  0.000000  0.000432  0.000000 -0.002098  0.000000  0.021674
                                 0.000000 -0.034514  0.000000  0.121322  0.000000  0.196448  0.000000  0.335215  0.000000  0.414763
                                 0.000000  0.245306  0.000000  0.068777  0.000000 -0.019459  0.000000  0.009288  0.000000 -0.002925
                                 0.000000  0.000000  0.000000  0.000000  0.000000  0.000000  0.000000  0.000000  0.000000  0.000000

                                   1 4f2-    1 4f2-    1 4f2-    1 4f2-    1 4f2-    1 4f2-    1 4f2-    1 4f2-    1 4f2-    1 4f2-
                                   1 4f2-    1 4f2-    1 4f2-    1 4f2-    1 4f2-    1 6h4-    1 6h2-    1 6h4-    1 6h2-    1 6h4-
                                   1 6h2-

   1.8  2.00000    -0.817144     0.000013 -0.000089  0.000432 -0.002098  0.021674 -0.034514  0.121322  0.196448  0.335215  0.414763
                                 0.245306  0.068777 -0.019459  0.009288 -0.002925  0.000000  0.000000  0.000000  0.000000  0.000000
                                 0.000000

 Total charge:   2.000000000000


 EXTRA SYMMETRY OF MOS IN SYMMETRY 1:   1 1 2 3 1 2 3 1 3 2   1 3 2 1 3 2 5 6 4 1   3 2 1 5 4 6 2 3 1 2   3 4 5 6 1 5 6 4 3 2
                                        1 6 5 4 1 2 3 6 5 4   1 2 3 3 2 1 6 5 4 2   3 1 2 3 1 1 2 3 1 2   3 1 1 3 2 1 2 3 1 1
                                        2 3 1 3 2 1 1 3 2 1   1 3 2 1 1 1 1 1 1 1   1 1 1
 EXTRA SYMMETRY OF MOS IN SYMMETRY 2:   1 3 2 1 1 3 2 1 2 3   1 1 2 3 1 3 2 1 3 2   1 6 5 4 3 2 1 5 4 6   1 2 3 1 5 6 4 3 2 1
                                        3 2 1 1 3 2 1 2 3 1   1 2 3 1 2 3 1 1 2 3   1 1 1 1 1 1 1 1 1 1
 EXTRA SYMMETRY OF MOS IN SYMMETRY 3:   1 2 3 1 1 2 3 1 2 3   1 1 3 2 1 2 3 1 3 2   1 6 5 4 3 2 1 6 4 5   1 2 3 1 6 4 5 3 2 1
                                        3 2 1 1 3 2 1 3 2 1   1 3 2 1 3 2 1 1 3 2   1 1 1 1 1 1 1 1 1 1
 EXTRA SYMMETRY OF MOS IN SYMMETRY 4:   1 1 1 1 1 3 2 1 3 2   1 1 3 2 3 2 1 3 2 1   3 2 1 1 2 3 1 1 1 1   1 1 1 1 1 1
 EXTRA SYMMETRY OF MOS IN SYMMETRY 5:   1 3 2 1 1 3 2 1 2 3   1 1 2 3 1 2 3 1 3 2   1 6 4 5 3 2 1 6 4 5   1 3 2 1 6 5 4 2 3 1
                                        2 3 1 1 2 3 1 2 3 1   1 2 3 1 2 3 1 1 2 3   1 1 1 1 1 1 1 1 1 1
 EXTRA SYMMETRY OF MOS IN SYMMETRY 6:   1 1 1 1 1 2 3 1 2 3   1 1 2 3 2 3 1 2 3 1   2 3 1 1 2 3 1 1 1 1   1 1 1 1 1 1
 EXTRA SYMMETRY OF MOS IN SYMMETRY 7:   1 1 1 1 1 3 2 1 2 3   1 1 2 3 2 3 1 2 3 1   2 3 1 1 2 3 1 1 1 1   1 1 1 1 1 1
 EXTRA SYMMETRY OF MOS IN SYMMETRY 8:   1 1 1 1 1 1 2 3 1 3   2 1 3 2 1 1 1 1 1 1   1

 Natural orbital dump at molpro section  5202.2    (Orbital set 2)


 CI vector
 =========

 a             1.0000000

 TOTAL ENERGIES                      -180.73415356



 **********************************************************************************************************************************
 DATASETS  * FILE   NREC   LENGTH (MB)   RECORD NAMES
              1      20       45.57       500      610      700      900      950      970     1000      129      960     1100
                                          VAR    BASINP    GEOM    SYMINP    ZMAT    AOBASIS   BASIS     P2S    ABASIS      S
                                         1400     1410     1420     1200     1210     1080     1600     1650     1700     1380
                                           T        V       ECP      H0       H01     AOSYM     SMH    MOLCAS    OPER     JKOP

              2       6        9.83       200      700     1000      520     4202     5202
                                        OPTIONS   GEOM     BASIS   MCVARS     RHF     MCSCF

 PROGRAMS   *        TOTAL     MULTI       POP       RHF       INT
 CPU TIMES  *       166.36      2.60      0.01      3.26    160.06
 REAL TIME  *       178.72 SEC
 DISK USED  *         8.15 GB
 SF USED    *        98.91 MB
 GA USED    *         0.00 MB       (max)       0.00 MB       (current)
 **********************************************************************************************************************************
   -->
   <time start="18:12:33" end="18:12:36" cpu="2.62" system="0.28" real="2.99"/>
   <storage units="megabyte" memory="8001.84" sf="98.91" df="352.05" eaf="7794.41" ga="0.0"/>
  </jobstep><!--
  --><jobstep command="RHF-SCF" commandset="SCFPRO">
   <!--


 PROGRAM * RHF-SCF (OPEN SHELL)       Authors: W. Meyer, H.-J. Werner


 NUMBER OF ELECTRONS:      12+   11-    SPACE SYMMETRY=1    SPIN SYMMETRY: Doublet
 CONVERGENCE THRESHOLDS:    1.00E-05 (Density)    1.00E-07 (Energy)
 MAX. NUMBER OF ITERATIONS:        0
 INTERPOLATION TYPE:            DIIS
 INTERPOLATION STEPS:              2 (START)      1 (STEP)
 LEVEL SHIFTS:                 -0.60 (CLOSED) -0.30 (OPEN)

 Number of closed-shell orbitals:   11 (   1   3   3   0   3   0   0   1 )
 Number of open-shell orbitals:      1 (   1   0   0   0   0   0   0   0 )


 Molecular orbitals read from record     5202.2  Type=MCSCF/NATURAL (state 1.1)

 Molecular orbital dump at record        2116.2

 ITERATION    DDIFF          GRAD             ENERGY        2-EL.EN.            DIPOLE MOMENTS         DIIS   ORB.
    1      0.000D+00      0.000D+00      -180.73415356    294.844356    0.00000    0.00000    0.00000    0    start

 Final alpha occupancy:   2   3   3   0   3   0   0   1
 Final beta  occupancy:   1   3   3   0   3   0   0   1

 !RHF STATE 1.1 Energy               -180.734153557875
   --><property name="Energy" method="RHF" principal="true" stateSymmetry="1" stateNumber="1"
     value="-180.734153557875"/><!--
 Nuclear energy                         0.00000000
 One-electron energy                 -328.15633162
 Two-electron energy                  147.42217806
 Virial quotient                       -1.82058988
 !RHF STATE 1.1 Dipole moment           0.00000000     0.00000000     0.00000000
 Dipole moment /Debye                   0.00000000     0.00000000     0.00000000
   --><property name="Dipole moment" method="RHF" principal="true" stateSymmetry="1"
     stateNumber="1" value="0.0 0.0 0.0"/><!--

 Orbital energies:

         1.1          2.1          3.1          4.1
     -3.383599    -0.586824    -0.844643    -0.844643

         1.2          2.2          3.2          4.2          5.2
     -2.396895    -0.817144    -0.817144    -0.346214    -0.161787

         1.3          2.3          3.3          4.3          5.3
     -2.396895    -0.817144    -0.817144    -0.346214    -0.161787

         1.4          2.4
     -0.844643    -0.193809

         1.5          2.5          3.5          4.5          5.5
     -2.396895    -0.817144    -0.817144    -0.346214    -0.161787

         1.6          2.6
     -0.844643    -0.193809

         1.7          2.7
     -0.844643    -0.193809

         1.8          2.8          3.8
     -0.817144    -0.125194    -0.069523

 HOMO      2.1    -0.586824 =     -15.9683eV
 LUMO      3.1    -0.844643 =     -22.9839eV
 LUMO-HOMO        -0.257819 =      -7.0156eV


 **********************************************************************************************************************************
 DATASETS  * FILE   NREC   LENGTH (MB)   RECORD NAMES
              1      20       45.57       500      610      700      900      950      970     1000      129      960     1100
                                          VAR    BASINP    GEOM    SYMINP    ZMAT    AOBASIS   BASIS     P2S    ABASIS      S
                                         1400     1410     1420     1200     1210     1080     1600     1650     1700     1380
                                           T        V       ECP      H0       H01     AOSYM     SMH    MOLCAS    OPER     JKOP

              2       7       13.30       200      700     1000      520     4202     5202     2116
                                        OPTIONS   GEOM     BASIS   MCVARS     RHF     MCSCF     RHF

 PROGRAMS   *        TOTAL       RHF     MULTI       POP       RHF       INT
 CPU TIMES  *       166.58      0.22      2.60      0.01      3.26    160.06
 REAL TIME  *       178.98 SEC
 DISK USED  *         8.15 GB
 SF USED    *        98.91 MB
 GA USED    *         0.00 MB       (max)       0.00 MB       (current)
 **********************************************************************************************************************************
   -->
   <time start="18:12:36" end="18:12:36" cpu="0.22" system="0.03" real="0.26"/>
   <storage units="megabyte" memory="8001.84" sf="98.91" df="352.05" eaf="7794.41" ga="0.0"/>
  </jobstep><!--
 SETTING SCF(7)         =      -180.73415356  AU
 SETTING _CC_NORM_MAX   =         2.00000000
  --><jobstep command="RCCSD(T)" commandset="CCSD">
   <!--


 PROGRAM * CCSD (Restricted open-shell coupled cluster)     Authors: C. Hampel, H.-J. Werner, 1991, M. Deegan, P.J. Knowles, 1992


 Convergence thresholds:  THRVAR = 1.00D-08  THRDEN = 1.00D-06

 CCSD(T)     terms to be evaluated (factor= 1.000)


 Number of closed-shell orbitals:  11 (   1   3   3   0   3   0   0   1 )
 Number of active  orbitals:        1 (   1   0   0   0   0   0   0   0 )
 Number of external orbitals:     430 ( 101  67  67  36  67  36  36  20 )

 Memory could be reduced to 205.12 Mwords without degradation in triples

 Number of N-1 electron functions:              23
 Number of N-2 electron functions:             253
 Number of singly external CSFs:              1552
 Number of doubly external CSFs:           4526440
 Total number of CSFs:                     4527992

 Molecular orbitals read from record     2116.2  Type=RHF/CANONICAL (state 1.1)

 Integral transformation finished. Total CPU:   6.71 sec, npass=  1  Memory used:  38.84 MW

 Starting RMP2 calculation

 Wavefunction is spin-projected

 ITER.      SQ.NORM     CORR.ENERGY   TOTAL ENERGY   ENERGY CHANGE        DEN1      VAR(S)    VAR(P)  DIIS     TIME
   1     12.63256741    -4.84138765  -185.57554121    -4.84138765    -1.40164327  0.41D-05  0.30D+01  0  0     8.16
   2     29.29489745    -6.24303092  -186.97718448    -1.40164327    -1.69468426  0.32D-06  0.38D+01  0  0     8.55

 UNREASONABLE NORM: 29.294897 CALCULATION WILL BE STOPPED

 The threshold can be changed using option CC_NORM_MAX (see manual). The current value is CC_NORM_MAX=2.00

 Norm of t1 vector:      0.01007632      S-energy:    -0.00019124      T1 diagnostic:  0.00001317
 Norm of t2 vector:      5.31928528      P-energy:    -6.24283967
                                         Alpha-Beta:  -3.93586414
                                         Alpha-Alpha: -1.18858125
                                         Beta-Beta:   -1.11839428

 Spin contamination <S**2-Sz**2-Sz>     0.00000000


 RESULTS
 =======

  Reference energy                   -180.734153557875
   --><property name="energy" method="Reference" stateSymmetry="1" stateNumber="1"
     value="-180.734153557875"/><!--
  RCCSD singles energy                 -0.000191244182
   --><property name="energy" method="RCCSD singles" stateSymmetry="1" stateNumber="1"
     value="-0.191244182028427E-03"/><!--
  RCCSD pair energy                    -6.242839674402
   --><property name="energy" method="RCCSD pair" stateSymmetry="1" stateNumber="1"
     value="-6.24283967440222"/><!--
  RCCSD correlation energy             -6.243030918584
   --><property name="energy" method="RCCSD correlation" stateSymmetry="1" stateNumber="1"
     value="-6.24303091858425"/><!--

 !RHF-RCCSD energy                   -186.977184476460
   --><property name="energy" method="RHF-RCCSD" principal="true" stateSymmetry="1"
     stateNumber="1" value="-186.97718447646"/><!--

 Program statistics:

 Available memory in ccsd:               999998628
 Min. memory needed in ccsd:              12612314
 Max. memory used in ccsd:                18234623
 Max. memory used in cckext:                     0 ( 0 integral passes)
 Max. memory used in cckint:              38841744 ( 1 integral passes)


 ? Error
 ? No convergence. This error exit can be avoided using the NOCHECK option
 ? The problem occurs in ccsd
   --><error type="Error" location="ccsd"
     message="No convergence. This error exit can be avoided using the NOCHECK option"/><!--
  --></jobstep><!--
  -->
  <input>
  <!--
 --></job><!--
--></molpro>
