<?xml version="1.0"?>
<molpro xmlns="http://www.molpro.net/schema/molpro-output"
  xmlns:xsd="http://www.w3.org/1999/XMLSchema"
  xmlns:cml="http://www.xml-cml.org/schema"
  xmlns:stm="http://www.xml-cml.org/schema"
  xmlns:xhtml="http://www.w3.org/1999/xhtml">
 <!--

 Nodes     nprocs
 nid01831    11
 Number of processes for MPI-2 version of Molpro:   nprocs(total)=   12   nprocs(compute)=   11   nprocs(helper)=    1

 Using customized tuning parameters: mindgm=7; mindgv=16; mindgc=1; mindgr=1; noblas=0; minvec=7
 default implementation of scratch files=sf

 --><job>
  <!--

 Variables initialized (889), CPU time= 0.02 sec
 Commands  initialized (702), CPU time= 0.01 sec, 572 directives.
 Default parameters read. Elapsed time= 0.15 sec

 Checking input...
 Passed
1


                                         ***  PROGRAM SYSTEM MOLPRO  ***
                                       Copyright, TTI GmbH Stuttgart, 2015
                                    Version 2015.1 linked Dec 29 2018 15:55:43


 **********************************************************************************************************************************
 LABEL *   Calculation for Lu atom, singlet and triplet
  64 bit mpp version                                                                     DATE: 17-Apr-23          TIME: 12:15:32
 **********************************************************************************************************************************

 SHA1:             19cd028119e0e09f93f0674bd8af7968d9b3eff6
 **********************************************************************************************************************************
  -->
  <!--

 THRESHOLDS:

 ZERO    =  1.00D-12  ONEINT  =  1.00D-12  TWOINT  =  1.00D-15  PREFAC  =  1.00D-14  LOCALI  =  1.00D-09  EORDER  =  1.00D-04
 ENERGY  =  0.00D+00  ETEST   =  0.00D+00  EDENS   =  0.00D+00  THRDEDEF=  1.00D-06  GRADIENT=  1.00D-02  STEP    =  1.00D-03
 ORBITAL =  1.00D-05  CIVEC   =  1.00D-05  COEFF   =  1.00D-04  PRINTCI =  5.00D-02  PUNCHCI =  9.90D+01  OPTGRAD =  3.00D-04
 OPTENERG=  1.00D-06  OPTSTEP =  3.00D-04  THRGRAD =  1.00D-10  COMPRESS=  1.00D-11  VARMIN  =  1.00D-07  VARMAX  =  1.00D-03
 THRDOUB =  0.00D+00  THRDIV  =  1.00D-05  THRRED  =  1.00D-07  THRPSP  =  1.00D+00  THRDC   =  1.00D-10  THRCS   =  1.00D-10
 THRNRM  =  1.00D-08  THREQ   =  0.00D+00  THRDE   =  1.00D+00  THRREF  =  1.00D-05  SPARFAC =  1.00D+00  THRDLP  =  1.00D-07
 THRDIA  =  1.00D-10  THRDLS  =  1.00D-07  THRGPS  =  0.00D+00  THRKEX  =  0.00D+00  THRDIS  =  2.00D-01  THRVAR  =  1.00D-10
 THRLOC  =  1.00D-06  THRGAP  =  1.00D-06  THRLOCT = -1.00D+00  THRGAPT = -1.00D+00  THRORB  =  1.00D-06  THRMLTP =  0.00D+00
 THRCPQCI=  1.00D-10  KEXTA   =  0.00D+00  THRCOARS=  0.00D+00  SYMTOL  =  1.00D-06  GRADTOL =  1.00D-06  THROVL  =  1.00D-08
 THRORTH =  1.00D-08  GRID    =  1.00D-06  GRIDMAX =  1.00D-03  DTMAX   =  0.00D+00  THROCCDE=  1.00D-01  THROCCDE=  1.00D-01



 THRESHOLDS:

 ZERO    =  1.00D-12  ONEINT  =  1.00D-15  TWOINT  =  1.00D-15  PREFAC  =  1.00D-14  LOCALI  =  1.00D-09  EORDER  =  1.00D-04
 ENERGY  =  0.00D+00  ETEST   =  0.00D+00  EDENS   =  0.00D+00  THRDEDEF=  1.00D-06  GRADIENT=  1.00D-02  STEP    =  1.00D-03
 ORBITAL =  1.00D-05  CIVEC   =  1.00D-05  COEFF   =  1.00D-04  PRINTCI =  5.00D-02  PUNCHCI =  9.90D+01  OPTGRAD =  3.00D-04
 OPTENERG=  1.00D-06  OPTSTEP =  3.00D-04  THRGRAD =  1.00D-10  COMPRESS=  1.00D-11  VARMIN  =  1.00D-07  VARMAX  =  1.00D-03
 THRDOUB =  0.00D+00  THRDIV  =  1.00D-05  THRRED  =  1.00D-07  THRPSP  =  1.00D+00  THRDC   =  1.00D-10  THRCS   =  1.00D-10
 THRNRM  =  1.00D-08  THREQ   =  0.00D+00  THRDE   =  1.00D+00  THRREF  =  1.00D-05  SPARFAC =  1.00D+00  THRDLP  =  1.00D-07
 THRDIA  =  1.00D-10  THRDLS  =  1.00D-07  THRGPS  =  0.00D+00  THRKEX  =  0.00D+00  THRDIS  =  2.00D-01  THRVAR  =  1.00D-10
 THRLOC  =  1.00D-06  THRGAP  =  1.00D-06  THRLOCT = -1.00D+00  THRGAPT = -1.00D+00  THRORB  =  1.00D-06  THRMLTP =  0.00D+00
 THRCPQCI=  1.00D-10  KEXTA   =  0.00D+00  THRCOARS=  0.00D+00  SYMTOL  =  1.00D-06  GRADTOL =  1.00D-06  THROVL  =  1.00D-08
 THRORTH =  1.00D-08  GRID    =  1.00D-06  GRIDMAX =  1.00D-03  DTMAX   =  0.00D+00  THROCCDE=  1.00D-01  THROCCDE=  1.00D-01



Geometry recognized as XYZ


 Variable memory set to 1000000000 words,  buffer space   230000 words

 SETTING BASIS          =    USERDEF

 DO I                   =         1.00000000

 Running procedure=ID1S2
  --><jobstep command="RHF-SCF" commandset="SCFPRO">
   <!--


 Recomputing integrals since basis changed


 Using spherical harmonics



 PROGRAM * SEWARD (Integral evaluation for generally contracted gaussian basis sets)     Author: Roland Lindh, 1990

 Geometry written to block  1 of record 700

 Orientation using atomic masses
 Molecule type: Atom
 Symmetry elements: X,Y,Z
 Rotational constants:       0.0000000      0.0000000      0.0000000 GHz  (calculated with average atomic masses)

 Point group  D2h


   --><cml:molecule>
    <cml:symmetry pointGroup="D2h"/>
    <cml:atomArray>
     <cml:atom id="a1" elementType="Lu" x3="0.0" y3="0.0" z3="0.0"/>
    </cml:atomArray>
    <cml:bondArray>
    </cml:bondArray>
   </cml:molecule><!--

 ATOMIC COORDINATES

 NR  ATOM    CHARGE       X              Y              Z

   1  LU     25.00    0.000000000    0.000000000    0.000000000

 NUCLEAR CHARGE:                   25
 NUMBER OF PRIMITIVE AOS:         503
 NUMBER OF SYMMETRY AOS:          380
 NUMBER OF CONTRACTIONS:          380   (  85Ag  +  62B3u +  62B2u +  30B1g +  62B1u +  30B2g +  30B3g +  19Au  )
 NUMBER OF CORE ORBITALS:           0   (   0Ag  +   0B3u +   0B2u +   0B1g +   0B1u +   0B2g +   0B3g +   0Au  )
 NUMBER OF VALENCE ORBITALS:       17   (   4Ag  +   3B3u +   3B2u +   1B1g +   3B1u +   1B2g +   1B3g +   1Au  )


 NUCLEAR REPULSION ENERGY    0.00000000

 EXTRA SYMMETRY OF AOS IN SYMMETRY 1:   1 1 1 1 1 1 1 1 1 1   1 1 1 1 1 1 1 1 1 1   1 1 1 1 1 1 1 1 1 1   1 2 3 2 3 2 3 2 3 2
                                        3 2 3 2 3 2 3 2 3 2   3 2 3 2 3 2 3 2 3 2   3 2 3 2 3 2 3 4 5 6   4 5 6 4 5 6 4 5 6 4
                                        5 6 4 5 6
 EXTRA SYMMETRY OF AOS IN SYMMETRY 2:   1 1 1 1 1 1 1 1 1 1   1 1 1 1 1 1 1 1 1 1   1 1 1 1 1 1 1 2 3 2   3 2 3 2 3 2 3 2 3 2
                                        3 2 3 2 3 2 3 2 3 2   3 2 3 4 5 6 4 5 6 4   5 6
 EXTRA SYMMETRY OF AOS IN SYMMETRY 3:   1 1 1 1 1 1 1 1 1 1   1 1 1 1 1 1 1 1 1 1   1 1 1 1 1 1 1 2 3 2   3 2 3 2 3 2 3 2 3 2
                                        3 2 3 2 3 2 3 2 3 2   3 2 3 4 5 6 4 5 6 4   5 6
 EXTRA SYMMETRY OF AOS IN SYMMETRY 4:   1 1 1 1 1 1 1 1 1 1   1 1 1 1 1 1 1 1 2 3   2 3 2 3 2 3 2 3 2 3
 EXTRA SYMMETRY OF AOS IN SYMMETRY 5:   1 1 1 1 1 1 1 1 1 1   1 1 1 1 1 1 1 1 1 1   1 1 1 1 1 1 1 2 3 2   3 2 3 2 3 2 3 2 3 2
                                        3 2 3 2 3 2 3 2 3 2   3 2 3 4 5 6 4 5 6 4   5 6
 EXTRA SYMMETRY OF AOS IN SYMMETRY 6:   1 1 1 1 1 1 1 1 1 1   1 1 1 1 1 1 1 1 2 3   2 3 2 3 2 3 2 3 2 3
 EXTRA SYMMETRY OF AOS IN SYMMETRY 7:   1 1 1 1 1 1 1 1 1 1   1 1 1 1 1 1 1 1 2 3   2 3 2 3 2 3 2 3 2 3
 EXTRA SYMMETRY OF AOS IN SYMMETRY 8:   1 1 1 1 1 1 1 1 1 1   1 1 1 2 3 2 3 2 3

 Eigenvalues of metric

         1 0.433E-04 0.526E-04 0.113E-03 0.205E-03 0.387E-03 0.579E-03 0.702E-03 0.702E-03
         2 0.122E-04 0.207E-04 0.110E-03 0.494E-03 0.158E-02 0.385E-02 0.728E-02 0.144E-01
         3 0.122E-04 0.207E-04 0.110E-03 0.494E-03 0.158E-02 0.385E-02 0.728E-02 0.144E-01
         4 0.702E-03 0.220E-02 0.838E-02 0.215E-01 0.345E-01 0.566E-01 0.104E+00 0.174E+00
         5 0.122E-04 0.207E-04 0.110E-03 0.494E-03 0.158E-02 0.385E-02 0.728E-02 0.144E-01
         6 0.702E-03 0.220E-02 0.838E-02 0.215E-01 0.345E-01 0.566E-01 0.104E+00 0.174E+00
         7 0.702E-03 0.220E-02 0.838E-02 0.215E-01 0.345E-01 0.566E-01 0.104E+00 0.174E+00
         8 0.144E-01 0.330E-01 0.524E-01 0.114E+00 0.217E+00 0.268E+00 0.268E+00 0.366E+00


 Contracted 2-electron integrals neglected if value below      1.0D-15
 AO integral compression algorithm  1   Integral accuracy      1.0D-15

     1958.740 MB (compressed) written to integral file ( 43.0%)

     Node minimum: 84.673 MB, node maximum: 234.095 MB


 NUMBER OF SORTED TWO-ELECTRON INTEGRALS:   30459995.     BUFFER LENGTH:  32768
 NUMBER OF SEGMENTS:   1  SEGMENT LENGTH:   30459995      RECORD LENGTH: 524288

 Memory used in sort:      31.02 MW

 SORT1 READ   202759114. AND WROTE     6114850. INTEGRALS IN     18 RECORDS. CPU TIME:     5.03 SEC, REAL TIME:     5.90 SEC
 SORT2 READ    67559856. AND WROTE   335703620. INTEGRALS IN   6853 RECORDS. CPU TIME:     0.65 SEC, REAL TIME:     0.86 SEC

 Node minimum:    30394465.  Node maximum:    30635607. integrals

 OPERATOR DM      FOR CENTER  0  COORDINATES:    0.000000    0.000000    0.000000


 **********************************************************************************************************************************
 DATASETS  * FILE   NREC   LENGTH (MB)   RECORD NAMES
              1      19       20.90       500      610      700      900      950      970     1000      129      960     1100
                                          VAR    BASINP    GEOM    SYMINP    ZMAT    AOBASIS   BASIS     P2S    ABASIS      S
                                         1400     1410     1420     1200     1210     1080     1600     1650     1700
                                           T        V       ECP      H0       H01     AOSYM     SMH    MOLCAS    OPER

 PROGRAMS   *        TOTAL       INT
 CPU TIMES  *        58.02     56.79
 REAL TIME  *        61.62 SEC
 DISK USED  *         2.77 GB
 GA USED    *         0.00 MB       (max)       0.00 MB       (current)
 **********************************************************************************************************************************


 PROGRAM * RHF-SCF (OPEN SHELL)       Authors: W. Meyer, H.-J. Werner


 NUMBER OF ELECTRONS:      13+   12-    SPACE SYMMETRY=1    SPIN SYMMETRY: Doublet
 CONVERGENCE THRESHOLDS:    1.00E-05 (Density)    1.00E-07 (Energy)
 MAX. NUMBER OF ITERATIONS:      150
 INTERPOLATION TYPE:            DIIS
 INTERPOLATION STEPS:              2 (START)      1 (STEP)
 LEVEL SHIFTS:                 -0.60 (CLOSED) -0.30 (OPEN)

 Number of closed-shell orbitals:   12 (   2   3   3   0   3   0   0   1 )
 Number of open-shell orbitals:      1 (   1   0   0   0   0   0   0   0 )



 Extra symmetries of mos in symmetry 1:   1   1   3   2
 Extra symmetries of mos in symmetry 2:   1   3   2
 Extra symmetries of mos in symmetry 3:   1   3   2
 Extra symmetries of mos in symmetry 5:   1   3   2
 Guess basis ATOMIC-GUESS,LU=ECP46_GUESS not found. No density guess!


 Molecular orbital dump at record        4202.2

 ITERATION    DDIFF          GRAD             ENERGY        2-EL.EN.            DIPOLE MOMENTS         DIIS   ORB.
    1      0.000D+00      0.000D+00      -419.48355510     79.965478    0.00000    0.00000    0.00000    0    start
    2      0.000D+00      0.725D-01      -421.14538033     73.764674    0.00000    0.00000    0.00000    0    diag,B
    3      0.691D+00      0.739D-02      -421.17071224     73.186600    0.00000    0.00000    0.00000    1    diag,B
    4      0.800D-01      0.158D-02      -421.17220437     73.060949    0.00000    0.00000    0.00000    2    diag,B
    5      0.203D-01      0.332D-03      -421.17220948     73.052232    0.00000    0.00000    0.00000    3    diag,B
    6      0.200D-02      0.199D-03      -421.17218960     73.050565    0.00000    0.00000    0.00000    4    diag,B
    7      0.555D-03      0.749D-04      -421.17218721     73.050449    0.00000    0.00000    0.00000    5    diag,B
    8      0.370D-04      0.726D-04      -421.17217651     73.050492    0.00000    0.00000    0.00000    6    diag,B
    9      0.114D-03      0.701D-04      -421.17216156     73.050552    0.00000    0.00000    0.00000    7    diag,B
   10      0.155D-03      0.642D-04      -421.17209141     73.050728    0.00000    0.00000    0.00000    8    orth
   11      0.127D-02      0.757D-04      -421.17209325     73.050751    0.00000    0.00000    0.00000    9    diag,B
   12      0.859D-04      0.535D-04      -421.17209160     73.050794    0.00000    0.00000    0.00000    9    diag,B
   13      0.241D-03      0.260D-04      -421.17209170     73.050814    0.00000    0.00000    0.00000    9    diag,B
   14      0.470D-04      0.969D-05      -421.17209171     73.050832    0.00000    0.00000    0.00000    9    diag,B
   15      0.237D-04      0.675D-06      -421.17209171     73.050833    0.00000    0.00000    0.00000    9    diag,B
   16      0.263D-05      0.672D-06      -421.17209171     73.050832    0.00000    0.00000    0.00000    0    orth

 Final alpha occupancy:   3   3   3   0   3   0   0   1
 Final beta  occupancy:   2   3   3   0   3   0   0   1

 !RHF STATE 1.1 Energy               -421.172091706864
   --><property name="Energy" method="RHF" principal="true" stateSymmetry="1" stateNumber="1"
     value="-421.172091706864"/><!--
 Nuclear energy                         0.00000000
 One-electron energy                 -457.69750749
 Two-electron energy                   36.52541578
 Virial quotient                       -1.21180361
 !RHF STATE 1.1 Dipole moment           0.00000000     0.00000000     0.00000000
 Dipole moment /Debye                   0.00000000     0.00000000     0.00000000
   --><property name="Dipole moment" method="RHF" principal="true" stateSymmetry="1"
     stateNumber="1" value="0.0 0.0 0.0"/><!--

 ELECTRON ORBITALS
 =================


   Orb  Occ    Energy  Couls-En    Coefficients

                                   1 1s      1 1s      1 1s      1 1s      1 1s      1 1s      1 1s      1 1s      1 1s      1 1s
                                   1 1s      1 1s      1 1s      1 1s      1 1s      1 1s      1 1s      1 1s      1 1s      1 1s
                                   1 1s      1 1s      1 1s      1 1s      1 1s      1 1s      1 1s      1 1s      1 1s      1 1s
                                   1 1s      1 3d0     1 3d2+    1 3d0     1 3d2+    1 3d0     1 3d2+    1 3d0     1 3d2+    1 3d0
                                   1 3d2+    1 3d0     1 3d2+    1 3d0     1 3d2+    1 3d0     1 3d2+    1 3d0     1 3d2+    1 3d0
                                   1 3d2+    1 3d0     1 3d2+    1 3d0     1 3d2+    1 3d0     1 3d2+    1 3d0     1 3d2+    1 3d0
                                   1 3d2+    1 3d0     1 3d2+    1 3d0     1 3d2+    1 3d0     1 3d2+    1 5g0     1 5g4+    1 5g2+
                                   1 5g0     1 5g4+    1 5g2+    1 5g0     1 5g4+    1 5g2+    1 5g0     1 5g4+    1 5g2+    1 5g0
                                   1 5g4+    1 5g2+    1 5g0     1 5g4+    1 5g2+

   1.1   2   -12.1664  -31.2215  0.000000 -0.000000  0.000000 -0.000000  0.000000 -0.000000  0.000001 -0.000002  0.000006 -0.000016
                                 0.000040 -0.000096  0.000223 -0.000501  0.001079 -0.002236  0.004269 -0.006953  0.008144 -0.040302
                                 0.105258  0.399203 -1.762071  1.297621  0.786611 -0.098481  0.077287 -0.055277  0.039008 -0.030101
                                 0.009624 -0.000000  0.000000  0.000000 -0.000000 -0.000001  0.000000  0.000006 -0.000000 -0.000021
                                 0.000000  0.000062 -0.000000 -0.000162  0.000000  0.000378 -0.000000 -0.000793  0.000000  0.001618
                                -0.000001 -0.003526  0.000002  0.005018 -0.000003  0.005356 -0.000007 -0.001185  0.000000  0.000932
                                -0.000000 -0.002202  0.000001  0.002460 -0.000001 -0.000796  0.000000  0.000001  0.000006 -0.000000
                                -0.000002 -0.000013  0.000000  0.000309  0.001833 -0.000000  0.000016  0.000094 -0.000000 -0.000009
                                -0.000055  0.000000  0.000005  0.000028 -0.000000

   2.1   2    -6.4065  -18.3771  0.000000 -0.000000  0.000000 -0.000000  0.000000 -0.000000  0.000001 -0.000003  0.000007 -0.000017
                                 0.000042 -0.000102  0.000238 -0.000534  0.001151 -0.002387  0.004566 -0.007457  0.008769 -0.045334
                                 0.154532  0.283644 -2.025271  2.715163  0.657063 -2.324865  0.522816 -0.390334  0.273681 -0.210522
                                 0.067174 -0.000000  0.000000  0.000001 -0.000000 -0.000004  0.000000  0.000017 -0.000000 -0.000058
                                 0.000000  0.000173 -0.000000 -0.000455  0.000000  0.001066 -0.000000 -0.002252  0.000001  0.004609
                                -0.000002 -0.010566  0.000004  0.020010 -0.000007  0.004090 -0.000003 -0.023218  0.000007  0.008283
                                -0.000003 -0.018376  0.000007  0.020275 -0.000007 -0.006495  0.000002 -0.000009 -0.000055  0.000000
                                 0.000045  0.000270 -0.000000 -0.000088 -0.000516  0.000000 -0.000046 -0.000291  0.000000  0.000028
                                 0.000176 -0.000000 -0.000014 -0.000090  0.000000

   3.1   +    -8.4343  -23.4777  0.000000 -0.000000  0.000000 -0.000000  0.000000 -0.000000  0.000000 -0.000000  0.000000 -0.000000
                                 0.000000 -0.000000  0.000000 -0.000000  0.000000 -0.000000  0.000000 -0.000000  0.000000 -0.000000
                                 0.000001  0.000005 -0.000021  0.000017  0.000011 -0.000008  0.000002 -0.000002  0.000001 -0.000001
                                 0.000000  0.000000 -0.000001 -0.000000  0.000012  0.000000 -0.000067 -0.000000  0.000280  0.000000
                                -0.000974 -0.000001  0.002912  0.000001 -0.007654 -0.000003  0.017898  0.000007 -0.037494 -0.000014
                                 0.074343  0.000031 -0.161076 -0.000030  0.158524 -0.000172  0.905213 -0.000007  0.037501 -0.000003
                                 0.013546  0.000008 -0.041303 -0.000009  0.047803  0.000003 -0.015894  0.000000  0.000000 -0.000002
                                -0.000000 -0.000000  0.000008  0.000000  0.000000 -0.000202  0.000000  0.000000 -0.000026 -0.000000
                                -0.000000  0.000016  0.000000  0.000000 -0.000008

   4.1   0    -8.4272  -23.4704 -0.000000  0.000000 -0.000000  0.000000 -0.000000  0.000000 -0.000000  0.000000 -0.000000  0.000000
                                -0.000000  0.000001 -0.000001  0.000003 -0.000006  0.000013 -0.000024  0.000040 -0.000048  0.000252
                                -0.000554 -0.003487  0.013487 -0.008161 -0.010101  0.004207 -0.001101  0.000847 -0.000604  0.000468
                                -0.000150 -0.000001 -0.000000  0.000012  0.000000 -0.000067 -0.000000  0.000279  0.000000 -0.000973
                                -0.000000  0.002908  0.000001 -0.007645 -0.000001  0.017876  0.000003 -0.037449 -0.000007  0.074253
                                 0.000014 -0.160910 -0.000031  0.158400  0.000030  0.904922  0.000172  0.037987  0.000007  0.013363
                                 0.000003 -0.040908 -0.000008  0.047368  0.000009 -0.015754 -0.000003 -0.000003 -0.000000  0.000000
                                 0.000010  0.000001 -0.000000 -0.000291 -0.000045  0.000000 -0.000037 -0.000002  0.000000  0.000023
                                 0.000001 -0.000000 -0.000012 -0.000001  0.000000

   5.1   0    -4.9672  -14.7431 -0.000000  0.000000 -0.000000  0.000000 -0.000000  0.000000 -0.000000  0.000000 -0.000000  0.000000
                                -0.000000  0.000000 -0.000000  0.000000 -0.000000  0.000000 -0.000000  0.000000 -0.000000  0.000001
                                -0.000002 -0.000002  0.000020 -0.000030 -0.000000  0.000016 -0.000003  0.000003 -0.000002  0.000001
                                -0.000000 -0.000000  0.000002  0.000000 -0.000017 -0.000000  0.000093  0.000000 -0.000391 -0.000000
                                 0.001362  0.000001 -0.004076 -0.000002  0.010737  0.000004 -0.025190 -0.000008  0.053135  0.000016
                                -0.107394 -0.000036  0.246138  0.000063 -0.428648  0.000093 -0.637203 -0.000188  1.287015  0.000016
                                -0.110314 -0.000049  0.332144  0.000055 -0.376021 -0.000018  0.122663  0.000000  0.000000 -0.000006
                                -0.000000 -0.000000  0.000031 -0.000000 -0.000000  0.000038  0.000000  0.000000 -0.000197 -0.000000
                                -0.000000  0.000099  0.000000  0.000000 -0.000050

                                   1 2px     1 2px     1 2px     1 2px     1 2px     1 2px     1 2px     1 2px     1 2px     1 2px
                                   1 2px     1 2px     1 2px     1 2px     1 2px     1 2px     1 2px     1 2px     1 2px     1 2px
                                   1 2px     1 2px     1 2px     1 2px     1 2px     1 2px     1 2px     1 4f1+    1 4f3+    1 4f1+
                                   1 4f3+    1 4f1+    1 4f3+    1 4f1+    1 4f3+    1 4f1+    1 4f3+    1 4f1+    1 4f3+    1 4f1+
                                   1 4f3+    1 4f1+    1 4f3+    1 4f1+    1 4f3+    1 4f1+    1 4f3+    1 4f1+    1 4f3+    1 4f1+
                                   1 4f3+    1 4f1+    1 4f3+    1 6h1+    1 6h3+    1 6h5+    1 6h1+    1 6h3+    1 6h5+    1 6h1+
                                   1 6h3+    1 6h5+

   1.2   2   -10.5403  -28.0058 -0.000000  0.000000 -0.000000  0.000000 -0.000000  0.000001 -0.000002  0.000009 -0.000031  0.000097
                                -0.000281  0.000771 -0.002069  0.005927 -0.019510  0.125248 -0.253822  0.319088 -0.697238  0.658725
                                 0.995929 -0.408388  0.170486 -0.115029 -0.025203  0.011824  0.110208 -0.000000  0.000000  0.000000
                                -0.000000 -0.000000  0.000000  0.000002 -0.000000 -0.000004  0.000002  0.000019  0.000003 -0.000033
                                 0.000006  0.000009  0.000001  0.000198 -0.000076 -0.000003  0.000005  0.000004 -0.000003 -0.000003
                                 0.000002  0.000001 -0.000001 -0.000059  0.000064 -0.000427 -0.000237  0.000255 -0.001711  0.000067
                                -0.000073  0.000487

   2.2   2   -19.7002  -39.4005  0.000000 -0.000000  0.000000 -0.000000  0.000000 -0.000000  0.000000 -0.000000  0.000000 -0.000000
                                 0.000000 -0.000000  0.000000 -0.000001  0.000002 -0.000013  0.000029 -0.000036  0.000011  0.000049
                                -0.000008  0.000012 -0.000005  0.000005  0.000001 -0.000000 -0.000004 -0.000043  0.000052  0.000288
                                -0.000348 -0.001307  0.001581  0.004594 -0.005554 -0.077637  0.093871 -0.256904  0.310623 -0.284710
                                 0.344243 -0.136953  0.165591  0.007414 -0.008964 -0.004021  0.004862  0.002566 -0.003103 -0.001887
                                 0.002281  0.000610 -0.000737 -0.000432  0.000373 -0.000077 -0.000150  0.000099  0.000001  0.000059
                                -0.000046  0.000006

   3.2   2   -19.7003  -39.4006 -0.000000  0.000000 -0.000000  0.000000 -0.000000  0.000000 -0.000000  0.000000 -0.000000  0.000000
                                -0.000000  0.000000 -0.000000  0.000001 -0.000002  0.000013 -0.000029  0.000038 -0.000023 -0.000035
                                 0.000014 -0.000014  0.000006 -0.000005 -0.000001  0.000001  0.000005  0.000052  0.000043 -0.000348
                                -0.000288  0.001581  0.001307 -0.005554 -0.004594  0.093870  0.077636  0.310619  0.256901  0.344241
                                 0.284708  0.165599  0.136961 -0.008963 -0.007413  0.004862  0.004021 -0.003103 -0.002566  0.002281
                                 0.001887 -0.000737 -0.000610  0.000472  0.000167  0.000093  0.000182  0.000085 -0.000002 -0.000068
                                -0.000028 -0.000007

   4.2   0   -12.6888  -25.3775  0.000000 -0.000000  0.000000 -0.000000  0.000000 -0.000000  0.000000 -0.000000  0.000000 -0.000000
                                 0.000000 -0.000000  0.000000 -0.000001  0.000003 -0.000019  0.000043 -0.000066  0.000113 -0.000074
                                -0.000101  0.000052 -0.000018  0.000014  0.000003 -0.000001 -0.000013 -0.000063 -0.000054  0.000427
                                 0.000365 -0.001925 -0.001646  0.006766  0.005785 -0.084648 -0.072375 -0.207898 -0.177756 -0.264083
                                -0.225795  0.556123  0.475495  0.370201  0.316526 -0.046777 -0.039994  0.026852  0.022958 -0.019179
                                -0.016398  0.006079  0.005197  0.000016  0.000041 -0.000063  0.001210  0.000644 -0.000129 -0.000227
                                -0.000115  0.000014

   5.2   0   -12.6886  -25.3774 -0.000000  0.000000 -0.000000  0.000000 -0.000000  0.000000 -0.000000  0.000000 -0.000000  0.000000
                                -0.000000  0.000000 -0.000000  0.000001 -0.000005  0.000029 -0.000064  0.000091 -0.000162  0.000119
                                 0.000164 -0.000075  0.000031 -0.000022 -0.000005  0.000002  0.000021  0.000054 -0.000063 -0.000365
                                 0.000427  0.001646 -0.001925 -0.005785  0.006766  0.072374 -0.084646  0.177754 -0.207897  0.225785
                                -0.264072 -0.475485  0.556116 -0.316534  0.370207  0.039993 -0.046774 -0.022958  0.026850  0.016397
                                -0.019178 -0.005197  0.006079  0.000015 -0.000066  0.000054 -0.000976  0.000522  0.000110  0.000188
                                -0.000111 -0.000012

                                   1 2py     1 2py     1 2py     1 2py     1 2py     1 2py     1 2py     1 2py     1 2py     1 2py
                                   1 2py     1 2py     1 2py     1 2py     1 2py     1 2py     1 2py     1 2py     1 2py     1 2py
                                   1 2py     1 2py     1 2py     1 2py     1 2py     1 2py     1 2py     1 4f1-    1 4f3-    1 4f1-
                                   1 4f3-    1 4f1-    1 4f3-    1 4f1-    1 4f3-    1 4f1-    1 4f3-    1 4f1-    1 4f3-    1 4f1-
                                   1 4f3-    1 4f1-    1 4f3-    1 4f1-    1 4f3-    1 4f1-    1 4f3-    1 4f1-    1 4f3-    1 4f1-
                                   1 4f3-    1 4f1-    1 4f3-    1 6h1-    1 6h3-    1 6h5-    1 6h1-    1 6h3-    1 6h5-    1 6h1-
                                   1 6h3-    1 6h5-

   1.3   2   -10.5403  -28.0058 -0.000000  0.000000 -0.000000  0.000000 -0.000000  0.000001 -0.000002  0.000009 -0.000031  0.000097
                                -0.000281  0.000771 -0.002069  0.005927 -0.019511  0.125249 -0.253824  0.319090 -0.697240  0.658727
                                 0.995929 -0.408390  0.170487 -0.115030 -0.025203  0.011824  0.110209 -0.000000 -0.000000  0.000000
                                 0.000000 -0.000000 -0.000000  0.000002  0.000000 -0.000004 -0.000002  0.000019 -0.000003 -0.000033
                                -0.000006  0.000009 -0.000001  0.000198  0.000076 -0.000003 -0.000005  0.000004  0.000003 -0.000003
                                -0.000002  0.000001  0.000001 -0.000059 -0.000063 -0.000427 -0.000236 -0.000254 -0.001711  0.000067
                                 0.000072  0.000487

   2.3   2   -19.7002  -39.4005 -0.000000  0.000000 -0.000000  0.000000 -0.000000  0.000000 -0.000000  0.000000 -0.000000  0.000000
                                -0.000000  0.000000 -0.000000  0.000001 -0.000002  0.000013 -0.000029  0.000036 -0.000011 -0.000049
                                 0.000008 -0.000012  0.000005 -0.000005 -0.000001  0.000000  0.000004  0.000043  0.000052 -0.000288
                                -0.000348  0.001308  0.001581 -0.004595 -0.005554  0.077649  0.093861  0.256944  0.310590  0.284754
                                 0.344206  0.136974  0.165573 -0.007415 -0.008963  0.004022  0.004861 -0.002567 -0.003102  0.001887
                                 0.002281 -0.000610 -0.000737  0.000432  0.000372  0.000077  0.000150  0.000099 -0.000002 -0.000059
                                -0.000046 -0.000006

   3.3   2   -19.7003  -39.4006 -0.000000  0.000000 -0.000000  0.000000 -0.000000  0.000000 -0.000000  0.000000 -0.000000  0.000000
                                -0.000000  0.000000 -0.000000  0.000001 -0.000002  0.000013 -0.000029  0.000038 -0.000023 -0.000035
                                 0.000014 -0.000014  0.000006 -0.000005 -0.000001  0.000001  0.000005  0.000052 -0.000043 -0.000348
                                 0.000288  0.001581 -0.001308 -0.005554  0.004595  0.093860 -0.077648  0.310586 -0.256941  0.344204
                                -0.284752  0.165582 -0.136982 -0.008963  0.007414  0.004861 -0.004021 -0.003102  0.002566  0.002281
                                -0.001887 -0.000737  0.000610  0.000472 -0.000168  0.000093  0.000182 -0.000085 -0.000002 -0.000068
                                 0.000028 -0.000007

   4.3   0   -12.6888  -25.3775 -0.000000  0.000000 -0.000000  0.000000 -0.000000  0.000000 -0.000000  0.000000 -0.000000  0.000000
                                -0.000000  0.000000 -0.000000  0.000001 -0.000003  0.000019 -0.000043  0.000066 -0.000113  0.000074
                                 0.000102 -0.000052  0.000018 -0.000014 -0.000003  0.000001  0.000013  0.000063 -0.000054 -0.000427
                                 0.000365  0.001925 -0.001646 -0.006765  0.005785  0.084642 -0.072382  0.207883 -0.177773  0.264064
                                -0.225816 -0.556084  0.475541 -0.370175  0.316557  0.046773 -0.039998 -0.026850  0.022961  0.019177
                                -0.016399 -0.006078  0.005198 -0.000016  0.000041  0.000063 -0.001210  0.000645  0.000128  0.000227
                                -0.000115 -0.000014

   5.3   0   -12.6886  -25.3774  0.000000 -0.000000  0.000000 -0.000000  0.000000 -0.000000  0.000000 -0.000000  0.000000 -0.000000
                                 0.000000 -0.000000  0.000000 -0.000001  0.000005 -0.000029  0.000064 -0.000091  0.000161 -0.000119
                                -0.000164  0.000075 -0.000031  0.000022  0.000005 -0.000002 -0.000021 -0.000054 -0.000063  0.000365
                                 0.000427 -0.001646 -0.001925  0.005785  0.006765 -0.072381 -0.084640 -0.177772 -0.207882 -0.225807
                                -0.264053  0.475531  0.556076  0.316564  0.370181 -0.039997 -0.046771  0.022960  0.026849 -0.016399
                                -0.019176  0.005198  0.006078 -0.000015 -0.000066 -0.000054  0.000976  0.000521 -0.000111 -0.000188
                                -0.000110  0.000012

                                   1 3d2-    1 3d2-    1 3d2-    1 3d2-    1 3d2-    1 3d2-    1 3d2-    1 3d2-    1 3d2-    1 3d2-
                                   1 3d2-    1 3d2-    1 3d2-    1 3d2-    1 3d2-    1 3d2-    1 3d2-    1 3d2-    1 5g2-    1 5g4-
                                   1 5g2-    1 5g4-    1 5g2-    1 5g4-    1 5g2-    1 5g4-    1 5g2-    1 5g4-    1 5g2-    1 5g4-


   1.4   0    -8.4330  -23.4763 -0.000001  0.000012 -0.000067  0.000280 -0.000973  0.002910 -0.007650  0.017888 -0.037474  0.074304
                                -0.161005  0.158451  0.905174  0.037618  0.013485 -0.041167  0.047652 -0.015845 -0.000002  0.000000
                                 0.000007 -0.000000 -0.000183  0.000000 -0.000024  0.000000  0.000015 -0.000000 -0.000007  0.000000

   2.4   0    -4.9668  -14.7426  0.000002 -0.000017  0.000093 -0.000391  0.001361 -0.004074  0.010732 -0.025178  0.053109 -0.107340
                                 0.246024 -0.428430 -0.637413  1.286981 -0.110118  0.331777 -0.375622  0.122536 -0.000005  0.000000
                                 0.000029 -0.000000  0.000035 -0.000000 -0.000192  0.000000  0.000096 -0.000000 -0.000049  0.000000

                                   1 2pz     1 2pz     1 2pz     1 2pz     1 2pz     1 2pz     1 2pz     1 2pz     1 2pz     1 2pz
                                   1 2pz     1 2pz     1 2pz     1 2pz     1 2pz     1 2pz     1 2pz     1 2pz     1 2pz     1 2pz
                                   1 2pz     1 2pz     1 2pz     1 2pz     1 2pz     1 2pz     1 2pz     1 4f0     1 4f2+    1 4f0
                                   1 4f2+    1 4f0     1 4f2+    1 4f0     1 4f2+    1 4f0     1 4f2+    1 4f0     1 4f2+    1 4f0
                                   1 4f2+    1 4f0     1 4f2+    1 4f0     1 4f2+    1 4f0     1 4f2+    1 4f0     1 4f2+    1 4f0
                                   1 4f2+    1 4f0     1 4f2+    1 6h2+    1 6h4+    1 6h0     1 6h2+    1 6h4+    1 6h0     1 6h2+
                                   1 6h4+    1 6h0

   1.5   2   -10.5508  -28.0191 -0.000000  0.000000 -0.000000  0.000000 -0.000000  0.000001 -0.000003  0.000009 -0.000032  0.000099
                                -0.000286  0.000787 -0.002110  0.006046 -0.019896  0.127682 -0.258605  0.323708 -0.702253  0.664475
                                 0.996645 -0.413561  0.171965 -0.116365 -0.025490  0.011961  0.111488 -0.000000  0.000000  0.000000
                                -0.000000 -0.000001  0.000000  0.000002 -0.000000 -0.000004  0.000000  0.000023  0.000000 -0.000040
                                 0.000000  0.000013 -0.000000  0.000219 -0.000000 -0.000002  0.000000  0.000005 -0.000000 -0.000004
                                 0.000000  0.000001 -0.000000  0.000000 -0.000270 -0.000077  0.000000 -0.001080 -0.000305 -0.000000
                                 0.000308  0.000087

   2.5   2   -19.7002  -39.4005 -0.000000 -0.000000  0.000000 -0.000000  0.000000 -0.000000  0.000000 -0.000000  0.000000 -0.000000
                                 0.000000 -0.000000  0.000000 -0.000000  0.000000 -0.000000 -0.000000  0.000000  0.000000 -0.000000
                                -0.000000  0.000000 -0.000000  0.000000  0.000000 -0.000000 -0.000000  0.000000  0.000067 -0.000000
                                -0.000451  0.000001  0.002051 -0.000002 -0.007208  0.000037  0.121816  0.000122  0.403096  0.000135
                                 0.446725  0.000065  0.214887 -0.000004 -0.011633  0.000002  0.006309 -0.000001 -0.004026  0.000001
                                 0.002961 -0.000000 -0.000957  0.000625 -0.000000  0.000000  0.000195 -0.000000  0.000000 -0.000082
                                 0.000000 -0.000000

   3.5   2   -19.7003  -39.4005 -0.000000  0.000000 -0.000000  0.000000 -0.000000  0.000000 -0.000000  0.000000 -0.000000  0.000000
                                -0.000000  0.000000 -0.000000  0.000001 -0.000004  0.000022 -0.000049  0.000064 -0.000032 -0.000067
                                 0.000020 -0.000023  0.000010 -0.000008 -0.000002  0.000001  0.000008  0.000067 -0.000000 -0.000451
                                 0.000000  0.002051 -0.000001 -0.007208  0.000002  0.121816 -0.000037  0.403093 -0.000122  0.446723
                                -0.000135  0.214893 -0.000065 -0.011633  0.000004  0.006309 -0.000002 -0.004026  0.000001  0.002961
                                -0.000001 -0.000957  0.000000 -0.000000  0.000188  0.000665 -0.000000 -0.000004  0.000248  0.000000
                                -0.000014 -0.000094

   4.5   0   -12.6887  -25.3775  0.000000 -0.000000  0.000000 -0.000000  0.000000 -0.000000  0.000000 -0.000000  0.000000 -0.000000
                                 0.000000 -0.000000  0.000001 -0.000002  0.000006 -0.000038  0.000085 -0.000127  0.000219 -0.000151
                                -0.000208  0.000102 -0.000038  0.000028  0.000006 -0.000003 -0.000027 -0.000084  0.000000  0.000561
                                -0.000000 -0.002533  0.000000  0.008902 -0.000001 -0.111369  0.000015 -0.273529  0.000037 -0.347445
                                 0.000047  0.731681 -0.000098  0.487077 -0.000065 -0.061542  0.000008  0.035328 -0.000005 -0.025233
                                 0.000003  0.007998 -0.000001  0.000000 -0.000128  0.000009 -0.000001 -0.000262  0.001650  0.000000
                                 0.000028 -0.000312

   5.5   0   -12.6886  -25.3774  0.000000 -0.000000 -0.000000  0.000000 -0.000000  0.000000 -0.000000  0.000000 -0.000000  0.000000
                                -0.000000  0.000000 -0.000000  0.000000 -0.000000  0.000000 -0.000000  0.000000 -0.000000  0.000000
                                 0.000000 -0.000000  0.000000 -0.000000 -0.000000  0.000000  0.000000 -0.000000 -0.000084  0.000000
                                 0.000561 -0.000000 -0.002533  0.000001  0.008901 -0.000015 -0.111368 -0.000037 -0.273528 -0.000047
                                -0.347438  0.000098  0.731676  0.000065  0.487080 -0.000008 -0.061541  0.000005  0.035327 -0.000003
                                -0.025232  0.000001  0.007998 -0.000060 -0.000000  0.000000  0.001174 -0.000001  0.000000 -0.000233
                                 0.000000 -0.000000

                                   1 3d1+    1 3d1+    1 3d1+    1 3d1+    1 3d1+    1 3d1+    1 3d1+    1 3d1+    1 3d1+    1 3d1+
                                   1 3d1+    1 3d1+    1 3d1+    1 3d1+    1 3d1+    1 3d1+    1 3d1+    1 3d1+    1 5g1+    1 5g3+
                                   1 5g1+    1 5g3+    1 5g1+    1 5g3+    1 5g1+    1 5g3+    1 5g1+    1 5g3+    1 5g1+    1 5g3+


   1.6   0    -8.4285  -23.4716 -0.000001  0.000012 -0.000067  0.000279 -0.000973  0.002909 -0.007647  0.017881 -0.037459  0.074273
                                -0.160951  0.158444  0.905004  0.037868  0.013403 -0.040994  0.047462 -0.015784 -0.000003  0.000000
                                 0.000010 -0.000001 -0.000262  0.000010 -0.000034  0.000001  0.000021 -0.000000 -0.000011  0.000000

   2.6   0    -4.9642  -14.7395  0.000002 -0.000017  0.000093 -0.000390  0.001360 -0.004071  0.010724 -0.025160  0.053071 -0.107262
                                 0.245839 -0.428042 -0.637714  1.286691 -0.109388  0.330507 -0.374260  0.122109 -0.000008  0.000000
                                 0.000041 -0.000001  0.000050 -0.000002 -0.000274  0.000005  0.000137 -0.000003 -0.000069  0.000001

                                   1 3d1-    1 3d1-    1 3d1-    1 3d1-    1 3d1-    1 3d1-    1 3d1-    1 3d1-    1 3d1-    1 3d1-
                                   1 3d1-    1 3d1-    1 3d1-    1 3d1-    1 3d1-    1 3d1-    1 3d1-    1 3d1-    1 5g1-    1 5g3-
                                   1 5g1-    1 5g3-    1 5g1-    1 5g3-    1 5g1-    1 5g3-    1 5g1-    1 5g3-    1 5g1-    1 5g3-


   1.7   0    -8.4285  -23.4716 -0.000001  0.000012 -0.000067  0.000279 -0.000973  0.002909 -0.007647  0.017881 -0.037459  0.074273
                                -0.160951  0.158444  0.905004  0.037868  0.013403 -0.040994  0.047461 -0.015784 -0.000003 -0.000000
                                 0.000010  0.000001 -0.000262 -0.000009 -0.000034 -0.000001  0.000021  0.000000 -0.000011 -0.000000

   2.7   0    -4.9642  -14.7395  0.000002 -0.000017  0.000093 -0.000390  0.001360 -0.004071  0.010724 -0.025160  0.053071 -0.107262
                                 0.245838 -0.428042 -0.637714  1.286690 -0.109387  0.330506 -0.374259  0.122109 -0.000008 -0.000000
                                 0.000041  0.000001  0.000050  0.000002 -0.000274 -0.000005  0.000137  0.000003 -0.000069 -0.000001

                                   1 4f2-    1 4f2-    1 4f2-    1 4f2-    1 4f2-    1 4f2-    1 4f2-    1 4f2-    1 4f2-    1 4f2-
                                   1 4f2-    1 4f2-    1 4f2-    1 6h4-    1 6h2-    1 6h4-    1 6h2-    1 6h4-    1 6h2-

   1.8   2   -19.7003  -39.4006  0.000067 -0.000451  0.002051 -0.007208  0.121815  0.403089  0.446721  0.214903 -0.011631  0.006309
                                -0.004026  0.002961 -0.000957 -0.000000  0.000486 -0.000000  0.000198  0.000000 -0.000071

   2.8   0   -12.6889  -25.3776 -0.000084  0.000561 -0.002533  0.008902 -0.111371 -0.273531 -0.347456  0.731692  0.487068 -0.061544
                                 0.035329 -0.025233  0.007998 -0.000000  0.000035 -0.000001  0.001368  0.000000 -0.000254

   3.8   0    -8.7098  -17.4195  0.000068 -0.000456  0.002063 -0.007229  0.097853  0.231511  0.250419 -1.188582  0.879576  0.489720
                                -0.149481  0.099464 -0.030286  0.000000 -0.000292  0.000000 -0.000270 -0.000000  0.001226

 HOMO      3.1    -8.434276 =    -229.5083eV
 LUMO      2.8   -12.688868 =    -345.2817eV
 LUMO-HOMO        -4.254592 =    -115.7733eV


 **********************************************************************************************************************************
 DATASETS  * FILE   NREC   LENGTH (MB)   RECORD NAMES
              1      19       20.94       500      610      700      900      950      970     1000      129      960     1100
                                          VAR    BASINP    GEOM    SYMINP    ZMAT    AOBASIS   BASIS     P2S    ABASIS      S
                                         1400     1410     1420     1200     1210     1080     1600     1650     1700
                                           T        V       ECP      H0       H01     AOSYM     SMH    MOLCAS    OPER

              2       5        6.02       200      700     1000      520     4202
                                        OPTIONS   GEOM     BASIS   MCVARS     RHF

 PROGRAMS   *        TOTAL       RHF       INT
 CPU TIMES  *        59.63      1.61     56.79
 REAL TIME  *        63.48 SEC
 DISK USED  *         3.10 GB
 SF USED    *         0.09 MB
 GA USED    *         0.00 MB       (max)       0.00 MB       (current)
 **********************************************************************************************************************************
   -->
   <time start="12:15:33" end="12:16:35" cpu="59.63" system="2.42" real="63.48"/>
   <storage units="megabyte" memory="8001.84" sf="0.09" df="332.82" eaf="2770.82" ga="0.0"/>
  </jobstep><!--
  --><jobstep command="POP" commandset="POP">
   <!--


 PROGRAM * POP (Mulliken population analysis)


 Density matrix read from record         4202.2  Type=RHF/CHARGE (state 1.1)

 Population analysis by basis function type

 Unique atom        s        p        d        f        g    Total    Charge
   1  LU      3.99912  5.99999  1.00087 13.99999  0.00001 25.00000  + 0.00000


 **********************************************************************************************************************************
 DATASETS  * FILE   NREC   LENGTH (MB)   RECORD NAMES
              1      19       20.94       500      610      700      900      950      970     1000      129      960     1100
                                          VAR    BASINP    GEOM    SYMINP    ZMAT    AOBASIS   BASIS     P2S    ABASIS      S
                                         1400     1410     1420     1200     1210     1080     1600     1650     1700
                                           T        V       ECP      H0       H01     AOSYM     SMH    MOLCAS    OPER

              2       5        6.02       200      700     1000      520     4202
                                        OPTIONS   GEOM     BASIS   MCVARS     RHF

 PROGRAMS   *        TOTAL       POP       RHF       INT
 CPU TIMES  *        59.70      0.01      1.61     56.79
 REAL TIME  *        63.55 SEC
 DISK USED  *         3.10 GB
 SF USED    *         0.09 MB
 GA USED    *         0.00 MB       (max)       0.00 MB       (current)
 **********************************************************************************************************************************
   -->
   <time start="12:16:35" end="12:16:35" cpu="0.07" system="0.0" real="0.07"/>
   <storage units="megabyte" memory="8001.84" sf="0.09" df="332.82" eaf="2770.82" ga="0.0"/>
  </jobstep><!--
  --><jobstep command="MULTI" commandset="MULTI">
   <!--


 PROGRAM * MULTI (Direct Multiconfiguration SCF)       Authors: P.J. Knowles, H.-J. Werner (1984)     S.T. Elbert (1988)


 Number of closed-shell orbitals:  12 (   2   3   3   0   3   0   0   1 )
 Number of active  orbitals:        5 (   2   0   0   1   0   1   1   0 )
 Number of external orbitals:     363 (  81  59  59  29  59  29  29  18 )

 State symmetry 1

 Number of electrons:     1    Spin symmetry=Doublet   Space symmetry=1
 Number of states:        2
 Number of CSFs:          2   (2 determinants, 5 intermediate states)

 State symmetry 2

 Number of electrons:     1    Spin symmetry=Doublet   Space symmetry=4
 Number of states:        1
 Number of CSFs:          1   (1 determinants, 5 intermediate states)

 State symmetry 3

 Number of electrons:     1    Spin symmetry=Doublet   Space symmetry=6
 Number of states:        1
 Number of CSFs:          1   (1 determinants, 5 intermediate states)

 State symmetry 4

 Number of electrons:     1    Spin symmetry=Doublet   Space symmetry=7
 Number of states:        1
 Number of CSFs:          1   (1 determinants, 5 intermediate states)

 Molecular orbitals read from record     4202.2  Type=RHF/CANONICAL (state 1.1)
 *** IN SYMMETRY 1 ORBITAL  1 SYMMETRY CONTAMINATION OF 0.566D-02 HAS BEEN REMOVED
 *** IN SYMMETRY 1 ORBITAL  2 SYMMETRY CONTAMINATION OF 0.124D-01 HAS BEEN REMOVED
 *** IN SYMMETRY 1 ORBITAL  3 SYMMETRY CONTAMINATION OF 0.408D-03 HAS BEEN REMOVED
 *** IN SYMMETRY 1 ORBITAL  4 SYMMETRY CONTAMINATION OF 0.283D-01 HAS BEEN REMOVED

 EXTRA SYMMETRY OF MOS IN SYMMETRY 1:   1 1 3 2 3 2 1 3 2 1   3 2 1 3 2 1 3 2 1 3   2 1 4 6 5 4 6 5 4 6   5 4 6 1 1 3 2 4 6 5
                                        3 2 1 4 6 5 3 2 1 1   3 2 1 3 2 1 3 2 1 3   2 1 1 3 2 1 3 2 1 3   2 1 1 3 2 1 1 1 1 1
                                        1 1 1 1 5
 *** IN SYMMETRY 2 ORBITAL  1 SYMMETRY CONTAMINATION OF 0.957D-03 HAS BEEN REMOVED
 *** IN SYMMETRY 2 ORBITAL  2 SYMMETRY CONTAMINATION OF 0.453D+00 HAS BEEN REMOVED
 *** IN SYMMETRY 2 ORBITAL  3 SYMMETRY CONTAMINATION OF 0.453D+00 HAS BEEN REMOVED
 EXTRA SYMMETRY OF MOS IN SYMMETRY 2:   1 3 2 2 3 2 3 2 3 1   2 3 1 2 3 1 2 3 1 1   6 1 5 4 1 2 3 6 5 4   1 6 5 4 1 3 2 1 1 2
                                        3 1 1 2 3 1 2 3 1 1   2 3 1 1 1 1 1 1 1 1   1 1
 *** IN SYMMETRY 3 ORBITAL  1 SYMMETRY CONTAMINATION OF 0.957D-03 HAS BEEN REMOVED
 *** IN SYMMETRY 3 ORBITAL  2 SYMMETRY CONTAMINATION OF 0.453D+00 HAS BEEN REMOVED
 *** IN SYMMETRY 3 ORBITAL  3 SYMMETRY CONTAMINATION OF 0.453D+00 HAS BEEN REMOVED
 EXTRA SYMMETRY OF MOS IN SYMMETRY 3:   1 3 2 2 3 2 3 2 3 1   2 3 1 2 3 1 2 3 1 1   6 1 5 4 1 2 3 6 5 4   1 6 5 4 1 3 2 1 1 2
                                        3 1 1 2 3 1 2 3 1 1   2 3 1 1 1 1 1 1 1 1   1 1
 *** IN SYMMETRY 4 ORBITAL  1 SYMMETRY CONTAMINATION OF 0.156D-03 HAS BEEN REMOVED
 EXTRA SYMMETRY OF MOS IN SYMMETRY 4:   1 1 1 1 1 1 1 2 3 2   3 2 3 2 3 1 2 3 1 2   3 1 1 1 1 1 1 1 1 1
 *** IN SYMMETRY 5 ORBITAL  1 SYMMETRY CONTAMINATION OF 0.617D-03 HAS BEEN REMOVED
 *** IN SYMMETRY 5 ORBITAL  2 SYMMETRY CONTAMINATION OF 0.104D-02 HAS BEEN REMOVED
 *** IN SYMMETRY 5 ORBITAL  3 SYMMETRY CONTAMINATION OF 0.154D-02 HAS BEEN REMOVED
 EXTRA SYMMETRY OF MOS IN SYMMETRY 5:   1 3 2 2 3 2 3 2 3 1   2 3 1 2 3 1 2 3 1 1   1 5 4 6 1 2 3 5 4 6   1 5 4 6 1 2 3 1 1 2
                                        3 1 1 2 3 1 2 3 1 1   2 3 1 1 1 1 1 1 1 1   1 1
 *** IN SYMMETRY 6 ORBITAL  1 SYMMETRY CONTAMINATION OF 0.231D-03 HAS BEEN REMOVED
 EXTRA SYMMETRY OF MOS IN SYMMETRY 6:   1 1 1 1 1 1 1 2 3 2   3 2 3 2 3 1 2 3 1 2   3 1 1 1 1 1 1 1 1 1
 *** IN SYMMETRY 7 ORBITAL  1 SYMMETRY CONTAMINATION OF 0.231D-03 HAS BEEN REMOVED
 EXTRA SYMMETRY OF MOS IN SYMMETRY 7:   1 1 1 1 1 1 1 2 3 2   3 2 3 2 3 1 2 3 1 2   3 1 1 1 1 1 1 1 1 1
 *** IN SYMMETRY 8 ORBITAL  1 SYMMETRY CONTAMINATION OF 0.618D-03 HAS BEEN REMOVED
 EXTRA SYMMETRY OF MOS IN SYMMETRY 8:   1 1 1 1 1 1 1 2 3 1   2 3 2 3 1 1 1 1 1

 Wavefunction dump at record             5202.2

 Convergence thresholds  0.10E-01 (gradient)  0.10E-05 (energy)  0.10E-02 (step length)

 Weight factors for state symmetry  1:    0.20000   0.20000
 Weight factors for state symmetry  2:    0.20000
 Weight factors for state symmetry  3:    0.20000
 Weight factors for state symmetry  4:    0.20000

 Number of orbital rotations:      964   (     4 Core/Active    711 Core/Virtual   0 Active/Active    249 Active/Virtual)
 Total number of variables:        971


 ITER. MIC  NCI  NEG     ENERGY(VAR)     ENERGY(PROJ)   ENERGY CHANGE     GRAD(0)  GRAD(ORB)   GRAD(CI)     STEP       TIME

   1   34   16    0    -421.17004779    -421.17006964   -0.00002185    5.10022550 0.00000000 0.00000000  0.15D-02      1.23
   2   29   20    0    -421.17006948    -421.17006956   -0.00000008    5.37482470 0.00000000 0.00000000  0.17D-06      2.46

 ** WVFN ****  CONVERGENCE REACHED, FINAL GRADIENT:  0.15D-10



 Results for state 1.1
 =====================

 !MCSCF STATE 1.1 Energy             -421.170069560377
   --><property name="Energy" method="MCSCF" principal="true" stateSymmetry="1" stateNumber="1"
     value="-421.170069560377"/><!--
 Nuclear energy                         0.00000000
 Kinetic energy                       347.55616119
 One electron energy                 -457.69921521
 Two electron energy                   36.52914565
 Virial ratio                           2.21180435

 !MCSCF STATE 1.1 Dipole moment         0.00000000     0.00000000     0.00000000
 Dipole moment /Debye                   0.00000000     0.00000000     0.00000000
   --><property name="Dipole moment" method="MCSCF" principal="true" stateSymmetry="1"
     stateNumber="1" value="0.0 0.0 0.0"/><!--

 Results for state 2.1
 =====================

 !MCSCF STATE 2.1 Energy             -421.170069560377
   --><property name="Energy" method="MCSCF" principal="true" stateSymmetry="1" stateNumber="2"
     value="-421.170069560377"/><!--
 Nuclear energy                         0.00000000
 Kinetic energy                       347.55616119
 One electron energy                 -457.69921521
 Two electron energy                   36.52914565
 Virial ratio                           2.21180435

 !MCSCF STATE 2.1 Dipole moment         0.00000000     0.00000000     0.00000000
 Dipole moment /Debye                   0.00000000     0.00000000     0.00000000
   --><property name="Dipole moment" method="MCSCF" principal="true" stateSymmetry="1"
     stateNumber="2" value="0.0 0.0 0.0"/><!--



 Results for state 1.4
 =====================

 !MCSCF STATE 1.4 Energy             -421.170069560377
   --><property name="Energy" method="MCSCF" principal="true" stateSymmetry="4" stateNumber="1"
     value="-421.170069560377"/><!--
 Nuclear energy                         0.00000000
 Kinetic energy                       347.55616119
 One electron energy                 -457.69921521
 Two electron energy                   36.52914565
 Virial ratio                           2.21180435

 !MCSCF STATE 1.4 Dipole moment         0.00000000     0.00000000     0.00000000
 Dipole moment /Debye                   0.00000000     0.00000000     0.00000000
   --><property name="Dipole moment" method="MCSCF" principal="true" stateSymmetry="4"
     stateNumber="1" value="0.0 0.0 0.0"/><!--



 Results for state 1.6
 =====================

 !MCSCF STATE 1.6 Energy             -421.170069560377
   --><property name="Energy" method="MCSCF" principal="true" stateSymmetry="6" stateNumber="1"
     value="-421.170069560377"/><!--
 Nuclear energy                         0.00000000
 Kinetic energy                       347.55616119
 One electron energy                 -457.69921521
 Two electron energy                   36.52914565
 Virial ratio                           2.21180435

 !MCSCF STATE 1.6 Dipole moment         0.00000000     0.00000000     0.00000000
 Dipole moment /Debye                   0.00000000     0.00000000     0.00000000
   --><property name="Dipole moment" method="MCSCF" principal="true" stateSymmetry="6"
     stateNumber="1" value="0.0 0.0 0.0"/><!--



 Results for state 1.7
 =====================

 !MCSCF STATE 1.7 Energy             -421.170069560377
   --><property name="Energy" method="MCSCF" principal="true" stateSymmetry="7" stateNumber="1"
     value="-421.170069560377"/><!--
 Nuclear energy                         0.00000000
 Kinetic energy                       347.55616119
 One electron energy                 -457.69921521
 Two electron energy                   36.52914565
 Virial ratio                           2.21180435

 !MCSCF STATE 1.7 Dipole moment         0.00000000     0.00000000     0.00000000
 Dipole moment /Debye                   0.00000000     0.00000000     0.00000000
   --><property name="Dipole moment" method="MCSCF" principal="true" stateSymmetry="7"
     stateNumber="1" value="0.0 0.0 0.0"/><!--

 State-averaged charge density matrix saved on record  5202.2 (density set 1)


 NATURAL ORBITALS (state averaged)
 =================================

   Orb     Occ        Energy       Coefficients

                                   1 1s      1 1s      1 1s      1 1s      1 1s      1 1s      1 1s      1 1s      1 1s      1 1s
                                   1 1s      1 1s      1 1s      1 1s      1 1s      1 1s      1 1s      1 1s      1 1s      1 1s
                                   1 1s      1 1s      1 1s      1 1s      1 1s      1 1s      1 1s      1 1s      1 1s      1 1s
                                   1 1s      1 3d0     1 3d2+    1 3d0     1 3d2+    1 3d0     1 3d2+    1 3d0     1 3d2+    1 3d0
                                   1 3d2+    1 3d0     1 3d2+    1 3d0     1 3d2+    1 3d0     1 3d2+    1 3d0     1 3d2+    1 3d0
                                   1 3d2+    1 3d0     1 3d2+    1 3d0     1 3d2+    1 3d0     1 3d2+    1 3d0     1 3d2+    1 3d0
                                   1 3d2+    1 3d0     1 3d2+    1 3d0     1 3d2+    1 3d0     1 3d2+    1 5g0     1 5g4+    1 5g2+
                                   1 5g0     1 5g4+    1 5g2+    1 5g0     1 5g4+    1 5g2+    1 5g0     1 5g4+    1 5g2+    1 5g0
                                   1 5g4+    1 5g2+    1 5g0     1 5g4+    1 5g2+

   1.1  2.00000   -12.166200     0.000000 -0.000000  0.000000 -0.000000  0.000000 -0.000000  0.000001 -0.000002  0.000006 -0.000016
                                 0.000040 -0.000096  0.000223 -0.000502  0.001079 -0.002237  0.004270 -0.006954  0.008146 -0.040308
                                 0.105287  0.399167 -1.762086  1.297668  0.786600 -0.098451  0.077266 -0.055261  0.038997 -0.030092
                                 0.009621  0.000000  0.000000  0.000000  0.000000  0.000000  0.000000  0.000000  0.000000  0.000000
                                 0.000000  0.000000  0.000000  0.000000  0.000000  0.000000  0.000000  0.000000  0.000000  0.000000
                                 0.000000  0.000000  0.000000  0.000000  0.000000  0.000000  0.000000  0.000000  0.000000  0.000000
                                 0.000000  0.000000  0.000000  0.000000  0.000000  0.000000  0.000000  0.000000  0.000000  0.000000
                                 0.000000  0.000000  0.000000  0.000000  0.000000  0.000000  0.000000  0.000000  0.000000  0.000000
                                 0.000000  0.000000  0.000000  0.000000  0.000000

   2.1  2.00000    -6.406095     0.000000 -0.000000  0.000000 -0.000000  0.000000 -0.000000  0.000001 -0.000003  0.000007 -0.000017
                                 0.000042 -0.000102  0.000238 -0.000535  0.001151 -0.002389  0.004569 -0.007462  0.008775 -0.045358
                                 0.154631  0.283546 -2.025447  2.715391  0.657416 -2.325232  0.522741 -0.390318  0.273675 -0.210517
                                 0.067172  0.000000  0.000000  0.000000  0.000000  0.000000  0.000000  0.000000  0.000000  0.000000
                                 0.000000  0.000000  0.000000  0.000000  0.000000  0.000000  0.000000  0.000000  0.000000  0.000000
                                 0.000000  0.000000  0.000000  0.000000  0.000000  0.000000  0.000000  0.000000  0.000000  0.000000
                                 0.000000  0.000000  0.000000  0.000000  0.000000  0.000000  0.000000  0.000000  0.000000  0.000000
                                 0.000000  0.000000  0.000000  0.000000  0.000000  0.000000  0.000000  0.000000  0.000000  0.000000
                                 0.000000  0.000000  0.000000  0.000000  0.000000

   3.1  0.20000    -8.429727     0.000000  0.000000  0.000000  0.000000  0.000000  0.000000  0.000000  0.000000  0.000000  0.000000
                                 0.000000  0.000000  0.000000  0.000000  0.000000  0.000000  0.000000  0.000000  0.000000  0.000000
                                 0.000000  0.000000  0.000000  0.000000  0.000000  0.000000  0.000000  0.000000  0.000000  0.000000
                                 0.000000 -0.000001  0.000000  0.000012  0.000000 -0.000067  0.000000  0.000280  0.000000 -0.000973
                                 0.000000  0.002910  0.000000 -0.007648  0.000000  0.017884  0.000000 -0.037466  0.000000  0.074288
                                 0.000000 -0.160975  0.000000  0.158445  0.000000  0.905068  0.000000  0.037778  0.000000  0.013436
                                 0.000000 -0.041064  0.000000  0.047539  0.000000 -0.015809  0.000000  0.000000  0.000000  0.000000
                                 0.000000  0.000000  0.000000  0.000000  0.000000  0.000000  0.000000  0.000000  0.000000  0.000000
                                 0.000000  0.000000  0.000000  0.000000  0.000000

   4.1  0.20000    -8.429727     0.000000  0.000000  0.000000  0.000000  0.000000  0.000000  0.000000  0.000000  0.000000  0.000000
                                 0.000000  0.000000  0.000000  0.000000  0.000000  0.000000  0.000000  0.000000  0.000000  0.000000
                                 0.000000  0.000000  0.000000  0.000000  0.000000  0.000000  0.000000  0.000000  0.000000  0.000000
                                 0.000000  0.000000 -0.000001  0.000000  0.000012  0.000000 -0.000067  0.000000  0.000280  0.000000
                                -0.000973  0.000000  0.002910  0.000000 -0.007648  0.000000  0.017884  0.000000 -0.037466  0.000000
                                 0.074288  0.000000 -0.160975  0.000000  0.158445  0.000000  0.905068  0.000000  0.037778  0.000000
                                 0.013436  0.000000 -0.041064  0.000000  0.047539  0.000000 -0.015809  0.000000  0.000000  0.000000
                                 0.000000  0.000000  0.000000  0.000000  0.000000  0.000000  0.000000  0.000000  0.000000  0.000000
                                 0.000000  0.000000  0.000000  0.000000  0.000000

                                   1 2px     1 2px     1 2px     1 2px     1 2px     1 2px     1 2px     1 2px     1 2px     1 2px
                                   1 2px     1 2px     1 2px     1 2px     1 2px     1 2px     1 2px     1 2px     1 2px     1 2px
                                   1 2px     1 2px     1 2px     1 2px     1 2px     1 2px     1 2px     1 4f1+    1 4f3+    1 4f1+
                                   1 4f3+    1 4f1+    1 4f3+    1 4f1+    1 4f3+    1 4f1+    1 4f3+    1 4f1+    1 4f3+    1 4f1+
                                   1 4f3+    1 4f1+    1 4f3+    1 4f1+    1 4f3+    1 4f1+    1 4f3+    1 4f1+    1 4f3+    1 4f1+
                                   1 4f3+    1 4f1+    1 4f3+    1 6h1+    1 6h3+    1 6h5+    1 6h1+    1 6h3+    1 6h5+    1 6h1+
                                   1 6h3+    1 6h5+

   1.2  2.00000   -19.700282     0.000000  0.000000  0.000000  0.000000  0.000000  0.000000  0.000000  0.000000  0.000000  0.000000
                                 0.000000  0.000000  0.000000  0.000000  0.000000  0.000000  0.000000  0.000000  0.000000  0.000000
                                 0.000000  0.000000  0.000000  0.000000  0.000000  0.000000  0.000000  0.000000  0.000067  0.000000
                                -0.000451  0.000000  0.002051  0.000000 -0.007208  0.000000  0.121816  0.000000  0.403094  0.000000
                                 0.446723  0.000000  0.214892  0.000000 -0.011632  0.000000  0.006309  0.000000 -0.004026  0.000000
                                 0.002961  0.000000 -0.000957  0.000000  0.000000  0.000000  0.000000  0.000000  0.000000  0.000000
                                 0.000000  0.000000

   2.2  2.00000   -19.700282     0.000000  0.000000  0.000000  0.000000  0.000000  0.000000  0.000000  0.000000  0.000000  0.000000
                                 0.000000  0.000000  0.000000  0.000000  0.000000  0.000000  0.000000  0.000000  0.000000  0.000000
                                 0.000000  0.000000  0.000000  0.000000  0.000000  0.000000  0.000000  0.000067  0.000000 -0.000451
                                 0.000000  0.002051  0.000000 -0.007208  0.000000  0.121816  0.000000  0.403094  0.000000  0.446723
                                 0.000000  0.214892  0.000000 -0.011632  0.000000  0.006309  0.000000 -0.004026  0.000000  0.002961
                                 0.000000 -0.000957  0.000000  0.000000  0.000000  0.000000  0.000000  0.000000  0.000000  0.000000
                                 0.000000  0.000000

   3.2  2.00000   -10.543777    -0.000000  0.000000 -0.000000  0.000000 -0.000000  0.000001 -0.000002  0.000009 -0.000031  0.000097
                                -0.000282  0.000776 -0.002083  0.005966 -0.019638  0.126055 -0.255408  0.320621 -0.698909  0.660651
                                 0.996149 -0.410096  0.170976 -0.115471 -0.025298  0.011869  0.110632  0.000000  0.000000  0.000000
                                 0.000000  0.000000  0.000000  0.000000  0.000000  0.000000  0.000000  0.000000  0.000000  0.000000
                                 0.000000  0.000000  0.000000  0.000000  0.000000  0.000000  0.000000  0.000000  0.000000  0.000000
                                 0.000000  0.000000  0.000000  0.000000  0.000000  0.000000  0.000000  0.000000  0.000000  0.000000
                                 0.000000  0.000000

                                   1 2py     1 2py     1 2py     1 2py     1 2py     1 2py     1 2py     1 2py     1 2py     1 2py
                                   1 2py     1 2py     1 2py     1 2py     1 2py     1 2py     1 2py     1 2py     1 2py     1 2py
                                   1 2py     1 2py     1 2py     1 2py     1 2py     1 2py     1 2py     1 4f1-    1 4f3-    1 4f1-
                                   1 4f3-    1 4f1-    1 4f3-    1 4f1-    1 4f3-    1 4f1-    1 4f3-    1 4f1-    1 4f3-    1 4f1-
                                   1 4f3-    1 4f1-    1 4f3-    1 4f1-    1 4f3-    1 4f1-    1 4f3-    1 4f1-    1 4f3-    1 4f1-
                                   1 4f3-    1 4f1-    1 4f3-    1 6h1-    1 6h3-    1 6h5-    1 6h1-    1 6h3-    1 6h5-    1 6h1-
                                   1 6h3-    1 6h5-

   1.3  2.00000   -19.700282     0.000000  0.000000  0.000000  0.000000  0.000000  0.000000  0.000000  0.000000  0.000000  0.000000
                                 0.000000  0.000000  0.000000  0.000000  0.000000  0.000000  0.000000  0.000000  0.000000  0.000000
                                 0.000000  0.000000  0.000000  0.000000  0.000000  0.000000  0.000000  0.000067  0.000000 -0.000451
                                 0.000000  0.002051  0.000000 -0.007208  0.000000  0.121816  0.000000  0.403094  0.000000  0.446723
                                 0.000000  0.214892  0.000000 -0.011632  0.000000  0.006309  0.000000 -0.004026  0.000000  0.002961
                                 0.000000 -0.000957  0.000000  0.000000  0.000000  0.000000  0.000000  0.000000  0.000000  0.000000
                                 0.000000  0.000000

   2.3  2.00000   -19.700282     0.000000  0.000000  0.000000  0.000000  0.000000  0.000000  0.000000  0.000000  0.000000  0.000000
                                 0.000000  0.000000  0.000000  0.000000  0.000000  0.000000  0.000000  0.000000  0.000000  0.000000
                                 0.000000  0.000000  0.000000  0.000000  0.000000  0.000000  0.000000  0.000000  0.000067  0.000000
                                -0.000451  0.000000  0.002051  0.000000 -0.007208  0.000000  0.121816  0.000000  0.403094  0.000000
                                 0.446723  0.000000  0.214892  0.000000 -0.011632  0.000000  0.006309  0.000000 -0.004026  0.000000
                                 0.002961  0.000000 -0.000957  0.000000  0.000000  0.000000  0.000000  0.000000  0.000000  0.000000
                                 0.000000  0.000000

   3.3  2.00000   -10.543777    -0.000000  0.000000 -0.000000  0.000000 -0.000000  0.000001 -0.000002  0.000009 -0.000031  0.000097
                                -0.000282  0.000776 -0.002083  0.005966 -0.019638  0.126055 -0.255408  0.320621 -0.698909  0.660651
                                 0.996149 -0.410096  0.170976 -0.115471 -0.025298  0.011869  0.110632  0.000000  0.000000  0.000000
                                 0.000000  0.000000  0.000000  0.000000  0.000000  0.000000  0.000000  0.000000  0.000000  0.000000
                                 0.000000  0.000000  0.000000  0.000000  0.000000  0.000000  0.000000  0.000000  0.000000  0.000000
                                 0.000000  0.000000  0.000000  0.000000  0.000000  0.000000  0.000000  0.000000  0.000000  0.000000
                                 0.000000  0.000000

                                   1 3d2-    1 3d2-    1 3d2-    1 3d2-    1 3d2-    1 3d2-    1 3d2-    1 3d2-    1 3d2-    1 3d2-
                                   1 3d2-    1 3d2-    1 3d2-    1 3d2-    1 3d2-    1 3d2-    1 3d2-    1 3d2-    1 5g2-    1 5g4-
                                   1 5g2-    1 5g4-    1 5g2-    1 5g4-    1 5g2-    1 5g4-    1 5g2-    1 5g4-    1 5g2-    1 5g4-


   1.4  0.20000    -8.429727    -0.000001  0.000012 -0.000067  0.000280 -0.000973  0.002910 -0.007648  0.017884 -0.037466  0.074288
                                -0.160975  0.158445  0.905068  0.037778  0.013436 -0.041064  0.047539 -0.015809  0.000000  0.000000
                                 0.000000  0.000000  0.000000  0.000000  0.000000  0.000000  0.000000  0.000000  0.000000  0.000000

                                   1 2pz     1 2pz     1 2pz     1 2pz     1 2pz     1 2pz     1 2pz     1 2pz     1 2pz     1 2pz
                                   1 2pz     1 2pz     1 2pz     1 2pz     1 2pz     1 2pz     1 2pz     1 2pz     1 2pz     1 2pz
                                   1 2pz     1 2pz     1 2pz     1 2pz     1 2pz     1 2pz     1 2pz     1 4f0     1 4f2+    1 4f0
                                   1 4f2+    1 4f0     1 4f2+    1 4f0     1 4f2+    1 4f0     1 4f2+    1 4f0     1 4f2+    1 4f0
                                   1 4f2+    1 4f0     1 4f2+    1 4f0     1 4f2+    1 4f0     1 4f2+    1 4f0     1 4f2+    1 4f0
                                   1 4f2+    1 4f0     1 4f2+    1 6h2+    1 6h4+    1 6h0     1 6h2+    1 6h4+    1 6h0     1 6h2+
                                   1 6h4+    1 6h0

   1.5  2.00000   -19.700282     0.000000 -0.000000  0.000000 -0.000000  0.000000 -0.000000  0.000000 -0.000000  0.000000 -0.000000
                                 0.000000 -0.000000  0.000000 -0.000000  0.000000 -0.000000  0.000000 -0.000000  0.000000 -0.000000
                                -0.000000  0.000000 -0.000000  0.000000  0.000000 -0.000000 -0.000000  0.000067  0.000000 -0.000451
                                 0.000000  0.002051  0.000000 -0.007208  0.000000  0.121816  0.000000  0.403094  0.000000  0.446723
                                 0.000000  0.214892  0.000000 -0.011632  0.000000  0.006309  0.000000 -0.004026  0.000000  0.002961
                                 0.000000 -0.000957  0.000000  0.000000  0.000000  0.000000  0.000000  0.000000  0.000000  0.000000
                                 0.000000  0.000000

   2.5  2.00000   -19.700282     0.000000  0.000000  0.000000  0.000000  0.000000  0.000000  0.000000  0.000000  0.000000  0.000000
                                 0.000000  0.000000  0.000000  0.000000  0.000000  0.000000  0.000000  0.000000  0.000000  0.000000
                                 0.000000  0.000000  0.000000  0.000000  0.000000  0.000000  0.000000  0.000000  0.000067  0.000000
                                -0.000451  0.000000  0.002051  0.000000 -0.007208  0.000000  0.121816  0.000000  0.403094  0.000000
                                 0.446723  0.000000  0.214892  0.000000 -0.011632  0.000000  0.006309  0.000000 -0.004026  0.000000
                                 0.002961  0.000000 -0.000957  0.000000  0.000000  0.000000  0.000000  0.000000  0.000000  0.000000
                                 0.000000  0.000000

   3.5  2.00000   -10.543777    -0.000000  0.000000 -0.000000  0.000000 -0.000000  0.000001 -0.000002  0.000009 -0.000031  0.000097
                                -0.000282  0.000776 -0.002083  0.005966 -0.019638  0.126055 -0.255408  0.320621 -0.698909  0.660651
                                 0.996149 -0.410096  0.170976 -0.115471 -0.025298  0.011869  0.110632  0.000000  0.000000  0.000000
                                 0.000000  0.000000  0.000000  0.000000  0.000000  0.000000  0.000000  0.000000  0.000000  0.000000
                                 0.000000  0.000000  0.000000  0.000000  0.000000  0.000000  0.000000  0.000000  0.000000  0.000000
                                 0.000000  0.000000  0.000000  0.000000  0.000000  0.000000  0.000000  0.000000  0.000000  0.000000
                                 0.000000  0.000000

                                   1 3d1+    1 3d1+    1 3d1+    1 3d1+    1 3d1+    1 3d1+    1 3d1+    1 3d1+    1 3d1+    1 3d1+
                                   1 3d1+    1 3d1+    1 3d1+    1 3d1+    1 3d1+    1 3d1+    1 3d1+    1 3d1+    1 5g1+    1 5g3+
                                   1 5g1+    1 5g3+    1 5g1+    1 5g3+    1 5g1+    1 5g3+    1 5g1+    1 5g3+    1 5g1+    1 5g3+


   1.6  0.20000    -8.429727    -0.000001  0.000012 -0.000067  0.000280 -0.000973  0.002910 -0.007648  0.017884 -0.037466  0.074288
                                -0.160975  0.158445  0.905068  0.037778  0.013436 -0.041064  0.047539 -0.015809  0.000000  0.000000
                                 0.000000  0.000000  0.000000  0.000000  0.000000  0.000000  0.000000  0.000000  0.000000  0.000000

                                   1 3d1-    1 3d1-    1 3d1-    1 3d1-    1 3d1-    1 3d1-    1 3d1-    1 3d1-    1 3d1-    1 3d1-
                                   1 3d1-    1 3d1-    1 3d1-    1 3d1-    1 3d1-    1 3d1-    1 3d1-    1 3d1-    1 5g1-    1 5g3-
                                   1 5g1-    1 5g3-    1 5g1-    1 5g3-    1 5g1-    1 5g3-    1 5g1-    1 5g3-    1 5g1-    1 5g3-


   1.7  0.20000    -8.429727    -0.000001  0.000012 -0.000067  0.000280 -0.000973  0.002910 -0.007648  0.017884 -0.037466  0.074288
                                -0.160975  0.158445  0.905068  0.037778  0.013436 -0.041064  0.047539 -0.015809  0.000000  0.000000
                                 0.000000  0.000000  0.000000  0.000000  0.000000  0.000000  0.000000  0.000000  0.000000  0.000000

                                   1 4f2-    1 4f2-    1 4f2-    1 4f2-    1 4f2-    1 4f2-    1 4f2-    1 4f2-    1 4f2-    1 4f2-
                                   1 4f2-    1 4f2-    1 4f2-    1 6h4-    1 6h2-    1 6h4-    1 6h2-    1 6h4-    1 6h2-

   1.8  2.00000   -19.700282     0.000067 -0.000451  0.002051 -0.007208  0.121816  0.403094  0.446723  0.214892 -0.011632  0.006309
                                -0.004026  0.002961 -0.000957  0.000000  0.000000  0.000000  0.000000  0.000000  0.000000


 EXTRA SYMMETRY OF MOS IN SYMMETRY 1:   1 1 2 3 3 2 1 2 3 1   2 3 1 2 3 1 2 3 1 2   3 1 4 5 6 6 4 5 6 4   5 6 4 5 1 2 3 4 5 6
                                        3 2 1 6 4 5 2 3 1 1   3 2 1 3 2 1 3 2 1 3   2 1 1 3 2 1 3 2 1 2   3 1 1 2 3 1 1 1 1 1
                                        1 1 1 1 1
 EXTRA SYMMETRY OF MOS IN SYMMETRY 2:   3 2 1 2 3 3 2 3 2 1   3 2 1 2 3 1 3 2 1 1   1 6 5 4 1 3 2 5 4 6   1 6 5 4 1 3 2 1 1 3
                                        2 1 1 2 3 1 3 2 1 1   2 3 1 1 1 1 1 1 1 1   1 1
 EXTRA SYMMETRY OF MOS IN SYMMETRY 3:   2 3 1 3 2 2 3 2 3 1   2 3 1 2 3 1 2 3 1 1   1 6 4 5 1 2 3 4 6 5   1 6 5 4 1 3 2 1 1 3
                                        2 1 1 2 3 1 2 3 1 1   3 2 1 1 1 1 1 1 1 1   1 1
 EXTRA SYMMETRY OF MOS IN SYMMETRY 4:   1 1 1 1 1 1 1 3 2 2   3 3 2 3 2 1 3 2 1 3   2 1 1 1 1 1 1 1 1 1
 EXTRA SYMMETRY OF MOS IN SYMMETRY 5:   2 3 1 3 2 3 2 2 3 1   2 3 1 2 3 1 3 2 1 1   1 6 4 5 1 2 3 4 6 5   1 6 4 5 1 3 2 1 1 3
                                        2 1 1 3 2 1 3 2 1 1   2 3 1 1 1 1 1 1 1 1   1 1
 EXTRA SYMMETRY OF MOS IN SYMMETRY 6:   1 1 1 1 1 1 1 2 3 2   3 3 2 2 3 1 2 3 1 2   3 1 1 1 1 1 1 1 1 1
 EXTRA SYMMETRY OF MOS IN SYMMETRY 7:   1 1 1 1 1 1 1 3 2 3   2 2 3 2 3 1 2 3 1 2   3 1 1 1 1 1 1 1 1 1
 EXTRA SYMMETRY OF MOS IN SYMMETRY 8:   1 1 1 1 1 1 1 3 2 1   3 2 2 3 1 1 1 1 1

 Natural orbital dump (state averaged) at molpro section  5202.2    (Orbital set 2)


 CI vector for state symmetry 1
 ==============================

 0a 0 0 0          0.0000000   1.0000000
 a0 0 0 0          1.0000000   0.0000000

 TOTAL ENERGIES                      -421.17006956  -421.17006956

 CI vector for state symmetry 2
 ==============================

 00 a 0 0          1.0000000

 TOTAL ENERGIES                      -421.17006956

 CI vector for state symmetry 3
 ==============================

 00 0 a 0          1.0000000

 TOTAL ENERGIES                      -421.17006956

 CI vector for state symmetry 4
 ==============================

 00 0 0 a          1.0000000

 TOTAL ENERGIES                      -421.17006956



 **********************************************************************************************************************************
 DATASETS  * FILE   NREC   LENGTH (MB)   RECORD NAMES
              1      20       55.42       500      610      700      900      950      970     1000      129      960     1100
                                          VAR    BASINP    GEOM    SYMINP    ZMAT    AOBASIS   BASIS     P2S    ABASIS      S
                                         1400     1410     1420     1200     1210     1080     1600     1650     1700     1380
                                           T        V       ECP      H0       H01     AOSYM     SMH    MOLCAS    OPER     JKOP

              2       6        9.31       200      700     1000      520     4202     5202
                                        OPTIONS   GEOM     BASIS   MCVARS     RHF     MCSCF

 PROGRAMS   *        TOTAL     MULTI       POP       RHF       INT
 CPU TIMES  *        63.50      3.77      0.01      1.61     56.79
 REAL TIME  *        67.76 SEC
 DISK USED  *         3.10 GB
 SF USED    *       122.40 MB
 GA USED    *         0.00 MB       (max)       0.00 MB       (current)
 **********************************************************************************************************************************
   -->
   <time start="12:16:35" end="12:16:39" cpu="3.8" system="0.32" real="4.21"/>
   <storage units="megabyte" memory="8001.84" sf="122.4" df="332.82" eaf="2770.82" ga="0.0"/>
  </jobstep><!--
  --><jobstep command="RHF-SCF" commandset="SCFPRO">
   <!--


 PROGRAM * RHF-SCF (OPEN SHELL)       Authors: W. Meyer, H.-J. Werner


 NUMBER OF ELECTRONS:      13+   12-    SPACE SYMMETRY=1    SPIN SYMMETRY: Doublet
 CONVERGENCE THRESHOLDS:    1.00E-05 (Density)    1.00E-07 (Energy)
 MAX. NUMBER OF ITERATIONS:        0
 INTERPOLATION TYPE:            DIIS
 INTERPOLATION STEPS:              2 (START)      1 (STEP)
 LEVEL SHIFTS:                 -0.60 (CLOSED) -0.30 (OPEN)

 Number of closed-shell orbitals:   12 (   2   3   3   0   3   0   0   1 )
 Number of open-shell orbitals:      1 (   1   0   0   0   0   0   0   0 )


 Molecular orbitals read from record     5202.2  Type=MCSCF/NATURAL (state averaged)

 Molecular orbital dump at record        2101.2

 ITERATION    DDIFF          GRAD             ENERGY        2-EL.EN.            DIPOLE MOMENTS         DIIS   ORB.
    1      0.000D+00      0.000D+00      -421.17006956     73.058291    0.00000    0.00000    0.00000    0    start

 Final alpha occupancy:   3   3   3   0   3   0   0   1
 Final beta  occupancy:   2   3   3   0   3   0   0   1

 !RHF STATE 1.1 Energy               -421.170069560377
   --><property name="Energy" method="RHF" principal="true" stateSymmetry="1" stateNumber="1"
     value="-421.170069560377"/><!--
 Nuclear energy                         0.00000000
 One-electron energy                 -457.69921521
 Two-electron energy                   36.52914565
 Virial quotient                       -1.21180435
 !RHF STATE 1.1 Dipole moment           0.00000000     0.00000000     0.00000000
 Dipole moment /Debye                   0.00000000     0.00000000     0.00000000
   --><property name="Dipole moment" method="RHF" principal="true" stateSymmetry="1"
     stateNumber="1" value="0.0 0.0 0.0"/><!--

 Orbital energies:

         1.1          2.1          3.1          4.1          5.1
    -12.166200    -6.406095    -8.429727    -8.429727    -4.964769

         1.2          2.2          3.2          4.2          5.2
    -19.700282   -19.700282   -10.543777   -12.688733   -12.688733

         1.3          2.3          3.3          4.3          5.3
    -19.700282   -19.700282   -10.543777   -12.688733   -12.688733

         1.4          2.4
     -8.429727    -4.964769

         1.5          2.5          3.5          4.5          5.5
    -19.700282   -19.700282   -10.543777   -12.688733   -12.688733

         1.6          2.6
     -8.429727    -4.964769

         1.7          2.7
     -8.429727    -4.964769

         1.8          2.8          3.8
    -19.700282   -12.688733    -8.709733

 HOMO      3.1    -8.429727 =    -229.3846eV
 LUMO      4.2   -12.688733 =    -345.2780eV
 LUMO-HOMO        -4.259006 =    -115.8935eV


 **********************************************************************************************************************************
 DATASETS  * FILE   NREC   LENGTH (MB)   RECORD NAMES
              1      20       55.42       500      610      700      900      950      970     1000      129      960     1100
                                          VAR    BASINP    GEOM    SYMINP    ZMAT    AOBASIS   BASIS     P2S    ABASIS      S
                                         1400     1410     1420     1200     1210     1080     1600     1650     1700     1380
                                           T        V       ECP      H0       H01     AOSYM     SMH    MOLCAS    OPER     JKOP

              2       7       12.96       200      700     1000      520     4202     5202     2101
                                        OPTIONS   GEOM     BASIS   MCVARS     RHF     MCSCF     RHF

 PROGRAMS   *        TOTAL       RHF     MULTI       POP       RHF       INT
 CPU TIMES  *        63.64      0.12      3.77      0.01      1.61     56.79
 REAL TIME  *        67.93 SEC
 DISK USED  *         3.10 GB
 SF USED    *       122.40 MB
 GA USED    *         0.00 MB       (max)       0.00 MB       (current)
 **********************************************************************************************************************************
   -->
   <time start="12:16:39" end="12:16:39" cpu="0.14" system="0.02" real="0.17"/>
   <storage units="megabyte" memory="8001.84" sf="122.4" df="332.82" eaf="2770.82" ga="0.0"/>
  </jobstep><!--
 SETTING SCF(1)         =      -421.17006956  AU
 SETTING _CC_NORM_MAX   =         2.00000000
  --><jobstep command="RCCSD(T)" commandset="CCSD">
   <!--


 PROGRAM * CCSD (Restricted open-shell coupled cluster)     Authors: C. Hampel, H.-J. Werner, 1991, M. Deegan, P.J. Knowles, 1992


 Convergence thresholds:  THRVAR = 1.00D-08  THRDEN = 1.00D-06

 CCSD(T)     terms to be evaluated (factor= 1.000)


 Number of closed-shell orbitals:  12 (   2   3   3   0   3   0   0   1 )
 Number of active  orbitals:        1 (   1   0   0   0   0   0   0   0 )
 Number of external orbitals:     367 (  82  59  59  30  59  30  30  18 )

 Memory could be reduced to 138.78 Mwords without degradation in triples

 Number of N-1 electron functions:              25
 Number of N-2 electron functions:             300
 Number of singly external CSFs:              1513
 Number of doubly external CSFs:           3939455
 Total number of CSFs:                     3940968

 Molecular orbitals read from record     2101.2  Type=RHF/CANONICAL (state 1.1)

 Integral transformation finished. Total CPU:   3.52 sec, npass=  1  Memory used:  26.24 MW

 Starting RMP2 calculation

 Wavefunction is spin-projected

 ITER.      SQ.NORM     CORR.ENERGY   TOTAL ENERGY   ENERGY CHANGE        DEN1      VAR(S)    VAR(P)  DIIS     TIME
   1     10.37127272    -0.66788341  -421.83795297    -0.66788341     1.09236277  0.24D-04  0.13D+02  1  1     5.06
   2    366.64557180     0.42447936  -420.74559020     1.09236277    40.44781011  0.16D-05  0.49D+03  1  0     5.35

 UNREASONABLE NORM:366.645572 CALCULATION WILL BE STOPPED

 The threshold can be changed using option CC_NORM_MAX (see manual). The current value is CC_NORM_MAX=2.00

 Norm of t1 vector:      0.02797978      S-energy:    -0.00245431      T1 diagnostic:  0.00387257
 Norm of t2 vector:     19.12184063      P-energy:     0.42693367
                                         Alpha-Beta:   0.60856326
                                         Alpha-Alpha: -0.08575826
                                         Beta-Beta:   -0.09587133

 Spin contamination <S**2-Sz**2-Sz>     0.00000000


 RESULTS
 =======

  Reference energy                   -421.170069560377
   --><property name="energy" method="Reference" stateSymmetry="1" stateNumber="1"
     value="-421.170069560377"/><!--
  RCCSD singles energy                 -0.002454311221
   --><property name="energy" method="RCCSD singles" stateSymmetry="1" stateNumber="1"
     value="-0.245431122141382E-02"/><!--
  RCCSD pair energy                     0.426933669675
   --><property name="energy" method="RCCSD pair" stateSymmetry="1" stateNumber="1"
     value="0.426933669674801"/><!--
  RCCSD correlation energy              0.424479358453
   --><property name="energy" method="RCCSD correlation" stateSymmetry="1" stateNumber="1"
     value="0.424479358453387"/><!--

 !RHF-RCCSD energy                   -420.745590201924
   --><property name="energy" method="RHF-RCCSD" principal="true" stateSymmetry="1"
     stateNumber="1" value="-420.745590201924"/><!--

 Program statistics:

 Available memory in ccsd:               999998418
 Min. memory needed in ccsd:              10940444
 Max. memory used in ccsd:                15863000
 Max. memory used in cckext:                     0 ( 0 integral passes)
 Max. memory used in cckint:              26243665 ( 1 integral passes)


 ? Error
 ? No convergence. This error exit can be avoided using the NOCHECK option
 ? The problem occurs in ccsd
   --><error type="Error" location="ccsd"
     message="No convergence. This error exit can be avoided using the NOCHECK option"/><!--
  --></jobstep><!--
  -->
  <input>
  <!--
 --></job><!--
--></molpro>
