<?xml version="1.0"?>
<molpro xmlns="http://www.molpro.net/schema/molpro-output"
  xmlns:xsd="http://www.w3.org/1999/XMLSchema"
  xmlns:cml="http://www.xml-cml.org/schema"
  xmlns:stm="http://www.xml-cml.org/schema"
  xmlns:xhtml="http://www.w3.org/1999/xhtml">
 <!--

 Nodes     nprocs
 nid01071    11
 Number of processes for MPI-2 version of Molpro:   nprocs(total)=   12   nprocs(compute)=   11   nprocs(helper)=    1

 Using customized tuning parameters: mindgm=7; mindgv=16; mindgc=1; mindgr=1; noblas=0; minvec=7
 default implementation of scratch files=sf

 --><job>
  <!--

 Variables initialized (889), CPU time= 0.02 sec
 Commands  initialized (702), CPU time= 0.01 sec, 572 directives.
 Default parameters read. Elapsed time= 0.11 sec

 Checking input...
 Passed
1


                                         ***  PROGRAM SYSTEM MOLPRO  ***
                                       Copyright, TTI GmbH Stuttgart, 2015
                                    Version 2015.1 linked Dec 29 2018 15:55:43


 **********************************************************************************************************************************
 LABEL *   Calculation for Lu atom, singlet and triplet
  64 bit mpp version                                                                     DATE: 12-May-23          TIME: 14:14:23
 **********************************************************************************************************************************

 SHA1:             19cd028119e0e09f93f0674bd8af7968d9b3eff6
 **********************************************************************************************************************************
  -->
  <!--

 THRESHOLDS:

 ZERO    =  1.00D-12  ONEINT  =  1.00D-12  TWOINT  =  1.00D-15  PREFAC  =  1.00D-14  LOCALI  =  1.00D-09  EORDER  =  1.00D-04
 ENERGY  =  0.00D+00  ETEST   =  0.00D+00  EDENS   =  0.00D+00  THRDEDEF=  1.00D-06  GRADIENT=  1.00D-02  STEP    =  1.00D-03
 ORBITAL =  1.00D-05  CIVEC   =  1.00D-05  COEFF   =  1.00D-04  PRINTCI =  5.00D-02  PUNCHCI =  9.90D+01  OPTGRAD =  3.00D-04
 OPTENERG=  1.00D-06  OPTSTEP =  3.00D-04  THRGRAD =  1.00D-10  COMPRESS=  1.00D-11  VARMIN  =  1.00D-07  VARMAX  =  1.00D-03
 THRDOUB =  0.00D+00  THRDIV  =  1.00D-05  THRRED  =  1.00D-07  THRPSP  =  1.00D+00  THRDC   =  1.00D-10  THRCS   =  1.00D-10
 THRNRM  =  1.00D-08  THREQ   =  0.00D+00  THRDE   =  1.00D+00  THRREF  =  1.00D-05  SPARFAC =  1.00D+00  THRDLP  =  1.00D-07
 THRDIA  =  1.00D-10  THRDLS  =  1.00D-07  THRGPS  =  0.00D+00  THRKEX  =  0.00D+00  THRDIS  =  2.00D-01  THRVAR  =  1.00D-10
 THRLOC  =  1.00D-06  THRGAP  =  1.00D-06  THRLOCT = -1.00D+00  THRGAPT = -1.00D+00  THRORB  =  1.00D-06  THRMLTP =  0.00D+00
 THRCPQCI=  1.00D-10  KEXTA   =  0.00D+00  THRCOARS=  0.00D+00  SYMTOL  =  1.00D-06  GRADTOL =  1.00D-06  THROVL  =  1.00D-08
 THRORTH =  1.00D-08  GRID    =  1.00D-06  GRIDMAX =  1.00D-03  DTMAX   =  0.00D+00  THROCCDE=  1.00D-01  THROCCDE=  1.00D-01



 THRESHOLDS:

 ZERO    =  1.00D-12  ONEINT  =  1.00D-15  TWOINT  =  1.00D-15  PREFAC  =  1.00D-14  LOCALI  =  1.00D-09  EORDER  =  1.00D-04
 ENERGY  =  0.00D+00  ETEST   =  0.00D+00  EDENS   =  0.00D+00  THRDEDEF=  1.00D-06  GRADIENT=  1.00D-02  STEP    =  1.00D-03
 ORBITAL =  1.00D-05  CIVEC   =  1.00D-05  COEFF   =  1.00D-04  PRINTCI =  5.00D-02  PUNCHCI =  9.90D+01  OPTGRAD =  3.00D-04
 OPTENERG=  1.00D-06  OPTSTEP =  3.00D-04  THRGRAD =  1.00D-10  COMPRESS=  1.00D-11  VARMIN  =  1.00D-07  VARMAX  =  1.00D-03
 THRDOUB =  0.00D+00  THRDIV  =  1.00D-05  THRRED  =  1.00D-07  THRPSP  =  1.00D+00  THRDC   =  1.00D-10  THRCS   =  1.00D-10
 THRNRM  =  1.00D-08  THREQ   =  0.00D+00  THRDE   =  1.00D+00  THRREF  =  1.00D-05  SPARFAC =  1.00D+00  THRDLP  =  1.00D-07
 THRDIA  =  1.00D-10  THRDLS  =  1.00D-07  THRGPS  =  0.00D+00  THRKEX  =  0.00D+00  THRDIS  =  2.00D-01  THRVAR  =  1.00D-10
 THRLOC  =  1.00D-06  THRGAP  =  1.00D-06  THRLOCT = -1.00D+00  THRGAPT = -1.00D+00  THRORB  =  1.00D-06  THRMLTP =  0.00D+00
 THRCPQCI=  1.00D-10  KEXTA   =  0.00D+00  THRCOARS=  0.00D+00  SYMTOL  =  1.00D-06  GRADTOL =  1.00D-06  THROVL  =  1.00D-08
 THRORTH =  1.00D-08  GRID    =  1.00D-06  GRIDMAX =  1.00D-03  DTMAX   =  0.00D+00  THROCCDE=  1.00D-01  THROCCDE=  1.00D-01



Geometry recognized as XYZ


 Variable memory set to 1000000000 words,  buffer space   230000 words

 SETTING BASIS          =    USERDEF

 DO I                   =         1.00000000

 Running procedure=ID1S2
  --><jobstep command="RHF-SCF" commandset="SCFPRO">
   <!--


 Recomputing integrals since basis changed


 Using spherical harmonics



 PROGRAM * SEWARD (Integral evaluation for generally contracted gaussian basis sets)     Author: Roland Lindh, 1990

 Geometry written to block  1 of record 700

 Orientation using atomic masses
 Molecule type: Atom
 Symmetry elements: X,Y,Z
 Rotational constants:       0.0000000      0.0000000      0.0000000 GHz  (calculated with average atomic masses)

 Point group  D2h


   --><cml:molecule>
    <cml:symmetry pointGroup="D2h"/>
    <cml:atomArray>
     <cml:atom id="a1" elementType="Lu" x3="0.0" y3="0.0" z3="0.0"/>
    </cml:atomArray>
    <cml:bondArray>
    </cml:bondArray>
   </cml:molecule><!--

 ATOMIC COORDINATES

 NR  ATOM    CHARGE       X              Y              Z

   1  LU     11.00    0.000000000    0.000000000    0.000000000

 NUCLEAR CHARGE:                   11
 NUMBER OF PRIMITIVE AOS:         503
 NUMBER OF SYMMETRY AOS:          380
 NUMBER OF CONTRACTIONS:          380   (  85Ag  +  62B3u +  62B2u +  30B1g +  62B1u +  30B2g +  30B3g +  19Au  )
 NUMBER OF CORE ORBITALS:           0   (   0Ag  +   0B3u +   0B2u +   0B1g +   0B1u +   0B2g +   0B3g +   0Au  )
 NUMBER OF VALENCE ORBITALS:       10   (   4Ag  +   1B3u +   1B2u +   1B1g +   1B1u +   1B2g +   1B3g +   0Au  )


 NUCLEAR REPULSION ENERGY    0.00000000

 EXTRA SYMMETRY OF AOS IN SYMMETRY 1:   1 1 1 1 1 1 1 1 1 1   1 1 1 1 1 1 1 1 1 1   1 1 1 1 1 1 1 1 1 1   1 2 3 2 3 2 3 2 3 2
                                        3 2 3 2 3 2 3 2 3 2   3 2 3 2 3 2 3 2 3 2   3 2 3 2 3 2 3 4 5 6   4 5 6 4 5 6 4 5 6 4
                                        5 6 4 5 6
 EXTRA SYMMETRY OF AOS IN SYMMETRY 2:   1 1 1 1 1 1 1 1 1 1   1 1 1 1 1 1 1 1 1 1   1 1 1 1 1 1 1 2 3 2   3 2 3 2 3 2 3 2 3 2
                                        3 2 3 2 3 2 3 2 3 2   3 2 3 4 5 6 4 5 6 4   5 6
 EXTRA SYMMETRY OF AOS IN SYMMETRY 3:   1 1 1 1 1 1 1 1 1 1   1 1 1 1 1 1 1 1 1 1   1 1 1 1 1 1 1 2 3 2   3 2 3 2 3 2 3 2 3 2
                                        3 2 3 2 3 2 3 2 3 2   3 2 3 4 5 6 4 5 6 4   5 6
 EXTRA SYMMETRY OF AOS IN SYMMETRY 4:   1 1 1 1 1 1 1 1 1 1   1 1 1 1 1 1 1 1 2 3   2 3 2 3 2 3 2 3 2 3
 EXTRA SYMMETRY OF AOS IN SYMMETRY 5:   1 1 1 1 1 1 1 1 1 1   1 1 1 1 1 1 1 1 1 1   1 1 1 1 1 1 1 2 3 2   3 2 3 2 3 2 3 2 3 2
                                        3 2 3 2 3 2 3 2 3 2   3 2 3 4 5 6 4 5 6 4   5 6
 EXTRA SYMMETRY OF AOS IN SYMMETRY 6:   1 1 1 1 1 1 1 1 1 1   1 1 1 1 1 1 1 1 2 3   2 3 2 3 2 3 2 3 2 3
 EXTRA SYMMETRY OF AOS IN SYMMETRY 7:   1 1 1 1 1 1 1 1 1 1   1 1 1 1 1 1 1 1 2 3   2 3 2 3 2 3 2 3 2 3
 EXTRA SYMMETRY OF AOS IN SYMMETRY 8:   1 1 1 1 1 1 1 1 1 1   1 1 1 2 3 2 3 2 3

 Eigenvalues of metric

         1 0.433E-04 0.526E-04 0.113E-03 0.205E-03 0.387E-03 0.579E-03 0.702E-03 0.702E-03
         2 0.122E-04 0.207E-04 0.110E-03 0.494E-03 0.158E-02 0.385E-02 0.728E-02 0.144E-01
         3 0.122E-04 0.207E-04 0.110E-03 0.494E-03 0.158E-02 0.385E-02 0.728E-02 0.144E-01
         4 0.702E-03 0.220E-02 0.838E-02 0.215E-01 0.345E-01 0.566E-01 0.104E+00 0.174E+00
         5 0.122E-04 0.207E-04 0.110E-03 0.494E-03 0.158E-02 0.385E-02 0.728E-02 0.144E-01
         6 0.702E-03 0.220E-02 0.838E-02 0.215E-01 0.345E-01 0.566E-01 0.104E+00 0.174E+00
         7 0.702E-03 0.220E-02 0.838E-02 0.215E-01 0.345E-01 0.566E-01 0.104E+00 0.174E+00
         8 0.144E-01 0.330E-01 0.524E-01 0.114E+00 0.217E+00 0.268E+00 0.268E+00 0.366E+00


 Contracted 2-electron integrals neglected if value below      1.0D-15
 AO integral compression algorithm  1   Integral accuracy      1.0D-15

     1959.002 MB (compressed) written to integral file ( 43.0%)

     Node minimum: 94.896 MB, node maximum: 258.998 MB


 NUMBER OF SORTED TWO-ELECTRON INTEGRALS:   30459995.     BUFFER LENGTH:  32768
 NUMBER OF SEGMENTS:   1  SEGMENT LENGTH:   30459995      RECORD LENGTH: 524288

 Memory used in sort:      31.02 MW

 SORT1 READ   568811974. AND WROTE    17265387. INTEGRALS IN     50 RECORDS. CPU TIME:    15.87 SEC, REAL TIME:    18.84 SEC
 SORT2 READ   190908661. AND WROTE   335703620. INTEGRALS IN  10120 RECORDS. CPU TIME:     1.86 SEC, REAL TIME:     2.64 SEC

 Node minimum:    30394465.  Node maximum:    30635607. integrals

 OPERATOR DM      FOR CENTER  0  COORDINATES:    0.000000    0.000000    0.000000


 **********************************************************************************************************************************
 DATASETS  * FILE   NREC   LENGTH (MB)   RECORD NAMES
              1      19       20.90       500      610      700      900      950      970     1000      129      960     1100
                                          VAR    BASINP    GEOM    SYMINP    ZMAT    AOBASIS   BASIS     P2S    ABASIS      S
                                         1400     1410     1420     1200     1210     1080     1600     1650     1700
                                           T        V       ECP      H0       H01     AOSYM     SMH    MOLCAS    OPER

 PROGRAMS   *        TOTAL       INT
 CPU TIMES  *        69.64     69.15
 REAL TIME  *        75.03 SEC
 DISK USED  *         4.27 GB
 GA USED    *         0.00 MB       (max)       0.00 MB       (current)
 **********************************************************************************************************************************


 PROGRAM * RHF-SCF (OPEN SHELL)       Authors: W. Meyer, H.-J. Werner


 NUMBER OF ELECTRONS:       6+    5-    SPACE SYMMETRY=1    SPIN SYMMETRY: Doublet
 CONVERGENCE THRESHOLDS:    1.00E-05 (Density)    1.00E-07 (Energy)
 MAX. NUMBER OF ITERATIONS:       60
 INTERPOLATION TYPE:            DIIS
 INTERPOLATION STEPS:              2 (START)      1 (STEP)
 LEVEL SHIFTS:                 -0.60 (CLOSED) -0.30 (OPEN)

 Number of closed-shell orbitals:    5 (   2   1   1   0   1   0   0   0 )
 Number of open-shell orbitals:      1 (   1   0   0   0   0   0   0   0 )



 Extra symmetries of mos in symmetry 1:   1   1   3   2
 Orbital guess generated from atomic densities. Full valence occupancy:    4   1   1   1   1   1   1   0


 Molecular orbital dump at record        4202.2

 ITERATION    DDIFF          GRAD             ENERGY        2-EL.EN.            DIPOLE MOMENTS         DIIS   ORB.
    1      0.000D+00      0.000D+00      -102.21439563    114.477163    0.00000    0.00000    0.00000    0    start
    2      0.000D+00      0.202D+00      -105.40093650     96.074226    0.00000    0.00000    0.00000    1    diag,B
    3      0.184D-01      0.199D-01      -105.46051917     95.280718    0.00000    0.00000    0.00000    2    diag,B
    4      0.433D-02      0.352D-02      -105.47285232     94.422429    0.00000    0.00000    0.00000    3    diag,B
    5      0.304D-02      0.133D-02      -105.47643048     94.033832    0.00000    0.00000    0.00000    4    diag,B
    6      0.252D-02      0.767D-03      -105.47843352     93.737517    0.00000    0.00000    0.00000    5    diag,B
    7      0.334D-02      0.370D-03      -105.47903666     93.644602    0.00000    0.00000    0.00000    6    fixocc
    8      0.314D-02      0.188D-03      -105.47921790     93.604596    0.00000    0.00000    0.00000    7    diag,B
    9      0.517D-02      0.820D-04      -105.47924808     93.591705    0.00000    0.00000    0.00000    8    diag,B
   10      0.672D-02      0.392D-04      -105.47925533     93.584756    0.00000    0.00000    0.00000    9    orth
   11      0.723D-02      0.109D-04      -105.47925595     93.583623    0.00000    0.00000    0.00000    9    diag,B
   12      0.101D-02      0.832D-05      -105.47925646     93.582907    0.00000    0.00000    0.00000    9    diag,B
   13      0.955D-04      0.773D-05      -105.47925723     93.582585    0.00000    0.00000    0.00000    9    diag,B
   14      0.504D-04      0.736D-05      -105.47925869     93.582472    0.00000    0.00000    0.00000    9    diag,B
   15      0.446D-04      0.691D-05      -105.47926136     93.582768    0.00000    0.00000    0.00000    9    diag,B
   16      0.432D-04      0.633D-05      -105.47926269     93.582967    0.00000    0.00000    0.00000    9    diag,B
   17      0.295D-04      0.611D-05      -105.47926465     93.582920    0.00000    0.00000    0.00000    9    diag,B
   18      0.323D-04      0.569D-05      -105.47926869     93.582617    0.00000    0.00000    0.00000    9    diag,B
   19      0.607D-04      0.479D-05      -105.47927122     93.582699    0.00000    0.00000    0.00000    9    diag,B
   20      0.683D-04      0.398D-05      -105.47927308     93.582990    0.00000    0.00000    0.00000    9    orth
   21      0.462D-04      0.313D-05      -105.47927417     93.583282    0.00000    0.00000    0.00000    9    diag,B
   22      0.570D-04      0.188D-05      -105.47927450     93.583179    0.00000    0.00000    0.00000    9    diag,B
   23      0.859D-04      0.618D-06      -105.47927451     93.583031    0.00000    0.00000    0.00000    9    diag,B
   24      0.576D-05      0.396D-06      -105.47927451     93.583018    0.00000    0.00000    0.00000    0    orth

 Final alpha occupancy:   3   1   1   0   1   0   0   0
 Final beta  occupancy:   2   1   1   0   1   0   0   0

 !RHF STATE 1.1 Energy               -105.479274513626
   --><property name="Energy" method="RHF" principal="true" stateSymmetry="1" stateNumber="1"
     value="-105.479274513626"/><!--
 Nuclear energy                         0.00000000
 One-electron energy                 -152.27078332
 Two-electron energy                   46.79150881
 Virial quotient                       -1.18977602
 !RHF STATE 1.1 Dipole moment           0.00000000     0.00000000     0.00000000
 Dipole moment /Debye                   0.00000000     0.00000000     0.00000000
   --><property name="Dipole moment" method="RHF" principal="true" stateSymmetry="1"
     stateNumber="1" value="0.0 0.0 0.0"/><!--

 ELECTRON ORBITALS
 =================


   Orb  Occ    Energy  Couls-En    Coefficients

                                   1 1s      1 1s      1 1s      1 1s      1 1s      1 1s      1 1s      1 1s      1 1s      1 1s
                                   1 1s      1 1s      1 1s      1 1s      1 1s      1 1s      1 1s      1 1s      1 1s      1 1s
                                   1 1s      1 1s      1 1s      1 1s      1 1s      1 1s      1 1s      1 1s      1 1s      1 1s
                                   1 1s      1 3d0     1 3d2+    1 3d0     1 3d2+    1 3d0     1 3d2+    1 3d0     1 3d2+    1 3d0
                                   1 3d2+    1 3d0     1 3d2+    1 3d0     1 3d2+    1 3d0     1 3d2+    1 3d0     1 3d2+    1 3d0
                                   1 3d2+    1 3d0     1 3d2+    1 3d0     1 3d2+    1 3d0     1 3d2+    1 3d0     1 3d2+    1 3d0
                                   1 3d2+    1 3d0     1 3d2+    1 3d0     1 3d2+    1 3d0     1 3d2+    1 5g0     1 5g4+    1 5g2+
                                   1 5g0     1 5g4+    1 5g2+    1 5g0     1 5g4+    1 5g2+    1 5g0     1 5g4+    1 5g2+    1 5g0
                                   1 5g4+    1 5g2+    1 5g0     1 5g4+    1 5g2+

   1.1   2    -1.2490   -8.5435  0.000000 -0.000000  0.000000 -0.000000  0.000000 -0.000000  0.000000 -0.000001  0.000004 -0.000008
                                 0.000022 -0.000049  0.000126 -0.000262  0.000613 -0.001183  0.002435 -0.003742  0.004716 -0.024848
                                 0.128293 -0.113361 -0.269626 -0.083568  0.346672  0.627744  0.224548  0.032323 -0.008618  0.008731
                                -0.003141 -0.000000  0.000000  0.000000 -0.000000 -0.000000  0.000000  0.000000 -0.000000 -0.000001
                                 0.000001  0.000003 -0.000005 -0.000002  0.000004  0.000028 -0.000049  0.000021 -0.000036  0.000244
                                -0.000423  0.000202 -0.000349  0.002987 -0.005172  0.007384 -0.012782  0.007134 -0.012355  0.002461
                                -0.004269  0.000261 -0.000446  0.000276 -0.000485 -0.000036  0.000065  0.000003  0.000006 -0.000005
                                 0.000009  0.000018 -0.000013  0.000235  0.000464 -0.000351  0.000630  0.001244 -0.000939 -0.000129
                                -0.000255  0.000192  0.000083  0.000163 -0.000123

   2.1   2    -0.1652   -2.6532 -0.000000  0.000000 -0.000000  0.000000 -0.000000  0.000000 -0.000000  0.000000 -0.000001  0.000002
                                -0.000006  0.000012 -0.000032  0.000065 -0.000155  0.000296 -0.000621  0.000952 -0.001234  0.006919
                                -0.036997  0.032052  0.086201  0.025782 -0.099734 -0.344490 -0.208468 -0.065463  0.835469 -0.456788
                                 0.884753 -0.000000  0.000000  0.000000 -0.000000 -0.000000  0.000000  0.000000 -0.000000 -0.000000
                                 0.000001  0.000001 -0.000001 -0.000003  0.000005  0.000001 -0.000002 -0.000022  0.000038 -0.000029
                                 0.000052 -0.000104  0.000180 -0.000657  0.001146 -0.002176  0.003783 -0.001353  0.002366  0.005621
                                -0.009688  0.005611 -0.009734 -0.001662  0.002945  0.003841 -0.006679  0.000002  0.000004 -0.000003
                                -0.000014 -0.000028  0.000022  0.000042  0.000082 -0.000062 -0.000052 -0.000102  0.000077 -0.000244
                                -0.000482  0.000364  0.000033  0.000066 -0.000050

   3.1   +    -0.3429   -6.0726  0.000000 -0.000000  0.000000 -0.000000  0.000000 -0.000000  0.000000 -0.000000  0.000000 -0.000000
                                 0.000001 -0.000001  0.000004 -0.000008  0.000018 -0.000035  0.000072 -0.000111  0.000139 -0.000732
                                 0.003760 -0.003269 -0.007917 -0.002573  0.009866  0.016732  0.005533  0.005206  0.004343 -0.000441
                                 0.001320  0.000000 -0.000000 -0.000000  0.000001  0.000002 -0.000004 -0.000011  0.000019  0.000029
                                -0.000049 -0.000128  0.000221  0.000166 -0.000288 -0.001028  0.001782 -0.000123  0.000213 -0.007437
                                 0.012892 -0.005512  0.009554 -0.086783  0.150440 -0.172888  0.299703 -0.209903  0.363869 -0.156759
                                 0.271746  0.052607 -0.091194 -0.092854  0.160963  0.028368 -0.049175  0.000004  0.000008 -0.000006
                                -0.000013 -0.000026  0.000020  0.000228  0.000450 -0.000340  0.000680  0.001341 -0.001014 -0.000014
                                -0.000029  0.000021  0.000073  0.000144 -0.000109

   4.1   0     0.0485   -2.6088 -0.000000  0.000000 -0.000000  0.000000 -0.000000  0.000000 -0.000000  0.000000 -0.000000  0.000000
                                -0.000000  0.000000 -0.000000  0.000000 -0.000000  0.000000 -0.000001  0.000001 -0.000001  0.000004
                                -0.000017  0.000029 -0.000024  0.000078 -0.000168  0.000296 -0.001014  0.001824 -0.004604  0.007845
                                -0.004421 -0.000000 -0.000000  0.000001  0.000000 -0.000003 -0.000002  0.000015  0.000008 -0.000044
                                -0.000025  0.000162  0.000093 -0.000303 -0.000175  0.001163  0.000671 -0.000777 -0.000448  0.006963
                                 0.004017  0.000950  0.000548  0.066250  0.038217  0.115296  0.066510  0.187604  0.108222  0.076128
                                 0.043911  1.527174  0.881005 -2.810393 -1.621281  2.067245  1.192565  0.000013 -0.000015 -0.000011
                                -0.000042  0.000049  0.000037  0.000633 -0.000749 -0.000565  0.002602 -0.003080 -0.002326  0.000495
                                -0.000584 -0.000442  0.000977 -0.001157 -0.000875

   5.1   0     0.0521   -1.1880  0.000000 -0.000000  0.000000 -0.000000  0.000000 -0.000000  0.000000 -0.000001  0.000003 -0.000009
                                 0.000022 -0.000051  0.000121 -0.000269  0.000585 -0.001188  0.002245 -0.003460  0.003739 -0.012540
                                 0.052263 -0.086756  0.069187 -0.234902  0.508080 -0.875066  3.058357 -5.484220 13.830037-23.474612
                                13.051517  0.000000 -0.000000 -0.000000  0.000000  0.000000 -0.000000 -0.000000  0.000000  0.000000
                                -0.000000 -0.000000  0.000001  0.000002 -0.000003 -0.000000  0.000001  0.000012 -0.000022  0.000020
                                -0.000029  0.000068 -0.000117  0.000406 -0.000654  0.001213 -0.002015  0.001063 -0.001699 -0.000752
                                 0.001332 -0.013907  0.025457  0.023485 -0.043227 -0.017323  0.031849 -0.000001 -0.000002  0.000001
                                 0.000010  0.000019 -0.000015  0.000036  0.000070 -0.000053 -0.000299 -0.000592  0.000446 -0.000088
                                -0.000175  0.000132 -0.000271 -0.000536  0.000404

                                   1 2px     1 2px     1 2px     1 2px     1 2px     1 2px     1 2px     1 2px     1 2px     1 2px
                                   1 2px     1 2px     1 2px     1 2px     1 2px     1 2px     1 2px     1 2px     1 2px     1 2px
                                   1 2px     1 2px     1 2px     1 2px     1 2px     1 2px     1 2px     1 4f1+    1 4f3+    1 4f1+
                                   1 4f3+    1 4f1+    1 4f3+    1 4f1+    1 4f3+    1 4f1+    1 4f3+    1 4f1+    1 4f3+    1 4f1+
                                   1 4f3+    1 4f1+    1 4f3+    1 4f1+    1 4f3+    1 4f1+    1 4f3+    1 4f1+    1 4f3+    1 4f1+
                                   1 4f3+    1 4f1+    1 4f3+    1 6h1+    1 6h3+    1 6h5+    1 6h1+    1 6h3+    1 6h5+    1 6h1+
                                   1 6h3+    1 6h5+

   1.2   2    -9.2459  -30.4090  0.000000  0.000000  0.000000  0.000000  0.000000  0.000001  0.000005  0.000021  0.000089  0.000313
                                 0.001092  0.003333  0.010251  0.027894  0.069707  0.157103  0.002412  0.314057  0.406536  0.166649
                                -0.017649  0.031168 -0.011762  0.011757  0.002345 -0.001207 -0.011279  0.000000 -0.000000 -0.000000
                                 0.000000  0.000000 -0.000000  0.000001 -0.000001  0.000005 -0.000007  0.000041 -0.000052  0.000166
                                -0.000214 -0.000145  0.000188 -0.000292  0.000377 -0.000097  0.000125 -0.000021  0.000027  0.000006
                                -0.000007 -0.000002  0.000003 -0.000034  0.000037 -0.000049  0.000016 -0.000018  0.000024  0.000005
                                -0.000006  0.000008

   2.2   0    -0.6610   -7.9767 -0.000000 -0.000000 -0.000000 -0.000000 -0.000000 -0.000000 -0.000002 -0.000010 -0.000036 -0.000147
                                -0.000449 -0.001557 -0.004338 -0.013309 -0.030354 -0.090363  0.026209 -0.192956 -0.197554  0.157109
                                 0.421785 -0.064883  0.476992  0.091127  0.194050  0.011929 -0.086677 -0.000000  0.000000 -0.000000
                                 0.000000 -0.000000  0.000001 -0.000002  0.000002 -0.000014  0.000018 -0.000071  0.000092 -0.000343
                                 0.000442 -0.001986  0.002567 -0.006397  0.008266 -0.009550  0.012338 -0.004296  0.005549  0.000922
                                -0.001191 -0.000375  0.000484  0.000055 -0.000059  0.000080  0.000177 -0.000191  0.000257  0.000452
                                -0.000489  0.000656

   3.2   0     0.0097   -1.7360  0.000000 -0.000000  0.000000 -0.000000  0.000000 -0.000000  0.000001  0.000001  0.000011  0.000013
                                 0.000124  0.000170  0.001106  0.001581  0.008262  0.001688  0.021890  0.015023  0.052392 -0.064854
                                 0.048570 -0.244358  0.084031-24.015042 -0.190277  0.637217 24.563773 -0.000000  0.000000  0.000000
                                -0.000000 -0.000000  0.000000  0.000000 -0.000000  0.000001 -0.000001  0.000009 -0.000011  0.000035
                                -0.000045  0.000164 -0.000212  0.000056 -0.000073 -0.000861  0.001113 -0.000017  0.000027  0.000772
                                -0.000995  0.001758 -0.002269 -0.000007  0.000008 -0.000010 -0.000018  0.000019 -0.000025  0.000026
                                -0.000028  0.000038

                                   1 2py     1 2py     1 2py     1 2py     1 2py     1 2py     1 2py     1 2py     1 2py     1 2py
                                   1 2py     1 2py     1 2py     1 2py     1 2py     1 2py     1 2py     1 2py     1 2py     1 2py
                                   1 2py     1 2py     1 2py     1 2py     1 2py     1 2py     1 2py     1 4f1-    1 4f3-    1 4f1-
                                   1 4f3-    1 4f1-    1 4f3-    1 4f1-    1 4f3-    1 4f1-    1 4f3-    1 4f1-    1 4f3-    1 4f1-
                                   1 4f3-    1 4f1-    1 4f3-    1 4f1-    1 4f3-    1 4f1-    1 4f3-    1 4f1-    1 4f3-    1 4f1-
                                   1 4f3-    1 4f1-    1 4f3-    1 6h1-    1 6h3-    1 6h5-    1 6h1-    1 6h3-    1 6h5-    1 6h1-
                                   1 6h3-    1 6h5-

   1.3   2    -9.2562  -30.4186  0.000000  0.000000  0.000000  0.000000  0.000000  0.000001  0.000005  0.000021  0.000089  0.000312
                                 0.001092  0.003331  0.010248  0.027873  0.069684  0.156885  0.002612  0.313615  0.406982  0.167064
                                -0.018180  0.031351 -0.012101  0.011805  0.002268 -0.001224 -0.011326  0.000000 -0.000000 -0.000000
                                 0.000000  0.000000 -0.000000  0.000000 -0.000001  0.000004 -0.000014  0.000019 -0.000073  0.000077
                                -0.000297  0.000101 -0.000390  0.000051 -0.000199  0.000017 -0.000064  0.000002 -0.000008 -0.000000
                                 0.000001  0.000000 -0.000000 -0.000007  0.000022 -0.000049  0.000003 -0.000011  0.000025  0.000001
                                -0.000003  0.000007

   2.3   0    -0.6280   -7.9560 -0.000000 -0.000000 -0.000000 -0.000000 -0.000000 -0.000000 -0.000002 -0.000010 -0.000036 -0.000148
                                -0.000450 -0.001559 -0.004347 -0.013327 -0.030420 -0.090443  0.026156 -0.193270 -0.198137  0.157846
                                 0.423092 -0.063893  0.477495  0.096275  0.191178  0.010820 -0.091534  0.000000 -0.000000 -0.000000
                                 0.000000  0.000000 -0.000000 -0.000000  0.000000  0.000001 -0.000005  0.000000 -0.000001  0.000033
                                -0.000130  0.000513 -0.001986  0.001761 -0.006820  0.002087 -0.008089  0.000732 -0.002838 -0.000113
                                 0.000437  0.000054 -0.000210  0.000011 -0.000036  0.000080  0.000037 -0.000118  0.000265  0.000097
                                -0.000316  0.000707

   3.3   0     0.0076   -1.7649  0.000000 -0.000000  0.000000 -0.000000  0.000000 -0.000000  0.000001  0.000001  0.000011  0.000014
                                 0.000123  0.000182  0.001099  0.001676  0.008178  0.002926  0.020072  0.016963  0.051989 -0.063339
                                 0.038846 -0.227882  0.067092-22.650742 -0.181798  0.627580 23.208486 -0.000000  0.000000  0.000000
                                -0.000000 -0.000000  0.000000  0.000000 -0.000002 -0.000001  0.000004  0.000003 -0.000013 -0.000008
                                 0.000031 -0.000055  0.000211 -0.000212  0.000819  0.000303 -0.001171  0.001323 -0.005117  0.000264
                                -0.001020  0.001075 -0.004162 -0.000001  0.000005 -0.000010 -0.000004  0.000013 -0.000028  0.000006
                                -0.000021  0.000047

                                   1 3d2-    1 3d2-    1 3d2-    1 3d2-    1 3d2-    1 3d2-    1 3d2-    1 3d2-    1 3d2-    1 3d2-
                                   1 3d2-    1 3d2-    1 3d2-    1 3d2-    1 3d2-    1 3d2-    1 3d2-    1 3d2-    1 5g2-    1 5g4-
                                   1 5g2-    1 5g4-    1 5g2-    1 5g4-    1 5g2-    1 5g4-    1 5g2-    1 5g4-    1 5g2-    1 5g4-


   1.4   0     0.0547   -2.0632 -0.000000  0.000001 -0.000003  0.000016 -0.000050  0.000175 -0.000355  0.001214 -0.001110  0.006779
                                -0.000653  0.059038  0.092891  0.173748 -0.011097  2.237143 -4.219535  3.009469  0.000001 -0.000002
                                -0.000002  0.000004  0.000039 -0.000101  0.000371 -0.000978  0.000499 -0.001320  0.000554 -0.001466

   2.4   0     0.1011   -2.9073  0.000000 -0.000000  0.000001 -0.000001  0.000012  0.000009  0.000154  0.000328  0.001665  0.005023
                                 0.010772  0.081708  0.201561  0.182252  0.651883 -3.626419  7.490596 -4.490100  0.000002 -0.000004
                                -0.000005  0.000012  0.000081 -0.000211  0.000578 -0.001521  0.000349 -0.000926 -0.000156  0.000417

                                   1 2pz     1 2pz     1 2pz     1 2pz     1 2pz     1 2pz     1 2pz     1 2pz     1 2pz     1 2pz
                                   1 2pz     1 2pz     1 2pz     1 2pz     1 2pz     1 2pz     1 2pz     1 2pz     1 2pz     1 2pz
                                   1 2pz     1 2pz     1 2pz     1 2pz     1 2pz     1 2pz     1 2pz     1 4f0     1 4f2+    1 4f0
                                   1 4f2+    1 4f0     1 4f2+    1 4f0     1 4f2+    1 4f0     1 4f2+    1 4f0     1 4f2+    1 4f0
                                   1 4f2+    1 4f0     1 4f2+    1 4f0     1 4f2+    1 4f0     1 4f2+    1 4f0     1 4f2+    1 4f0
                                   1 4f2+    1 4f0     1 4f2+    1 6h2+    1 6h4+    1 6h0     1 6h2+    1 6h4+    1 6h0     1 6h2+
                                   1 6h4+    1 6h0

   1.5   2    -9.2562  -30.4186  0.000000  0.000000  0.000000  0.000000  0.000000  0.000001  0.000005  0.000021  0.000089  0.000312
                                 0.001092  0.003331  0.010248  0.027873  0.069684  0.156884  0.002613  0.313615  0.406982  0.167065
                                -0.018180  0.031351 -0.012101  0.011805  0.002268 -0.001224 -0.011326  0.000000 -0.000000 -0.000000
                                 0.000000  0.000000 -0.000000  0.000001 -0.000001  0.000009 -0.000011  0.000046 -0.000060  0.000188
                                -0.000242  0.000247 -0.000318  0.000125 -0.000162  0.000041 -0.000052  0.000005 -0.000006 -0.000000
                                 0.000000  0.000000 -0.000000  0.000036 -0.000031 -0.000026 -0.000018  0.000016  0.000013 -0.000005
                                 0.000005  0.000004

   2.5   0    -0.6279   -7.9560 -0.000000 -0.000000 -0.000000 -0.000000 -0.000000 -0.000000 -0.000002 -0.000010 -0.000036 -0.000148
                                -0.000450 -0.001559 -0.004347 -0.013327 -0.030420 -0.090442  0.026155 -0.193270 -0.198138  0.157846
                                 0.423093 -0.063891  0.477493  0.096279  0.191175  0.010821 -0.091537  0.000000 -0.000000 -0.000000
                                 0.000000  0.000000 -0.000000 -0.000000  0.000000  0.000003 -0.000004  0.000001 -0.000001  0.000082
                                -0.000106  0.001255 -0.001620  0.004309 -0.005564  0.005108 -0.006597  0.001791 -0.002315 -0.000276
                                 0.000356  0.000132 -0.000171 -0.000058  0.000051  0.000043 -0.000193  0.000168  0.000141 -0.000516
                                 0.000447  0.000378

   3.5   0     0.0076   -1.7650  0.000000 -0.000000  0.000000 -0.000000  0.000000 -0.000000  0.000001  0.000001  0.000011  0.000014
                                 0.000123  0.000182  0.001099  0.001676  0.008178  0.002928  0.020070  0.016966  0.051989 -0.063338
                                 0.038835 -0.227867  0.067074-22.649454 -0.181788  0.627573 23.207204 -0.000000  0.000000  0.000000
                                -0.000000 -0.000000  0.000000  0.000001 -0.000001 -0.000003  0.000004  0.000009 -0.000011 -0.000019
                                 0.000025 -0.000134  0.000172 -0.000518  0.000668  0.000741 -0.000956  0.003237 -0.004176  0.000647
                                -0.000833  0.002632 -0.003398  0.000007 -0.000006 -0.000005  0.000021 -0.000018 -0.000015 -0.000034
                                 0.000030  0.000025

                                   1 3d1+    1 3d1+    1 3d1+    1 3d1+    1 3d1+    1 3d1+    1 3d1+    1 3d1+    1 3d1+    1 3d1+
                                   1 3d1+    1 3d1+    1 3d1+    1 3d1+    1 3d1+    1 3d1+    1 3d1+    1 3d1+    1 5g1+    1 5g3+
                                   1 5g1+    1 5g3+    1 5g1+    1 5g3+    1 5g1+    1 5g3+    1 5g1+    1 5g3+    1 5g1+    1 5g3+


   1.6   0     0.0547   -2.0636 -0.000000  0.000001 -0.000003  0.000016 -0.000050  0.000175 -0.000355  0.001214 -0.001110  0.006780
                                -0.000651  0.059052  0.092924  0.173784 -0.011017  2.236783 -4.218790  3.008997  0.000002 -0.000001
                                -0.000003  0.000003  0.000082 -0.000071  0.000786 -0.000691  0.001059 -0.000933  0.001175 -0.001036

   2.6   0     0.1011   -2.9071  0.000000 -0.000000  0.000001 -0.000001  0.000012  0.000009  0.000154  0.000328  0.001665  0.005024
                                 0.010772  0.081709  0.201563  0.182256  0.651869 -3.626431  7.490578 -4.490212  0.000003 -0.000003
                                -0.000009  0.000008  0.000170 -0.000149  0.001221 -0.001073  0.000741 -0.000655 -0.000333  0.000296

                                   1 3d1-    1 3d1-    1 3d1-    1 3d1-    1 3d1-    1 3d1-    1 3d1-    1 3d1-    1 3d1-    1 3d1-
                                   1 3d1-    1 3d1-    1 3d1-    1 3d1-    1 3d1-    1 3d1-    1 3d1-    1 3d1-    1 5g1-    1 5g3-
                                   1 5g1-    1 5g3-    1 5g1-    1 5g3-    1 5g1-    1 5g3-    1 5g1-    1 5g3-    1 5g1-    1 5g3-


   1.7   0     0.0485   -2.6088 -0.000000  0.000001 -0.000004  0.000017 -0.000051  0.000187 -0.000350  0.001343 -0.000897  0.008039
                                 0.001096  0.076483  0.133104  0.216581  0.087884  1.763074 -3.244513  2.386570  0.000008 -0.000021
                                -0.000026  0.000070  0.000400 -0.001059  0.001646 -0.004354  0.000313 -0.000827  0.000618 -0.001636

   2.7   0     0.0914   -2.6408  0.000000 -0.000000  0.000001 -0.000001  0.000014  0.000002  0.000166  0.000278  0.001688  0.004709
                                 0.010644  0.078648  0.196435  0.175541  0.629500 -3.673372  7.529463 -4.649400  0.000009 -0.000025
                                -0.000030  0.000079  0.000476 -0.001260  0.001809 -0.004783  0.000052 -0.000140  0.000517 -0.001363

                                   1 4f2-    1 4f2-    1 4f2-    1 4f2-    1 4f2-    1 4f2-    1 4f2-    1 4f2-    1 4f2-    1 4f2-
                                   1 4f2-    1 4f2-    1 4f2-    1 6h4-    1 6h2-    1 6h4-    1 6h2-    1 6h4-    1 6h2-

   1.8   0     0.1149   -1.0114  0.000003 -0.000018  0.000075 -0.000251  0.000690 -0.001636  0.003616 -0.007692  0.018549 -0.047513
                                 0.300163 -0.728938  1.400543 -0.000002  0.000001  0.000019 -0.000011 -0.000064  0.000037

   2.8   0     0.2869   -1.2520 -0.000006  0.000040 -0.000168  0.000562 -0.001536  0.003692 -0.007988  0.018042 -0.038684  0.135528
                                -0.586947  2.124113 -1.131480 -0.000013  0.000008  0.000115 -0.000067 -0.000396  0.000229

 HOMO      3.1    -0.342851 =      -9.3294eV
 LUMO      2.2    -0.660972 =     -17.9860eV
 LUMO-HOMO        -0.318122 =      -8.6565eV


 **********************************************************************************************************************************
 DATASETS  * FILE   NREC   LENGTH (MB)   RECORD NAMES
              1      19       20.94       500      610      700      900      950      970     1000      129      960     1100
                                          VAR    BASINP    GEOM    SYMINP    ZMAT    AOBASIS   BASIS     P2S    ABASIS      S
                                         1400     1410     1420     1200     1210     1080     1600     1650     1700
                                           T        V       ECP      H0       H01     AOSYM     SMH    MOLCAS    OPER

              2       5        6.02       200      700     1000      520     4202
                                        OPTIONS   GEOM     BASIS   MCVARS     RHF

 PROGRAMS   *        TOTAL       RHF       INT
 CPU TIMES  *        72.77      3.11     69.15
 REAL TIME  *        78.92 SEC
 DISK USED  *         4.61 GB
 SF USED    *         0.09 MB
 GA USED    *         0.00 MB       (max)       0.00 MB       (current)
 **********************************************************************************************************************************
   -->
   <time start="14:14:23" end="14:15:41" cpu="72.77" system="4.69" real="78.92"/>
   <storage units="megabyte" memory="8001.84" sf="0.09" df="332.82" eaf="4272.69" ga="0.0"/>
  </jobstep><!--
  --><jobstep command="POP" commandset="POP">
   <!--


 PROGRAM * POP (Mulliken population analysis)


 Density matrix read from record         4202.2  Type=RHF/CHARGE (state 1.1)

 Population analysis by basis function type

 Unique atom        s        p        d        f        g    Total    Charge
   1  LU      3.99782  6.00000  1.00216  0.00000  0.00001 11.00000  + 0.00000


 **********************************************************************************************************************************
 DATASETS  * FILE   NREC   LENGTH (MB)   RECORD NAMES
              1      19       20.94       500      610      700      900      950      970     1000      129      960     1100
                                          VAR    BASINP    GEOM    SYMINP    ZMAT    AOBASIS   BASIS     P2S    ABASIS      S
                                         1400     1410     1420     1200     1210     1080     1600     1650     1700
                                           T        V       ECP      H0       H01     AOSYM     SMH    MOLCAS    OPER

              2       5        6.02       200      700     1000      520     4202
                                        OPTIONS   GEOM     BASIS   MCVARS     RHF

 PROGRAMS   *        TOTAL       POP       RHF       INT
 CPU TIMES  *        72.78      0.00      3.11     69.15
 REAL TIME  *        78.93 SEC
 DISK USED  *         4.61 GB
 SF USED    *         0.09 MB
 GA USED    *         0.00 MB       (max)       0.00 MB       (current)
 **********************************************************************************************************************************
   -->
   <time start="14:15:41" end="14:15:41" cpu="0.01" system="0.0" real="0.01"/>
   <storage units="megabyte" memory="8001.84" sf="0.09" df="332.82" eaf="4272.69" ga="0.0"/>
  </jobstep><!--
  --><jobstep command="MULTI" commandset="MULTI">
   <!--


 PROGRAM * MULTI (Direct Multiconfiguration SCF)       Authors: P.J. Knowles, H.-J. Werner (1984)     S.T. Elbert (1988)


 Number of closed-shell orbitals:   5 (   2   1   1   0   1   0   0   0 )
 Number of active  orbitals:        5 (   2   0   0   1   0   1   1   0 )
 Number of external orbitals:     370 (  81  61  61  29  61  29  29  19 )

 State symmetry 1

 Number of electrons:     1    Spin symmetry=Doublet   Space symmetry=1
 Number of states:        2
 Number of CSFs:          2   (2 determinants, 5 intermediate states)

 State symmetry 2

 Number of electrons:     1    Spin symmetry=Doublet   Space symmetry=4
 Number of states:        1
 Number of CSFs:          1   (1 determinants, 5 intermediate states)

 State symmetry 3

 Number of electrons:     1    Spin symmetry=Doublet   Space symmetry=6
 Number of states:        1
 Number of CSFs:          1   (1 determinants, 5 intermediate states)

 State symmetry 4

 Number of electrons:     1    Spin symmetry=Doublet   Space symmetry=7
 Number of states:        1
 Number of CSFs:          1   (1 determinants, 5 intermediate states)

 Molecular orbitals read from record     4202.2  Type=RHF/CANONICAL (state 1.1)
 *** IN SYMMETRY 1 ORBITAL  1 SYMMETRY CONTAMINATION OF 0.320D-01 HAS BEEN REMOVED
 *** IN SYMMETRY 1 ORBITAL  2 SYMMETRY CONTAMINATION OF 0.189D-01 HAS BEEN REMOVED
 *** IN SYMMETRY 1 ORBITAL  3 SYMMETRY CONTAMINATION OF 0.384D+00 HAS BEEN REMOVED
 *** IN SYMMETRY 1 ORBITAL  4 SYMMETRY CONTAMINATION OF 0.368D+00 HAS BEEN REMOVED

 EXTRA SYMMETRY OF MOS IN SYMMETRY 1:   1 1 3 2 1 3 2 3 1 2   4 5 6 3 2 1 4 5 1 3   2 1 4 5 6 3 2 1 2 3   1 4 5 6 2 3 1 4 5 6
                                        2 3 1 1 2 3 4 5 6 1   2 3 1 2 3 1 2 3 1 2   3 1 1 2 3 1 2 3 1 2   3 1 1 2 3 1 1 1 1 1
                                        1 1 1 1 6
 *** IN SYMMETRY 2 ORBITAL  1 SYMMETRY CONTAMINATION OF 0.158D-02 HAS BEEN REMOVED
 EXTRA SYMMETRY OF MOS IN SYMMETRY 2:   1 1 1 1 2 3 1 3 2 3   2 1 3 2 1 3 2 5 6 4   1 3 2 1 5 6 4 1 2 3   5 6 4 1 2 3 1 2 3 1
                                        2 3 1 2 3 1 1 2 3 1   2 3 1 1 1 1 1 1 1 1   1 1
 *** IN SYMMETRY 3 ORBITAL  1 SYMMETRY CONTAMINATION OF 0.116D-02 HAS BEEN REMOVED
 EXTRA SYMMETRY OF MOS IN SYMMETRY 3:   1 1 1 1 2 3 1 2 3 3   2 1 3 2 1 2 3 4 5 6   1 2 3 1 4 5 6 1 2 3   4 5 6 1 2 3 1 2 3 1
                                        2 3 1 2 3 1 1 2 3 1   2 3 1 1 1 1 1 1 1 1   1 1
 *** IN SYMMETRY 4 ORBITAL  1 SYMMETRY CONTAMINATION OF 0.544D-03 HAS BEEN REMOVED
 EXTRA SYMMETRY OF MOS IN SYMMETRY 4:   1 1 2 3 1 1 2 3 1 2   3 1 1 2 3 1 2 3 1 1   2 3 1 1 1 1 1 1 1 1
 *** IN SYMMETRY 5 ORBITAL  1 SYMMETRY CONTAMINATION OF 0.134D-02 HAS BEEN REMOVED
 EXTRA SYMMETRY OF MOS IN SYMMETRY 5:   1 1 1 1 2 3 1 2 3 3   2 1 3 2 1 2 3 6 5 4   1 2 3 1 6 5 4 1 2 3   6 5 4 1 2 3 1 2 3 1
                                        2 3 1 2 3 1 1 2 3 1   2 3 1 1 1 1 1 1 1 1   1 1
 *** IN SYMMETRY 6 ORBITAL  1 SYMMETRY CONTAMINATION OF 0.595D-03 HAS BEEN REMOVED
 EXTRA SYMMETRY OF MOS IN SYMMETRY 6:   1 1 3 2 1 1 3 2 1 3   2 1 1 3 2 1 3 2 1 1   3 2 1 1 1 1 1 1 1 1
 *** IN SYMMETRY 7 ORBITAL  1 SYMMETRY CONTAMINATION OF 0.138D-02 HAS BEEN REMOVED
 EXTRA SYMMETRY OF MOS IN SYMMETRY 7:   1 1 1 2 3 1 2 3 1 2   3 1 1 2 3 1 2 3 1 1   2 3 1 1 1 1 1 1 1 1
 EXTRA SYMMETRY OF MOS IN SYMMETRY 8:   1 1 1 1 1 3 2 1 3 2   1 3 2 1 1 1 1 1 1

 Wavefunction dump at record             5202.2

 Convergence thresholds  0.10E-01 (gradient)  0.10E-05 (energy)  0.10E-02 (step length)

 Weight factors for state symmetry  1:    0.20000   0.20000
 Weight factors for state symmetry  2:    0.20000
 Weight factors for state symmetry  3:    0.20000
 Weight factors for state symmetry  4:    0.20000

 Number of orbital rotations:      598   (     4 Core/Active    345 Core/Virtual   0 Active/Active    249 Active/Virtual)
 Total number of variables:        605


 ITER. MIC  NCI  NEG     ENERGY(VAR)     ENERGY(PROJ)   ENERGY CHANGE     GRAD(0)  GRAD(ORB)   GRAD(CI)     STEP       TIME

   1   66   16    2    -105.33439512    -105.48257303   -0.14817791    2.09774774 0.00100812 0.00000000  0.16D+01      0.70
   2   40   20    3    -102.13579837    -105.47771887   -3.34192049   *********** 0.00000022 0.00000000  0.85D-01      1.37
   3   22   20    0    -105.47778921    -105.47779322   -0.00000402    0.00164291 0.00000022 0.00000000  0.32D-02      2.04
   4   32   20    0    -105.47779322    -105.47779322   -0.00000000    0.00000199 0.00000000 0.00000000  0.42D-05      2.71

 ** WVFN ****  CONVERGENCE REACHED, FINAL GRADIENT:  0.46D-11



 Results for state 1.1
 =====================

 !MCSCF STATE 1.1 Energy             -105.477793224195
   --><property name="Energy" method="MCSCF" principal="true" stateSymmetry="1" stateNumber="1"
     value="-105.477793224195"/><!--
 Nuclear energy                         0.00000000
 Kinetic energy                        88.64685267
 One electron energy                 -152.26453481
 Two electron energy                   46.78674159
 Virial ratio                           2.18986507

 !MCSCF STATE 1.1 Dipole moment         0.00000000     0.00000000     0.00000000
 Dipole moment /Debye                   0.00000000     0.00000000     0.00000000
   --><property name="Dipole moment" method="MCSCF" principal="true" stateSymmetry="1"
     stateNumber="1" value="0.0 0.0 0.0"/><!--

 Results for state 2.1
 =====================

 !MCSCF STATE 2.1 Energy             -105.477793224195
   --><property name="Energy" method="MCSCF" principal="true" stateSymmetry="1" stateNumber="2"
     value="-105.477793224195"/><!--
 Nuclear energy                         0.00000000
 Kinetic energy                        88.64685267
 One electron energy                 -152.26453481
 Two electron energy                   46.78674159
 Virial ratio                           2.18986507

 !MCSCF STATE 2.1 Dipole moment         0.00000000     0.00000000     0.00000000
 Dipole moment /Debye                   0.00000000     0.00000000     0.00000000
   --><property name="Dipole moment" method="MCSCF" principal="true" stateSymmetry="1"
     stateNumber="2" value="0.0 0.0 0.0"/><!--



 Results for state 1.4
 =====================

 !MCSCF STATE 1.4 Energy             -105.477793224195
   --><property name="Energy" method="MCSCF" principal="true" stateSymmetry="4" stateNumber="1"
     value="-105.477793224195"/><!--
 Nuclear energy                         0.00000000
 Kinetic energy                        88.64685267
 One electron energy                 -152.26453481
 Two electron energy                   46.78674159
 Virial ratio                           2.18986507

 !MCSCF STATE 1.4 Dipole moment         0.00000000     0.00000000     0.00000000
 Dipole moment /Debye                   0.00000000     0.00000000     0.00000000
   --><property name="Dipole moment" method="MCSCF" principal="true" stateSymmetry="4"
     stateNumber="1" value="0.0 0.0 0.0"/><!--



 Results for state 1.6
 =====================

 !MCSCF STATE 1.6 Energy             -105.477793224195
   --><property name="Energy" method="MCSCF" principal="true" stateSymmetry="6" stateNumber="1"
     value="-105.477793224195"/><!--
 Nuclear energy                         0.00000000
 Kinetic energy                        88.64685267
 One electron energy                 -152.26453481
 Two electron energy                   46.78674159
 Virial ratio                           2.18986507

 !MCSCF STATE 1.6 Dipole moment         0.00000000     0.00000000     0.00000000
 Dipole moment /Debye                   0.00000000     0.00000000     0.00000000
   --><property name="Dipole moment" method="MCSCF" principal="true" stateSymmetry="6"
     stateNumber="1" value="0.0 0.0 0.0"/><!--



 Results for state 1.7
 =====================

 !MCSCF STATE 1.7 Energy             -105.477793224195
   --><property name="Energy" method="MCSCF" principal="true" stateSymmetry="7" stateNumber="1"
     value="-105.477793224195"/><!--
 Nuclear energy                         0.00000000
 Kinetic energy                        88.64685267
 One electron energy                 -152.26453481
 Two electron energy                   46.78674159
 Virial ratio                           2.18986507

 !MCSCF STATE 1.7 Dipole moment         0.00000000     0.00000000     0.00000000
 Dipole moment /Debye                   0.00000000     0.00000000     0.00000000
   --><property name="Dipole moment" method="MCSCF" principal="true" stateSymmetry="7"
     stateNumber="1" value="0.0 0.0 0.0"/><!--

 State-averaged charge density matrix saved on record  5202.2 (density set 1)


 NATURAL ORBITALS (state averaged)
 =================================

   Orb     Occ        Energy       Coefficients

                                   1 1s      1 1s      1 1s      1 1s      1 1s      1 1s      1 1s      1 1s      1 1s      1 1s
                                   1 1s      1 1s      1 1s      1 1s      1 1s      1 1s      1 1s      1 1s      1 1s      1 1s
                                   1 1s      1 1s      1 1s      1 1s      1 1s      1 1s      1 1s      1 1s      1 1s      1 1s
                                   1 1s      1 3d0     1 3d2+    1 3d0     1 3d2+    1 3d0     1 3d2+    1 3d0     1 3d2+    1 3d0
                                   1 3d2+    1 3d0     1 3d2+    1 3d0     1 3d2+    1 3d0     1 3d2+    1 3d0     1 3d2+    1 3d0
                                   1 3d2+    1 3d0     1 3d2+    1 3d0     1 3d2+    1 3d0     1 3d2+    1 3d0     1 3d2+    1 3d0
                                   1 3d2+    1 3d0     1 3d2+    1 3d0     1 3d2+    1 3d0     1 3d2+    1 5g0     1 5g4+    1 5g2+
                                   1 5g0     1 5g4+    1 5g2+    1 5g0     1 5g4+    1 5g2+    1 5g0     1 5g4+    1 5g2+    1 5g0
                                   1 5g4+    1 5g2+    1 5g0     1 5g4+    1 5g2+

   1.1  2.00000    -1.249759     0.000000 -0.000000  0.000000 -0.000000  0.000000 -0.000000  0.000000 -0.000001  0.000004 -0.000008
                                 0.000022 -0.000049  0.000126 -0.000262  0.000613 -0.001184  0.002436 -0.003744  0.004719 -0.024864
                                 0.128377 -0.113436 -0.269815 -0.083596  0.347013  0.628009  0.224503  0.032438 -0.008572  0.008749
                                -0.003128  0.000000  0.000000  0.000000  0.000000  0.000000  0.000000  0.000000  0.000000  0.000000
                                 0.000000  0.000000  0.000000  0.000000  0.000000  0.000000  0.000000  0.000000  0.000000  0.000000
                                 0.000000  0.000000  0.000000  0.000000  0.000000  0.000000  0.000000  0.000000  0.000000  0.000000
                                 0.000000  0.000000  0.000000  0.000000  0.000000  0.000000  0.000000  0.000000  0.000000  0.000000
                                 0.000000  0.000000  0.000000  0.000000  0.000000  0.000000  0.000000  0.000000  0.000000  0.000000
                                 0.000000  0.000000  0.000000  0.000000  0.000000

   2.1  2.00000    -0.165126    -0.000000  0.000000 -0.000000  0.000000 -0.000000  0.000000 -0.000000  0.000000 -0.000001  0.000002
                                -0.000006  0.000012 -0.000032  0.000065 -0.000155  0.000296 -0.000621  0.000953 -0.001234  0.006921
                                -0.037008  0.032061  0.086238  0.025774 -0.099815 -0.344599 -0.208170 -0.065842  0.836227 -0.458085
                                 0.885765  0.000000  0.000000  0.000000  0.000000  0.000000  0.000000  0.000000  0.000000  0.000000
                                 0.000000  0.000000  0.000000  0.000000  0.000000  0.000000  0.000000  0.000000  0.000000  0.000000
                                 0.000000  0.000000  0.000000  0.000000  0.000000  0.000000  0.000000  0.000000  0.000000  0.000000
                                 0.000000  0.000000  0.000000  0.000000  0.000000  0.000000  0.000000  0.000000  0.000000  0.000000
                                 0.000000  0.000000  0.000000  0.000000  0.000000  0.000000  0.000000  0.000000  0.000000  0.000000
                                 0.000000  0.000000  0.000000  0.000000  0.000000

   3.1  0.20000     0.083655     0.000000  0.000000  0.000000  0.000000  0.000000  0.000000  0.000000  0.000000  0.000000  0.000000
                                 0.000000  0.000000  0.000000  0.000000  0.000000  0.000000  0.000000  0.000000  0.000000  0.000000
                                 0.000000  0.000000  0.000000  0.000000  0.000000  0.000000  0.000000  0.000000  0.000000  0.000000
                                 0.000000 -0.000000  0.000000  0.000001  0.000000 -0.000004  0.000000  0.000022  0.000000 -0.000057
                                 0.000000  0.000255  0.000000 -0.000332  0.000000  0.002055  0.000000  0.000244  0.000000  0.014870
                                 0.000000  0.011021  0.000000  0.173488  0.000000  0.345400  0.000000  0.419651  0.000000  0.315062
                                 0.000000 -0.104006  0.000000  0.185972  0.000000 -0.056520  0.000000  0.000000  0.000000  0.000000
                                 0.000000  0.000000  0.000000  0.000000  0.000000  0.000000  0.000000  0.000000  0.000000  0.000000
                                 0.000000  0.000000  0.000000  0.000000  0.000000

   4.1  0.20000     0.083655     0.000000  0.000000  0.000000  0.000000  0.000000  0.000000  0.000000  0.000000  0.000000  0.000000
                                 0.000000  0.000000  0.000000  0.000000  0.000000  0.000000  0.000000  0.000000  0.000000  0.000000
                                 0.000000  0.000000  0.000000  0.000000  0.000000  0.000000  0.000000  0.000000  0.000000  0.000000
                                 0.000000  0.000000 -0.000000  0.000000  0.000001  0.000000 -0.000004  0.000000  0.000022  0.000000
                                -0.000057  0.000000  0.000255  0.000000 -0.000332  0.000000  0.002055  0.000000  0.000244  0.000000
                                 0.014870  0.000000  0.011021  0.000000  0.173488  0.000000  0.345400  0.000000  0.419651  0.000000
                                 0.315062  0.000000 -0.104006  0.000000  0.185972  0.000000 -0.056520  0.000000  0.000000  0.000000
                                 0.000000  0.000000  0.000000  0.000000  0.000000  0.000000  0.000000  0.000000  0.000000  0.000000
                                 0.000000  0.000000  0.000000  0.000000  0.000000

                                   1 2px     1 2px     1 2px     1 2px     1 2px     1 2px     1 2px     1 2px     1 2px     1 2px
                                   1 2px     1 2px     1 2px     1 2px     1 2px     1 2px     1 2px     1 2px     1 2px     1 2px
                                   1 2px     1 2px     1 2px     1 2px     1 2px     1 2px     1 2px     1 4f1+    1 4f3+    1 4f1+
                                   1 4f3+    1 4f1+    1 4f3+    1 4f1+    1 4f3+    1 4f1+    1 4f3+    1 4f1+    1 4f3+    1 4f1+
                                   1 4f3+    1 4f1+    1 4f3+    1 4f1+    1 4f3+    1 4f1+    1 4f3+    1 4f1+    1 4f3+    1 4f1+
                                   1 4f3+    1 4f1+    1 4f3+    1 6h1+    1 6h3+    1 6h5+    1 6h1+    1 6h3+    1 6h5+    1 6h1+
                                   1 6h3+    1 6h5+

   1.2  2.00000    -9.253772     0.000000  0.000000  0.000000  0.000000  0.000000  0.000001  0.000005  0.000021  0.000089  0.000312
                                 0.001092  0.003331  0.010249  0.027880  0.069692  0.156959  0.002545  0.313766  0.406837  0.166921
                                -0.018008  0.031291 -0.011990  0.011789  0.002294 -0.001218 -0.011310  0.000000  0.000000  0.000000
                                 0.000000  0.000000  0.000000  0.000000  0.000000  0.000000  0.000000  0.000000  0.000000  0.000000
                                 0.000000  0.000000  0.000000  0.000000  0.000000  0.000000  0.000000  0.000000  0.000000  0.000000
                                 0.000000  0.000000  0.000000  0.000000  0.000000  0.000000  0.000000  0.000000  0.000000  0.000000
                                 0.000000  0.000000

                                   1 2py     1 2py     1 2py     1 2py     1 2py     1 2py     1 2py     1 2py     1 2py     1 2py
                                   1 2py     1 2py     1 2py     1 2py     1 2py     1 2py     1 2py     1 2py     1 2py     1 2py
                                   1 2py     1 2py     1 2py     1 2py     1 2py     1 2py     1 2py     1 4f1-    1 4f3-    1 4f1-
                                   1 4f3-    1 4f1-    1 4f3-    1 4f1-    1 4f3-    1 4f1-    1 4f3-    1 4f1-    1 4f3-    1 4f1-
                                   1 4f3-    1 4f1-    1 4f3-    1 4f1-    1 4f3-    1 4f1-    1 4f3-    1 4f1-    1 4f3-    1 4f1-
                                   1 4f3-    1 4f1-    1 4f3-    1 6h1-    1 6h3-    1 6h5-    1 6h1-    1 6h3-    1 6h5-    1 6h1-
                                   1 6h3-    1 6h5-

   1.3  2.00000    -9.253772     0.000000  0.000000  0.000000  0.000000  0.000000  0.000001  0.000005  0.000021  0.000089  0.000312
                                 0.001092  0.003331  0.010249  0.027880  0.069692  0.156959  0.002545  0.313766  0.406837  0.166921
                                -0.018008  0.031291 -0.011990  0.011789  0.002294 -0.001218 -0.011310  0.000000  0.000000  0.000000
                                 0.000000  0.000000  0.000000  0.000000  0.000000  0.000000  0.000000  0.000000  0.000000  0.000000
                                 0.000000  0.000000  0.000000  0.000000  0.000000  0.000000  0.000000  0.000000  0.000000  0.000000
                                 0.000000  0.000000  0.000000  0.000000  0.000000  0.000000  0.000000  0.000000  0.000000  0.000000
                                 0.000000  0.000000

                                   1 3d2-    1 3d2-    1 3d2-    1 3d2-    1 3d2-    1 3d2-    1 3d2-    1 3d2-    1 3d2-    1 3d2-
                                   1 3d2-    1 3d2-    1 3d2-    1 3d2-    1 3d2-    1 3d2-    1 3d2-    1 3d2-    1 5g2-    1 5g4-
                                   1 5g2-    1 5g4-    1 5g2-    1 5g4-    1 5g2-    1 5g4-    1 5g2-    1 5g4-    1 5g2-    1 5g4-


   1.4  0.20000     0.083655    -0.000000  0.000001 -0.000004  0.000022 -0.000057  0.000255 -0.000332  0.002055  0.000244  0.014870
                                 0.011021  0.173488  0.345400  0.419651  0.315062 -0.104006  0.185972 -0.056520  0.000000  0.000000
                                 0.000000  0.000000  0.000000  0.000000  0.000000  0.000000  0.000000  0.000000  0.000000  0.000000

                                   1 2pz     1 2pz     1 2pz     1 2pz     1 2pz     1 2pz     1 2pz     1 2pz     1 2pz     1 2pz
                                   1 2pz     1 2pz     1 2pz     1 2pz     1 2pz     1 2pz     1 2pz     1 2pz     1 2pz     1 2pz
                                   1 2pz     1 2pz     1 2pz     1 2pz     1 2pz     1 2pz     1 2pz     1 4f0     1 4f2+    1 4f0
                                   1 4f2+    1 4f0     1 4f2+    1 4f0     1 4f2+    1 4f0     1 4f2+    1 4f0     1 4f2+    1 4f0
                                   1 4f2+    1 4f0     1 4f2+    1 4f0     1 4f2+    1 4f0     1 4f2+    1 4f0     1 4f2+    1 4f0
                                   1 4f2+    1 4f0     1 4f2+    1 6h2+    1 6h4+    1 6h0     1 6h2+    1 6h4+    1 6h0     1 6h2+
                                   1 6h4+    1 6h0

   1.5  2.00000    -9.253772     0.000000  0.000000  0.000000  0.000000  0.000000  0.000001  0.000005  0.000021  0.000089  0.000312
                                 0.001092  0.003331  0.010249  0.027880  0.069692  0.156959  0.002545  0.313766  0.406837  0.166921
                                -0.018008  0.031291 -0.011990  0.011789  0.002294 -0.001218 -0.011310  0.000000  0.000000  0.000000
                                 0.000000  0.000000  0.000000  0.000000  0.000000  0.000000  0.000000  0.000000  0.000000  0.000000
                                 0.000000  0.000000  0.000000  0.000000  0.000000  0.000000  0.000000  0.000000  0.000000  0.000000
                                 0.000000  0.000000  0.000000  0.000000  0.000000  0.000000  0.000000  0.000000  0.000000  0.000000
                                 0.000000  0.000000

                                   1 3d1+    1 3d1+    1 3d1+    1 3d1+    1 3d1+    1 3d1+    1 3d1+    1 3d1+    1 3d1+    1 3d1+
                                   1 3d1+    1 3d1+    1 3d1+    1 3d1+    1 3d1+    1 3d1+    1 3d1+    1 3d1+    1 5g1+    1 5g3+
                                   1 5g1+    1 5g3+    1 5g1+    1 5g3+    1 5g1+    1 5g3+    1 5g1+    1 5g3+    1 5g1+    1 5g3+


   1.6  0.20000     0.083655    -0.000000  0.000001 -0.000004  0.000022 -0.000057  0.000255 -0.000332  0.002055  0.000244  0.014870
                                 0.011021  0.173488  0.345400  0.419651  0.315062 -0.104006  0.185972 -0.056520  0.000000  0.000000
                                 0.000000  0.000000  0.000000  0.000000  0.000000  0.000000  0.000000  0.000000  0.000000  0.000000

                                   1 3d1-    1 3d1-    1 3d1-    1 3d1-    1 3d1-    1 3d1-    1 3d1-    1 3d1-    1 3d1-    1 3d1-
                                   1 3d1-    1 3d1-    1 3d1-    1 3d1-    1 3d1-    1 3d1-    1 3d1-    1 3d1-    1 5g1-    1 5g3-
                                   1 5g1-    1 5g3-    1 5g1-    1 5g3-    1 5g1-    1 5g3-    1 5g1-    1 5g3-    1 5g1-    1 5g3-


   1.7  0.20000     0.083655    -0.000000  0.000001 -0.000004  0.000022 -0.000057  0.000255 -0.000332  0.002055  0.000244  0.014870
                                 0.011021  0.173488  0.345400  0.419651  0.315062 -0.104006  0.185972 -0.056520  0.000000  0.000000
                                 0.000000  0.000000  0.000000  0.000000  0.000000  0.000000  0.000000  0.000000  0.000000  0.000000


 EXTRA SYMMETRY OF MOS IN SYMMETRY 1:   1 1 2 3 1 2 3 2 3 1   5 6 4 3 2 1 6 5 4 3   2 1 6 4 5 3 2 1 3 2   1 6 4 5 2 3 1 5 4 6
                                        2 3 1 1 3 2 6 4 5 1   3 2 1 3 2 1 2 3 1 3   2 1 1 2 3 1 3 2 1 3   2 1 1 3 2 1 1 1 1 1
                                        1 1 1 1 1
 EXTRA SYMMETRY OF MOS IN SYMMETRY 2:   1 1 1 1 3 2 1 3 2 3   2 1 2 3 1 3 2 4 6 5   1 2 3 1 4 5 6 1 3 2   6 5 4 1 3 2 1 2 3 1
                                        2 3 1 2 3 1 1 3 2 1   3 2 1 1 1 1 1 1 1 1   1 1
 EXTRA SYMMETRY OF MOS IN SYMMETRY 3:   1 1 1 1 3 2 1 2 3 2   3 1 3 2 1 2 3 6 4 5   1 2 3 1 4 6 5 1 3 2   5 4 6 1 2 3 1 2 3 1
                                        2 3 1 2 3 1 1 2 3 1   2 3 1 1 1 1 1 1 1 1   1 1
 EXTRA SYMMETRY OF MOS IN SYMMETRY 4:   1 1 1 2 3 1 3 2 1 3   2 1 1 3 2 1 3 2 1 1   3 2 1 1 1 1 1 1 1 1
 EXTRA SYMMETRY OF MOS IN SYMMETRY 5:   1 1 1 1 3 2 1 3 2 2   3 1 3 2 1 3 2 4 6 5   1 3 2 1 6 4 5 1 3 2   4 6 5 1 3 2 1 3 2 1
                                        3 2 1 3 2 1 1 3 2 1   2 3 1 1 1 1 1 1 1 1   1 1
 EXTRA SYMMETRY OF MOS IN SYMMETRY 6:   1 1 1 2 3 1 2 3 1 2   3 1 1 2 3 1 2 3 1 1   2 3 1 1 1 1 1 1 1 1
 EXTRA SYMMETRY OF MOS IN SYMMETRY 7:   1 1 1 2 3 1 3 2 1 2   3 1 1 2 3 1 2 3 1 1   2 3 1 1 1 1 1 1 1 1
 EXTRA SYMMETRY OF MOS IN SYMMETRY 8:   1 1 1 1 1 3 2 1 2 3   1 3 2 1 1 1 1 1 1

 Natural orbital dump (state averaged) at molpro section  5202.2    (Orbital set 2)


 CI vector for state symmetry 1
 ==============================

 0a 0 0 0          1.0000000   0.0000000
 a0 0 0 0          0.0000000   1.0000000

 TOTAL ENERGIES                      -105.47779322  -105.47779322

 CI vector for state symmetry 2
 ==============================

 00 a 0 0          1.0000000

 TOTAL ENERGIES                      -105.47779322

 CI vector for state symmetry 3
 ==============================

 00 0 a 0          1.0000000

 TOTAL ENERGIES                      -105.47779322

 CI vector for state symmetry 4
 ==============================

 00 0 0 a          1.0000000

 TOTAL ENERGIES                      -105.47779322



 **********************************************************************************************************************************
 DATASETS  * FILE   NREC   LENGTH (MB)   RECORD NAMES
              1      20       33.82       500      610      700      900      950      970     1000      129      960     1100
                                          VAR    BASINP    GEOM    SYMINP    ZMAT    AOBASIS   BASIS     P2S    ABASIS      S
                                         1400     1410     1420     1200     1210     1080     1600     1650     1700     1380
                                           T        V       ECP      H0       H01     AOSYM     SMH    MOLCAS    OPER     JKOP

              2       6        9.31       200      700     1000      520     4202     5202
                                        OPTIONS   GEOM     BASIS   MCVARS     RHF     MCSCF

 PROGRAMS   *        TOTAL     MULTI       POP       RHF       INT
 CPU TIMES  *        76.26      3.46      0.00      3.11     69.15
 REAL TIME  *        82.80 SEC
 DISK USED  *         4.61 GB
 SF USED    *        54.70 MB
 GA USED    *         0.00 MB       (max)       0.00 MB       (current)
 **********************************************************************************************************************************
   -->
   <time start="14:15:41" end="14:15:45" cpu="3.48" system="0.29" real="3.87"/>
   <storage units="megabyte" memory="8001.84" sf="54.7" df="332.82" eaf="4272.69" ga="0.0"/>
  </jobstep><!--
  --><jobstep command="RHF-SCF" commandset="SCFPRO">
   <!--


 PROGRAM * RHF-SCF (OPEN SHELL)       Authors: W. Meyer, H.-J. Werner


 NUMBER OF ELECTRONS:       6+    5-    SPACE SYMMETRY=1    SPIN SYMMETRY: Doublet
 CONVERGENCE THRESHOLDS:    1.00E-05 (Density)    1.00E-07 (Energy)
 MAX. NUMBER OF ITERATIONS:        0
 INTERPOLATION TYPE:            DIIS
 INTERPOLATION STEPS:              2 (START)      1 (STEP)
 LEVEL SHIFTS:                 -0.60 (CLOSED) -0.30 (OPEN)

 Number of closed-shell orbitals:    5 (   2   1   1   0   1   0   0   0 )
 Number of open-shell orbitals:      1 (   1   0   0   0   0   0   0   0 )


 Molecular orbitals read from record     5202.2  Type=MCSCF/NATURAL (state averaged)

 Molecular orbital dump at record        2101.2

 ITERATION    DDIFF          GRAD             ENERGY        2-EL.EN.            DIPOLE MOMENTS         DIIS   ORB.
    1      0.000D+00      0.000D+00      -105.47779322     93.573483    0.00000    0.00000    0.00000    0    start

 Final alpha occupancy:   3   1   1   0   1   0   0   0
 Final beta  occupancy:   2   1   1   0   1   0   0   0

 !RHF STATE 1.1 Energy               -105.477793224195
   --><property name="Energy" method="RHF" principal="true" stateSymmetry="1" stateNumber="1"
     value="-105.477793224195"/><!--
 Nuclear energy                         0.00000000
 One-electron energy                 -152.26453481
 Two-electron energy                   46.78674159
 Virial quotient                       -1.18986507
 !RHF STATE 1.1 Dipole moment           0.00000000     0.00000000     0.00000000
 Dipole moment /Debye                   0.00000000     0.00000000     0.00000000
   --><property name="Dipole moment" method="RHF" principal="true" stateSymmetry="1"
     stateNumber="1" value="0.0 0.0 0.0"/><!--

 Orbital energies:

         1.1          2.1          3.1          4.1          5.1
     -1.249759    -0.165126     0.083655     0.083655     0.052629

         1.2          2.2          3.2
     -9.253772    -0.609850     0.009227

         1.3          2.3          3.3
     -9.253772    -0.609850     0.009227

         1.4          2.4
      0.083655     0.070422

         1.5          2.5          3.5
     -9.253772    -0.609850     0.009227

         1.6          2.6
      0.083655     0.070422

         1.7          2.7
      0.083655     0.070422

         1.8          2.8
      0.114983     0.286985

 HOMO      3.1     0.083655 =       2.2764eV
 LUMO      2.2    -0.609850 =     -16.5949eV
 LUMO-HOMO        -0.693506 =     -18.8712eV


 **********************************************************************************************************************************
 DATASETS  * FILE   NREC   LENGTH (MB)   RECORD NAMES
              1      20       33.82       500      610      700      900      950      970     1000      129      960     1100
                                          VAR    BASINP    GEOM    SYMINP    ZMAT    AOBASIS   BASIS     P2S    ABASIS      S
                                         1400     1410     1420     1200     1210     1080     1600     1650     1700     1380
                                           T        V       ECP      H0       H01     AOSYM     SMH    MOLCAS    OPER     JKOP

              2       7       12.96       200      700     1000      520     4202     5202     2101
                                        OPTIONS   GEOM     BASIS   MCVARS     RHF     MCSCF     RHF

 PROGRAMS   *        TOTAL       RHF     MULTI       POP       RHF       INT
 CPU TIMES  *        76.37      0.11      3.46      0.00      3.11     69.15
 REAL TIME  *        82.95 SEC
 DISK USED  *         4.61 GB
 SF USED    *        54.70 MB
 GA USED    *         0.00 MB       (max)       0.00 MB       (current)
 **********************************************************************************************************************************
   -->
   <time start="14:15:45" end="14:15:45" cpu="0.11" system="0.02" real="0.15"/>
   <storage units="megabyte" memory="8001.84" sf="54.7" df="332.82" eaf="4272.69" ga="0.0"/>
  </jobstep><!--
 SETTING SCF(1)         =      -105.47779322  AU
 SETTING _CC_NORM_MAX   =         2.00000000
  --><jobstep command="RCCSD(T)" commandset="CCSD">
   <!--


 PROGRAM * CCSD (Restricted open-shell coupled cluster)     Authors: C. Hampel, H.-J. Werner, 1991, M. Deegan, P.J. Knowles, 1992


 Convergence thresholds:  THRVAR = 1.00D-08  THRDEN = 1.00D-06

 CCSD(T)     terms to be evaluated (factor= 1.000)


 Number of closed-shell orbitals:   5 (   2   1   1   0   1   0   0   0 )
 Number of active  orbitals:        1 (   1   0   0   0   0   0   0   0 )
 Number of external orbitals:     374 (  82  61  61  30  61  30  30  19 )

 Memory could be reduced to 86.58 Mwords without degradation in triples

 Number of N-1 electron functions:              11
 Number of N-2 electron functions:              55
 Number of singly external CSFs:               781
 Number of doubly external CSFs:            798538
 Total number of CSFs:                      799319

 Molecular orbitals read from record     2101.2  Type=RHF/CANONICAL (state 1.1)

 Integral transformation finished. Total CPU:   2.39 sec, npass=  1  Memory used:  12.28 MW

 Starting RMP2 calculation

 Wavefunction is spin-projected

 ITER.      SQ.NORM     CORR.ENERGY   TOTAL ENERGY   ENERGY CHANGE        DEN1      VAR(S)    VAR(P)  DIIS     TIME
   1      1.23985918    -0.41236247  -105.89015569    -0.41236247    -0.02401438  0.45D-04  0.54D-01  1  1     2.94
   2      1.53231176    -0.43391677  -105.91171000    -0.02155431    -0.02458877  0.13D-04  0.12D+00  2  2     3.05
   3      1.55771883    -0.43511691  -105.91291014    -0.00120014    -0.02745580  0.12D-04  0.12D+00  3  3     3.14
   4      1.31542857    -0.42914130  -105.90693453     0.00597561    -0.01135249  0.86D-05  0.32D-01  4  4     3.23
   5      1.36795233    -0.43273394  -105.91052717    -0.00359264    -0.01357815  0.69D-05  0.35D-01  5  5     3.34
   6      1.25667869    -0.42480605  -105.90259927     0.00792789    -0.00877273  0.95D-05  0.24D-01  6  6     3.47
   7      1.28074244    -0.42422019  -105.90201342     0.00058586    -0.00247411  0.56D-05  0.29D-01  6  1     3.70
   8      1.33217465    -0.42369641  -105.90148964     0.00052378    -0.00718900  0.45D-05  0.21D-01  6  3     3.84
   9      1.28503290    -0.42147989  -105.89927311     0.00221653    -0.00468447  0.58D-05  0.16D-01  6  4     4.04
  10      1.30166336    -0.42606113  -105.90385435    -0.00458124    -0.00414420  0.39D-05  0.24D-01  6  2     4.15
  11      1.36905431    -0.43334102  -105.91113425    -0.00727989    -0.00573880  0.11D-05  0.18D-01  6  3     4.28
  12      1.32476125    -0.42904656  -105.90683979     0.00429446    -0.00476898  0.25D-05  0.22D-01  6  1     4.40
  13      1.33150996    -0.42831149  -105.90610471     0.00073507    -0.00600671  0.27D-05  0.23D-01  6  6     4.51
  14      1.31725685    -0.42957109  -105.90736431    -0.00125960    -0.00497375  0.26D-05  0.19D-01  6  5     4.63
  15      1.31716604    -0.43066375  -105.90845697    -0.00109266    -0.00523258  0.24D-05  0.16D-01  6  1     4.75
  16      1.31455854    -0.42965475  -105.90744798     0.00100899    -0.00487254  0.26D-05  0.19D-01  6  6     4.86
  17      1.32773899    -0.43006434  -105.90785756    -0.00040958    -0.00574825  0.25D-05  0.20D-01  6  5     4.98
  18      1.30392821    -0.42965080  -105.90744402     0.00041354    -0.00449987  0.26D-05  0.15D-01  6  1     5.10
  19      1.29663381    -0.42961813  -105.90741136     0.00003266    -0.00457527  0.26D-05  0.13D-01  6  6     5.21
  20      1.33687782    -0.43229841  -105.91009163    -0.00268028    -0.00517389  0.17D-05  0.17D-01  6  3     5.33
  21      1.30746263    -0.43215599  -105.90994922     0.00014242    -0.00402072  0.18D-05  0.16D-01  6  4     5.45
  22      1.31631201    -0.43443180  -105.91222503    -0.00227581    -0.00581785  0.15D-05  0.18D-01  6  2     5.55
  23      1.38424962    -0.43590176  -105.91369499    -0.00146996    -0.00730541  0.11D-05  0.20D-01  6  4     5.67
  24      1.30771433    -0.43025011  -105.90804333     0.00565165    -0.00134966  0.18D-05  0.21D-01  6  2     5.78
  25      1.29983758    -0.43074714  -105.90854036    -0.00049703    -0.00438654  0.16D-05  0.11D-01  6  4     5.89
  26      1.33890873    -0.43728058  -105.91507381    -0.00653344    -0.00528810  0.83D-06  0.13D-01  6  2     6.01
  27      1.31421078    -0.41716691  -105.89496013     0.02011367    -0.00209432  0.30D-05  0.42D-02  6  4     6.13
  28      1.35403056    -0.41884572  -105.89663894    -0.00167881    -0.00186312  0.16D-05  0.48D-02  6  2     6.24
  29      1.35798159    -0.41942562  -105.89721885    -0.00057991    -0.00201356  0.14D-05  0.46D-02  6  3     6.35

 Norm of t1 vector:      0.03190493      S-energy:    -0.00138127      T1 diagnostic:  0.00642980
 Norm of t2 vector:      0.59746436      P-energy:    -0.41804435
                                         Alpha-Beta:  -0.34062614
                                         Alpha-Alpha: -0.04448363
                                         Beta-Beta:   -0.03293457

 ?CONVERGENCE NOT REACHED AFTER MAX. ITERATIONS

 Spin contamination <S**2-Sz**2-Sz>     0.00000000
  Reference energy                   -105.477793224195
   --><property name="energy" method="Reference" stateSymmetry="1" stateNumber="1"
     value="-105.477793224195"/><!--
  RHF-RMP2 correlation energy          -0.419425622968
   --><property name="energy" method="RHF-RMP2 correlation" stateSymmetry="1" stateNumber="1"
     value="-0.419425622968142"/><!--
 !RHF-RMP2 energy                    -105.897218847163
   --><property name="energy" method="RHF-RMP2" principal="true" stateSymmetry="1"
     stateNumber="1" value="-105.897218847163"/><!--
 (NB above energy spin projected)

 Starting RCCSD calculation

 ITER.      SQ.NORM     CORR.ENERGY   TOTAL ENERGY   ENERGY CHANGE        DEN1      VAR(S)    VAR(P)  DIIS     TIME
   1      1.39696969    -0.43027206  -105.90806529    -0.43027206    -0.07387125  0.81D-03  0.15D+00  1  1     7.58
   2      1.49778829    -0.43841609  -105.91620931    -0.00814403    -0.09024644  0.83D-03  0.17D+00  2  2     8.37
   3      1.35382049    -0.42639731  -105.90419053     0.01201878    -0.06455834  0.82D-03  0.14D+00  3  3     9.19
   4      1.53688079    -0.43183219  -105.90962541    -0.00543488    -0.08199908  0.70D-03  0.17D+00  4  4     9.99
   5      1.25362202    -0.40657484  -105.88436806     0.02525735    -0.02535892  0.75D-03  0.13D+00  5  5    10.81
   6      1.27043321    -0.40375943  -105.88155266     0.00281540    -0.04597165  0.64D-03  0.74D-01  6  6    11.64
   7      1.21695676    -0.39704903  -105.87484225     0.00671041    -0.03840195  0.66D-03  0.64D-01  7  7    12.49
   8      1.22233577    -0.37469134  -105.85248456     0.02235769    -0.02660009  0.60D-03  0.50D-01  8  8    13.41
   9      1.30611530    -0.37947441  -105.85726763    -0.00478307    -0.03543534  0.57D-03  0.90D-01  9  9    14.54
  10      1.23549738    -0.38302083  -105.86081405    -0.00354642    -0.01268600  0.52D-03  0.25D-01 10 10    15.43
  11      1.21925482    -0.38240951  -105.86020274     0.00061132    -0.01069877  0.55D-03  0.20D-01 11 11    16.29
  12      1.22553875    -0.38180161  -105.85959484     0.00060790    -0.00288778  0.38D-03  0.74D-02 12 12    17.16
  13      1.26953685    -0.38239567  -105.86018890    -0.00059406    -0.00516722  0.26D-03  0.90D-02 13 13    18.05
  14      1.25479647    -0.38132043  -105.85911366     0.00107524    -0.00307742  0.28D-03  0.51D-02 14 14    18.97
  15      1.29032275    -0.38258037  -105.86037360    -0.00125994    -0.00265143  0.19D-03  0.38D-02 15 15    20.36
  16      1.29268386    -0.38283817  -105.86063139    -0.00025779    -0.00282102  0.18D-03  0.39D-02 15  5    21.31
  17      1.29698967    -0.38374937  -105.86154259    -0.00091120    -0.00191561  0.16D-03  0.25D-02 15  3    22.25
  18      1.30077793    -0.38387535  -105.86166858    -0.00012599    -0.00205498  0.15D-03  0.28D-02 15  1    23.18
  19      1.31049129    -0.38211037  -105.85990360     0.00176498    -0.00104499  0.12D-03  0.31D-02 15  4    24.12
  20      1.31336856    -0.38429251  -105.86208573    -0.00218214    -0.00149738  0.10D-03  0.22D-02 15  9    25.05
  21      1.30907560    -0.38559587  -105.86338910    -0.00130336    -0.00139648  0.10D-03  0.23D-02 15 10    25.97
  22      1.30974175    -0.38548096  -105.86327418     0.00011492    -0.00142285  0.10D-03  0.24D-02 15  2    26.92
  23      1.31466199    -0.38640181  -105.86419504    -0.00092086    -0.00111782  0.88D-04  0.26D-02 15  6    27.88
  24      1.31618541    -0.38638780  -105.86418102     0.00001402    -0.00127744  0.87D-04  0.22D-02 15  4    28.96
  25      1.31592542    -0.38695744  -105.86475067    -0.00056964    -0.00121373  0.82D-04  0.20D-02 15 13    29.91
  26      1.31567337    -0.38786591  -105.86565913    -0.00090847    -0.00100812  0.73D-04  0.14D-02 15  7    30.84
  27      1.32462498    -0.38777977  -105.86557300     0.00008614    -0.00108228  0.61D-04  0.14D-02 15  8    31.81
  28      1.31522889    -0.38823103  -105.86602426    -0.00045126    -0.00090187  0.65D-04  0.12D-02 15 10    32.75
  29      1.32560724    -0.38974397  -105.86753720    -0.00151294    -0.00088644  0.40D-04  0.99D-03 15  1    33.70
  30      1.32196064    -0.38890837  -105.86670159     0.00083561    -0.00086542  0.48D-04  0.98D-03 15 14    34.67
  31      1.32238142    -0.38925345  -105.86704668    -0.00034509    -0.00089403  0.46D-04  0.11D-02 15 15    35.62
  32      1.32259621    -0.38738413  -105.86517735     0.00186933    -0.00081184  0.47D-04  0.87D-03 15  4    36.58
  33      1.32751360    -0.38710183  -105.86489506     0.00028229    -0.00082991  0.42D-04  0.90D-03 15 11    37.50
  34      1.33113883    -0.38654179  -105.86433501     0.00056005    -0.00081334  0.41D-04  0.98D-03 15 12    38.43
  35      1.33365067    -0.38635710  -105.86415032     0.00018469    -0.00082371  0.39D-04  0.11D-02 15  9    39.36
  36      1.33403110    -0.38511037  -105.86290359     0.00124673    -0.00074797  0.40D-04  0.12D-02 15  1    40.30
  37      1.33228491    -0.38517218  -105.86296541    -0.00006181    -0.00077378  0.42D-04  0.85D-03 15  8    41.23
  38      1.32650133    -0.38507666  -105.86286989     0.00009552    -0.00075376  0.48D-04  0.89D-03 15 13    42.17
  39      1.32669327    -0.38465945  -105.86245268     0.00041721    -0.00077380  0.48D-04  0.89D-03 15  7    43.11
  40      1.32037333    -0.38408346  -105.86187668     0.00057600    -0.00075284  0.56D-04  0.81D-03 15 10    44.05
  41      1.32156655    -0.38380250  -105.86159573     0.00028095    -0.00079156  0.54D-04  0.98D-03 15  6    44.98
  42      1.32553655    -0.38434613  -105.86213936    -0.00054363    -0.00085043  0.40D-04  0.17D-02 15  2    45.90
  43      1.32544248    -0.38364005  -105.86143327     0.00070608    -0.00068954  0.41D-04  0.13D-02 15 14    46.85
  44      1.31450511    -0.38224019  -105.86003342     0.00139985    -0.00073114  0.60D-04  0.91D-03 15  4    47.78
  45      1.31377432    -0.38225940  -105.86005262    -0.00001921    -0.00072099  0.61D-04  0.85D-03 15  8    48.73
  46      1.31558160    -0.38236734  -105.86016057    -0.00010795    -0.00075677  0.60D-04  0.13D-02 15 15    49.68
  47      1.31383000    -0.38221989  -105.86001311     0.00014746    -0.00065310  0.63D-04  0.92D-03 15  3    50.63
  48      1.32756395    -0.38257402  -105.86036725    -0.00035414    -0.00052855  0.39D-04  0.85D-03 15  5    51.54
  49      1.32518270    -0.38320173  -105.86099495    -0.00062770    -0.00054285  0.37D-04  0.99D-03 15 11    52.47
  50      1.32848550    -0.38273857  -105.86053180     0.00046315    -0.00049232  0.36D-04  0.11D-02 15 12    53.41
  51      1.33172476    -0.38172506  -105.85951828     0.00101351    -0.00048013  0.43D-04  0.80D-03 15 11    54.39
  52      1.32693733    -0.38295197  -105.86074519    -0.00122691    -0.00056599  0.38D-04  0.10D-02 15 12    55.32
  53      1.32959038    -0.38296575  -105.86075897    -0.00001377    -0.00043820  0.34D-04  0.12D-02 15 11    56.23
  54      1.33484189    -0.38165696  -105.85945018     0.00130878    -0.00041307  0.40D-04  0.79D-03 15 12    57.18
  55      1.32972137    -0.38310899  -105.86090221    -0.00145202    -0.00056064  0.35D-04  0.12D-02 15 11    58.12
  56      1.33081729    -0.38333226  -105.86112548    -0.00022328    -0.00040472  0.31D-04  0.14D-02 15 12    59.09
  57      1.33571839    -0.38195125  -105.85974447     0.00138101    -0.00038240  0.36D-04  0.77D-03 15 11    60.01
  58      1.33219142    -0.38337957  -105.86117280    -0.00142832    -0.00056053  0.31D-04  0.13D-02 15 12    60.94
  59      1.33197131    -0.38361029  -105.86140352    -0.00023072    -0.00037993  0.28D-04  0.14D-02 15 11    61.88
  60      1.33460516    -0.38207634  -105.85986956     0.00153396    -0.00042926  0.37D-04  0.79D-03 15 12    62.79
  61      1.33019429    -0.38321988  -105.86101310    -0.00114354    -0.00060134  0.35D-04  0.11D-02 15 11    63.74
  62      1.33260091    -0.38347879  -105.86127202    -0.00025892    -0.00034706  0.28D-04  0.14D-02 15 12    64.70
  63      1.33541098    -0.38178988  -105.85958310     0.00168891    -0.00041658  0.38D-04  0.87D-03 15 11    65.65
  64      1.33124578    -0.38291735  -105.86071058    -0.00112747    -0.00063532  0.36D-04  0.11D-02 15 12    66.59
  65      1.33331977    -0.38331661  -105.86110983    -0.00039926    -0.00031660  0.27D-04  0.13D-02 15 11    67.51
  66      1.35122113    -0.38192366  -105.85971688     0.00139295    -0.00037874  0.26D-04  0.51D-03 15  8    68.45
  67      1.36163010    -0.38122876  -105.85902198     0.00069490    -0.00045205  0.29D-04  0.77D-03 15 15    69.40
  68      1.37018635    -0.38141176  -105.85920498    -0.00018300    -0.00034136  0.32D-04  0.50D-03 15 12    70.32
  69      1.37080698    -0.38122439  -105.85901761     0.00018737    -0.00036602  0.29D-04  0.51D-03 15 11    71.26
  70      1.38340136    -0.38157376  -105.85936698    -0.00034937    -0.00025764  0.15D-04  0.41D-03 15  8    72.19
  71      1.38611155    -0.38108686  -105.85888008     0.00048690    -0.00027589  0.16D-04  0.37D-03 15  2    73.11
  72      1.38704817    -0.38097482  -105.85876804     0.00011204    -0.00026554  0.16D-04  0.37D-03 15  3    74.06
  73      1.39845224    -0.38140096  -105.85919418    -0.00042614    -0.00021981  0.13D-04  0.25D-03 15  5    74.98
  74      1.39830560    -0.38140999  -105.85920321    -0.00000903    -0.00022068  0.13D-04  0.26D-03 15 14    75.91
  75      1.39967643    -0.38132840  -105.85912163     0.00008159    -0.00022167  0.13D-04  0.26D-03 15 13    76.86
  76      1.40206439    -0.38142000  -105.85921322    -0.00009159    -0.00021043  0.13D-04  0.24D-03 15 10    77.82
  77      1.40063990    -0.38155094  -105.85934416    -0.00013094    -0.00021768  0.13D-04  0.25D-03 15  7    78.74
  78      1.40017063    -0.38167978  -105.85947300    -0.00012884    -0.00020686  0.13D-04  0.29D-03 15  4    79.71
  79      1.40397770    -0.38156005  -105.85935328     0.00011973    -0.00022115  0.12D-04  0.31D-03 15  6    80.66
  80      1.40451036    -0.38153722  -105.85933045     0.00002283    -0.00020553  0.12D-04  0.25D-03 15 15    81.60
  81      1.40632084    -0.38106253  -105.85885575     0.00047469    -0.00023176  0.10D-04  0.38D-03 15 12    82.55
  82      1.41075777    -0.38142248  -105.85921571    -0.00035995    -0.00018043  0.10D-04  0.21D-03 15  2    83.50
  83      1.41149361    -0.38168299  -105.85947622    -0.00026051    -0.00018921  0.75D-05  0.38D-03 15  1    84.46
  84      1.41895135    -0.38147539  -105.85926862     0.00020760    -0.00016880  0.76D-05  0.39D-03 15  9    85.37
  85      1.43128465    -0.38122783  -105.85902106     0.00024756    -0.00014573  0.69D-05  0.23D-03 15  3    86.31
  86      1.43526707    -0.38118398  -105.85897721     0.00004385    -0.00015844  0.68D-05  0.19D-03 15  5    87.25
  87      1.43540444    -0.38111860  -105.85891183     0.00006538    -0.00014565  0.71D-05  0.16D-03 15 15    88.19
  88      1.43600063    -0.38111290  -105.85890612     0.00000570    -0.00015379  0.66D-05  0.20D-03 15  8    89.11
  89      1.43332428    -0.38119986  -105.85899308    -0.00008696    -0.00013184  0.65D-05  0.16D-03 15 11    90.03
  90      1.43557930    -0.38112746  -105.85892068     0.00007240    -0.00013578  0.62D-05  0.15D-03 15 12    90.95
  91      1.43635544    -0.38112715  -105.85892037     0.00000031    -0.00013307  0.63D-05  0.14D-03 15  2    91.90
  92      1.43341940    -0.38126623  -105.85905945    -0.00013908    -0.00013459  0.61D-05  0.15D-03 15  9    92.83
  93      1.43671332    -0.38123304  -105.85902627     0.00003319    -0.00012699  0.63D-05  0.15D-03 15  5    93.78
  94      1.43704568    -0.38133755  -105.85913077    -0.00010451    -0.00013169  0.61D-05  0.16D-03 15  3    94.73
  95      1.43843679    -0.38121198  -105.85900520     0.00012557    -0.00012344  0.62D-05  0.13D-03 15  4    95.69
  96      1.43776583    -0.38119391  -105.85898713     0.00001807    -0.00012647  0.60D-05  0.14D-03 15 11    96.61
  97      1.43666887    -0.38127531  -105.85906853    -0.00008140    -0.00011996  0.59D-05  0.13D-03 15  7    97.53
  98      1.43695714    -0.38131472  -105.85910794    -0.00003941    -0.00012132  0.58D-05  0.14D-03 15  5    98.47
  99      1.43748521    -0.38130182  -105.85909505     0.00001290    -0.00011641  0.60D-05  0.13D-03 15  3    99.41

 Norm of t1 vector:      0.10712221      S-energy:    -0.00232449      T1 diagnostic:  0.02225309
                                                                       D1 diagnostic:  0.06268167
 Norm of t2 vector:      0.65269445      P-energy:    -0.37897733
                                         Alpha-Beta:  -0.30683466
                                         Alpha-Alpha: -0.04133625
                                         Beta-Beta:   -0.03080642

 Singles amplitudes (print threshold =  0.500E-01):

         I         SYM. A    A   T(IA) [Alpha-Alpha]

         2         1         3     -0.05989985

 Doubles amplitudes (print threshold =  0.500E-01):

         I         J         SYM. A    SYM. B    A         B      T(IJ, AB) [Alpha-Alpha]

         3         2         2         2         1        11      0.07341726
         3         2         2         2        11         1     -0.07341726
         3         2         3         3         1        11      0.07341381
         3         2         3         3        11         1     -0.07341381
         3         2         5         5         1        11     -0.17036848
         3         2         5         5        11         1      0.17036848

         I         J         SYM. A    SYM. B    A         B      T(IJ, AB) [Alpha-Beta]

         1         1         2         2         1         1     -0.19516464
         1         1         3         3         1         1     -0.19516571
         1         1         5         5         1         1     -0.17418570
         2         2         2         2         2         2     -0.12755154
         2         2         2         2         2         3     -0.07221031
         2         2         2         2         3         2     -0.07221031
         2         2         3         3         2         2     -0.12753445
         2         2         3         3         2         3     -0.07220464
         2         2         3         3         3         2     -0.07220464
         2         2         5         5         2         2     -0.12035414
         2         2         5         5         2         3     -0.06705078
         2         2         5         5         3         2     -0.06705078
         3         1         2         2         1         1     -0.08844570
         3         1         3         3         1         1     -0.08846214
         3         1         5         5         1         1      0.17578943
         3         2         2         2         1        11      0.07397139
         3         2         3         3         1        11      0.07398738
         3         2         5         5         1        11     -0.17156362

 ?CONVERGENCE NOT REACHED AFTER MAX. ITERATIONS

 ?ERROR: NO CONVERGENCE. TRIPLES WILL NOT BE DONE. THIS CAN BE AVOIDED USING THE NOCHECK OPTION.

 Spin contamination <S**2-Sz**2-Sz>     0.00000000


 RESULTS
 =======

  Reference energy                   -105.477793224195
   --><property name="energy" method="Reference" stateSymmetry="1" stateNumber="1"
     value="-105.477793224195"/><!--
  RCCSD singles energy                 -0.002324493467
   --><property name="energy" method="RCCSD singles" stateSymmetry="1" stateNumber="1"
     value="-0.232449346671748E-02"/><!--
  RCCSD pair energy                    -0.378977327730
   --><property name="energy" method="RCCSD pair" stateSymmetry="1" stateNumber="1"
     value="-0.37897732772951"/><!--
  RCCSD correlation energy             -0.381301821196
   --><property name="energy" method="RCCSD correlation" stateSymmetry="1" stateNumber="1"
     value="-0.381301821196228"/><!--

 !RHF-RCCSD energy                   -105.859095045391
   --><property name="energy" method="RHF-RCCSD" principal="true" stateSymmetry="1"
     stateNumber="1" value="-105.859095045391"/><!--

 Program statistics:

 Available memory in ccsd:               999999552
 Min. memory needed in ccsd:               2738761
 Max. memory used in ccsd:                 3645648
 Max. memory used in cckext:               3148987 (99 integral passes)
 Max. memory used in cckint:              12278172 ( 1 integral passes)


 ? Error
 ? No convergence. This error exit can be avoided using the NOCHECK option
 ? The problem occurs in ccsd
   --><error type="Error" location="ccsd"
     message="No convergence. This error exit can be avoided using the NOCHECK option"/><!--
  --></jobstep><!--
  -->
  <input>
  <!--
 --></job><!--
--></molpro>
