JobID : 199595
Number of nodes requested: 4
List of nodes assigned to the job: andes[670,679-681]

     Program PWSCF v.7.0 starts on  5Apr2022 at 14:17:35 
        Git branch: develop-with-pw2qmcpack
        Last git commit: e9e05f589a4fdf74451ef95843589533ef75388f
        Last git commit date: Thu Jan 6 11:55:55 2022 -0600
        Last git commit subject: Merge branch develop into develop-with-pw2qmcp..

     This program is part of the open-source Quantum ESPRESSO suite
     for quantum simulation of materials; please cite
         "P. Giannozzi et al., J. Phys.:Condens. Matter 21 395502 (2009);
         "P. Giannozzi et al., J. Phys.:Condens. Matter 29 465901 (2017);
         "P. Giannozzi et al., J. Chem. Phys. 152 154105 (2020);
          URL http://www.quantum-espresso.org", 
     in publications or presentations arising from this work. More details at
     http://www.quantum-espresso.org/quote

     Parallel version (MPI), running on    32 processors

     MPI processes distributed on     4 nodes
     R & G space division:  proc/nbgrp/npool/nimage =      32
     228937 MiB available memory on the printing compute node when the environment starts
 
     Reading input from scf.in

     Current dimensions of program PWSCF are:
     Max number of different atomic species (ntypx) = 10
     Max number of k-points (npk) =  40000
     Max angular momentum in pseudopotentials (lmaxx) =  4
     Message from routine scan_end:
     No INFO block end statement, possibly corrupted file

     IMPORTANT: XC functional enforced from input :
     Exchange-correlation= PBE
                           (   1   4   3   4   0   0   0)
     Any further DFT definition will be discarded
     Please, verify this is what you really want


     gamma-point specific algorithms are used
     Message from routine setup:
     the system is metallic, specify occupations

     Subspace diagonalization in iterative solution of the eigenvalue problem:
     a serial algorithm will be used

 
     Parallelization info
     --------------------
     sticks:   dense  smooth     PW     G-vecs:    dense   smooth      PW
     Min        1420    1420    354               227876   227876   28490
     Max        1422    1422    356               227886   227886   28504
     Sum       45461   45461  11369              7292125  7292125  911913
 
     Using Slab Decomposition
 


     bravais-lattice index     =            0
     lattice parameter (alat)  =      18.8973  a.u.
     unit-cell volume          =    6748.3346 (a.u.)^3
     number of atoms/cell      =            1
     number of atomic types    =            1
     number of electrons       =        19.00 (up:  13.00, down:   6.00)
     number of Kohn-Sham states=           20
     kinetic-energy cutoff     =     400.0000  Ry
     charge density cutoff     =    1600.0000  Ry
     scf convergence threshold =      1.0E-06
     mixing beta               =       0.2000
     number of iterations used =            8  plain     mixing
     Exchange-correlation= PBE
                           (   1   4   3   4   0   0   0)

     celldm(1)=  18.897261  celldm(2)=   0.000000  celldm(3)=   0.000000
     celldm(4)=   0.000000  celldm(5)=   0.000000  celldm(6)=   0.000000

     crystal axes: (cart. coord. in units of alat)
               a(1) = (   1.000000   0.000000   0.000000 )  
               a(2) = (   0.000000   1.000000   0.000000 )  
               a(3) = (   0.000000   0.000000   1.000000 )  

     reciprocal axes: (cart. coord. in units 2 pi/alat)
               b(1) = (  1.000000  0.000000  0.000000 )  
               b(2) = (  0.000000  1.000000  0.000000 )  
               b(3) = (  0.000000  0.000000  1.000000 )  


     PseudoPot. # 1 for Tb read from file:
     ./Tb.upf
     MD5 check sum: b33c2916c3a4d5697a1af0b816d76edb
     Pseudo is Norm-conserving, Zval = 19.0
     Generated by new atomic code, or converted to UPF format
     Using radial grid of 1183 points,  3 beta functions with: 
                l(1) =   1
                l(2) =   2
                l(3) =   3

     atomic species   valence    mass     pseudopotential
        Tb            19.00   158.92400     Tb( 1.00)

     Starting magnetic structure 
     atomic species   magnetization
        Tb           0.200

     No symmetry found



   Cartesian axes

     site n.     atom                  positions (alat units)
         1           Tb  tau(   1) = (   0.5000000   0.5000000   0.5000000  )

     number of k points=     1
                       cart. coord. in units 2pi/alat
        k(    1) = (   0.0000000   0.0000000   0.0000000), wk =   1.0000000

     Dense  grid:  3646063 G-vectors     FFT dimensions: ( 243, 243, 243)

     Estimated max dynamical RAM per process >     167.62 MB

     Estimated total dynamical RAM >       5.24 GB
     Generating pointlists ...
     new r_m :   0.4125 (alat units)  7.7951 (a.u.) for type    1

     The initial density is read from file :
     pwscf_output/pwscf.save/charge-density


     negative rho (up, down):  1.608E-07 9.592E-11
     Starting wfcs from file

     total cpu time spent up to now is        2.6 secs

     per-process dynamical memory:   359.3 Mb

     Self-consistent Calculation

     iteration #  1     ecut=   400.00 Ry     beta= 0.20
     Davidson diagonalization with overlap
     ethr =  1.00E-05,  avg # of iterations =  2.0

     negative rho (up, down):  5.728E-08 0.000E+00

     total cpu time spent up to now is        4.4 secs

     total energy              =    -258.79863359 Ry
     estimated scf accuracy    <       0.10635285 Ry

     total magnetization       =     7.00 Bohr mag/cell
     absolute magnetization    =     7.02 Bohr mag/cell

     iteration #  2     ecut=   400.00 Ry     beta= 0.20
     Davidson diagonalization with overlap
     ethr =  5.60E-04,  avg # of iterations =  1.5

     negative rho (up, down):  3.582E-08 0.000E+00

     total cpu time spent up to now is        5.9 secs

     total energy              =    -258.82440701 Ry
     estimated scf accuracy    <       0.14014262 Ry

     total magnetization       =     7.00 Bohr mag/cell
     absolute magnetization    =     7.01 Bohr mag/cell

     iteration #  3     ecut=   400.00 Ry     beta= 0.20
     Davidson diagonalization with overlap
     ethr =  5.60E-04,  avg # of iterations =  1.0

     negative rho (up, down):  1.618E-08 0.000E+00

     total cpu time spent up to now is        7.5 secs

     total energy              =    -258.81141121 Ry
     estimated scf accuracy    <       0.09378805 Ry

     total magnetization       =     7.00 Bohr mag/cell
     absolute magnetization    =     7.01 Bohr mag/cell

     iteration #  4     ecut=   400.00 Ry     beta= 0.20
     Davidson diagonalization with overlap
     ethr =  4.94E-04,  avg # of iterations =  1.0

     negative rho (up, down):  3.638E-08 0.000E+00

     total cpu time spent up to now is        9.0 secs

     total energy              =    -258.82240686 Ry
     estimated scf accuracy    <       0.45943151 Ry

     total magnetization       =     7.00 Bohr mag/cell
     absolute magnetization    =     7.14 Bohr mag/cell

     iteration #  5     ecut=   400.00 Ry     beta= 0.20
     Davidson diagonalization with overlap
     ethr =  4.94E-04,  avg # of iterations =  1.0

     negative rho (up, down):  4.101E-08 0.000E+00

     total cpu time spent up to now is       10.5 secs

     total energy              =    -258.82444139 Ry
     estimated scf accuracy    <       0.31006549 Ry

     total magnetization       =     7.00 Bohr mag/cell
     absolute magnetization    =     7.09 Bohr mag/cell

     iteration #  6     ecut=   400.00 Ry     beta= 0.20
     Davidson diagonalization with overlap
     ethr =  4.94E-04,  avg # of iterations =  1.0

     negative rho (up, down):  1.586E-08 0.000E+00

     total cpu time spent up to now is       12.1 secs

     total energy              =    -258.83170998 Ry
     estimated scf accuracy    <       0.37345453 Ry

     total magnetization       =     7.00 Bohr mag/cell
     absolute magnetization    =     7.11 Bohr mag/cell

     iteration #  7     ecut=   400.00 Ry     beta= 0.20
     Davidson diagonalization with overlap
     ethr =  4.94E-04,  avg # of iterations =  1.0

     total cpu time spent up to now is       13.6 secs

     total energy              =    -258.81821560 Ry
     estimated scf accuracy    <       0.49095750 Ry

     total magnetization       =     7.00 Bohr mag/cell
     absolute magnetization    =     7.15 Bohr mag/cell

     iteration #  8     ecut=   400.00 Ry     beta= 0.20
     Davidson diagonalization with overlap
     ethr =  4.94E-04,  avg # of iterations =  1.0

     total cpu time spent up to now is       15.2 secs

     total energy              =    -258.82067974 Ry
     estimated scf accuracy    <       0.07446243 Ry

     total magnetization       =     7.00 Bohr mag/cell
     absolute magnetization    =     7.02 Bohr mag/cell

     iteration #  9     ecut=   400.00 Ry     beta= 0.20
     Davidson diagonalization with overlap
     ethr =  3.92E-04,  avg # of iterations =  1.0

     total cpu time spent up to now is       16.7 secs

     total energy              =    -258.81938440 Ry
     estimated scf accuracy    <       0.10063971 Ry

     total magnetization       =     7.00 Bohr mag/cell
     absolute magnetization    =     7.03 Bohr mag/cell

     iteration # 10     ecut=   400.00 Ry     beta= 0.20
     Davidson diagonalization with overlap
     ethr =  3.92E-04,  avg # of iterations =  1.0

     total cpu time spent up to now is       18.3 secs

     total energy              =    -258.82019030 Ry
     estimated scf accuracy    <       0.00119264 Ry

     total magnetization       =     7.00 Bohr mag/cell
     absolute magnetization    =     7.01 Bohr mag/cell

     iteration # 11     ecut=   400.00 Ry     beta= 0.20
     Davidson diagonalization with overlap
     ethr =  6.28E-06,  avg # of iterations =  1.5

     total cpu time spent up to now is       19.9 secs

     total energy              =    -258.81847495 Ry
     estimated scf accuracy    <       0.06709634 Ry

     total magnetization       =     7.00 Bohr mag/cell
     absolute magnetization    =     7.02 Bohr mag/cell

     iteration # 12     ecut=   400.00 Ry     beta= 0.20
     Davidson diagonalization with overlap
     ethr =  6.28E-06,  avg # of iterations =  2.0

     total cpu time spent up to now is       21.5 secs

     total energy              =    -258.82066328 Ry
     estimated scf accuracy    <       0.02349921 Ry

     total magnetization       =     7.00 Bohr mag/cell
     absolute magnetization    =     7.01 Bohr mag/cell

     iteration # 13     ecut=   400.00 Ry     beta= 0.20
     Davidson diagonalization with overlap
     ethr =  6.28E-06,  avg # of iterations =  1.0

     total cpu time spent up to now is       23.1 secs

     total energy              =    -258.82105517 Ry
     estimated scf accuracy    <       0.03053472 Ry

     total magnetization       =     7.00 Bohr mag/cell
     absolute magnetization    =     7.01 Bohr mag/cell

     iteration # 14     ecut=   400.00 Ry     beta= 0.20
     Davidson diagonalization with overlap
     ethr =  6.28E-06,  avg # of iterations =  1.0

     total cpu time spent up to now is       24.6 secs

     total energy              =    -258.82107781 Ry
     estimated scf accuracy    <       0.03961739 Ry

     total magnetization       =     7.00 Bohr mag/cell
     absolute magnetization    =     7.01 Bohr mag/cell

     iteration # 15     ecut=   400.00 Ry     beta= 0.20
     Davidson diagonalization with overlap
     ethr =  6.28E-06,  avg # of iterations =  1.0

     total cpu time spent up to now is       26.2 secs

     total energy              =    -258.82088187 Ry
     estimated scf accuracy    <       0.03776909 Ry

     total magnetization       =     7.00 Bohr mag/cell
     absolute magnetization    =     7.01 Bohr mag/cell

     iteration # 16     ecut=   400.00 Ry     beta= 0.20
     Davidson diagonalization with overlap
     ethr =  6.28E-06,  avg # of iterations =  1.0

     total cpu time spent up to now is       27.8 secs

     total energy              =    -258.81993678 Ry
     estimated scf accuracy    <       0.03201896 Ry

     total magnetization       =     7.00 Bohr mag/cell
     absolute magnetization    =     7.01 Bohr mag/cell

     iteration # 17     ecut=   400.00 Ry     beta= 0.20
     Davidson diagonalization with overlap
     ethr =  6.28E-06,  avg # of iterations =  1.0

     total cpu time spent up to now is       29.4 secs

     total energy              =    -258.82010561 Ry
     estimated scf accuracy    <       0.00322945 Ry

     total magnetization       =     7.00 Bohr mag/cell
     absolute magnetization    =     7.01 Bohr mag/cell

     iteration # 18     ecut=   400.00 Ry     beta= 0.20
     Davidson diagonalization with overlap
     ethr =  6.28E-06,  avg # of iterations =  1.0

     total cpu time spent up to now is       30.9 secs

     total energy              =    -258.82018125 Ry
     estimated scf accuracy    <       0.00025482 Ry

     total magnetization       =     7.00 Bohr mag/cell
     absolute magnetization    =     7.01 Bohr mag/cell

     iteration # 19     ecut=   400.00 Ry     beta= 0.20
     Davidson diagonalization with overlap
     ethr =  1.34E-06,  avg # of iterations =  4.5

     total cpu time spent up to now is       32.6 secs

     total energy              =    -258.82030171 Ry
     estimated scf accuracy    <       0.00274617 Ry

     total magnetization       =     7.00 Bohr mag/cell
     absolute magnetization    =     7.01 Bohr mag/cell

     iteration # 20     ecut=   400.00 Ry     beta= 0.20
     Davidson diagonalization with overlap
     ethr =  1.34E-06,  avg # of iterations =  1.0

     total cpu time spent up to now is       34.2 secs

     total energy              =    -258.82036499 Ry
     estimated scf accuracy    <       0.01209747 Ry

     total magnetization       =     7.00 Bohr mag/cell
     absolute magnetization    =     7.01 Bohr mag/cell

     iteration # 21     ecut=   400.00 Ry     beta= 0.20
     Davidson diagonalization with overlap
     ethr =  1.34E-06,  avg # of iterations =  1.0

     total cpu time spent up to now is       35.7 secs

     total energy              =    -258.82029307 Ry
     estimated scf accuracy    <       0.01471320 Ry

     total magnetization       =     7.00 Bohr mag/cell
     absolute magnetization    =     7.01 Bohr mag/cell

     iteration # 22     ecut=   400.00 Ry     beta= 0.20
     Davidson diagonalization with overlap
     ethr =  1.34E-06,  avg # of iterations =  1.0

     total cpu time spent up to now is       37.3 secs

     total energy              =    -258.82028563 Ry
     estimated scf accuracy    <       0.00830154 Ry

     total magnetization       =     7.00 Bohr mag/cell
     absolute magnetization    =     7.01 Bohr mag/cell

     iteration # 23     ecut=   400.00 Ry     beta= 0.20
     Davidson diagonalization with overlap
     ethr =  1.34E-06,  avg # of iterations =  1.0

     total cpu time spent up to now is       38.8 secs

     total energy              =    -258.82024020 Ry
     estimated scf accuracy    <       0.00700097 Ry

     total magnetization       =     7.00 Bohr mag/cell
     absolute magnetization    =     7.01 Bohr mag/cell

     iteration # 24     ecut=   400.00 Ry     beta= 0.20
     Davidson diagonalization with overlap
     ethr =  1.34E-06,  avg # of iterations =  1.0

     total cpu time spent up to now is       40.4 secs

     total energy              =    -258.82028744 Ry
     estimated scf accuracy    <       0.00313076 Ry

     total magnetization       =     7.00 Bohr mag/cell
     absolute magnetization    =     7.01 Bohr mag/cell

     iteration # 25     ecut=   400.00 Ry     beta= 0.20
     Davidson diagonalization with overlap
     ethr =  1.34E-06,  avg # of iterations =  1.0

     total cpu time spent up to now is       41.9 secs

     total energy              =    -258.82017848 Ry
     estimated scf accuracy    <       0.01285218 Ry

     total magnetization       =     7.00 Bohr mag/cell
     absolute magnetization    =     7.01 Bohr mag/cell

     iteration # 26     ecut=   400.00 Ry     beta= 0.20
     Davidson diagonalization with overlap
     ethr =  1.34E-06,  avg # of iterations =  1.0

     total cpu time spent up to now is       43.5 secs

     total energy              =    -258.82019185 Ry
     estimated scf accuracy    <       0.00217645 Ry

     total magnetization       =     7.00 Bohr mag/cell
     absolute magnetization    =     7.01 Bohr mag/cell

     iteration # 27     ecut=   400.00 Ry     beta= 0.20
     Davidson diagonalization with overlap
     ethr =  1.34E-06,  avg # of iterations =  1.0

     total cpu time spent up to now is       45.0 secs

     total energy              =    -258.82021537 Ry
     estimated scf accuracy    <       0.00008170 Ry

     total magnetization       =     7.00 Bohr mag/cell
     absolute magnetization    =     7.01 Bohr mag/cell

     iteration # 28     ecut=   400.00 Ry     beta= 0.20
     Davidson diagonalization with overlap
     ethr =  4.30E-07,  avg # of iterations =  1.5

     total cpu time spent up to now is       46.6 secs

     total energy              =    -258.82021710 Ry
     estimated scf accuracy    <       0.00036519 Ry

     total magnetization       =     7.00 Bohr mag/cell
     absolute magnetization    =     7.01 Bohr mag/cell

     iteration # 29     ecut=   400.00 Ry     beta= 0.20
     Davidson diagonalization with overlap
     ethr =  4.30E-07,  avg # of iterations =  1.0

     total cpu time spent up to now is       48.2 secs

     total energy              =    -258.82022015 Ry
     estimated scf accuracy    <       0.00005470 Ry

     total magnetization       =     7.00 Bohr mag/cell
     absolute magnetization    =     7.01 Bohr mag/cell

     iteration # 30     ecut=   400.00 Ry     beta= 0.20
     Davidson diagonalization with overlap
     ethr =  2.88E-07,  avg # of iterations =  2.0

     total cpu time spent up to now is       49.8 secs

     total energy              =    -258.82022841 Ry
     estimated scf accuracy    <       0.00028547 Ry

     total magnetization       =     7.00 Bohr mag/cell
     absolute magnetization    =     7.01 Bohr mag/cell

     iteration # 31     ecut=   400.00 Ry     beta= 0.20
     Davidson diagonalization with overlap
     ethr =  2.88E-07,  avg # of iterations =  1.0

     total cpu time spent up to now is       51.3 secs

     total energy              =    -258.82023408 Ry
     estimated scf accuracy    <       0.00000284 Ry

     total magnetization       =     7.00 Bohr mag/cell
     absolute magnetization    =     7.01 Bohr mag/cell

     iteration # 32     ecut=   400.00 Ry     beta= 0.20
     Davidson diagonalization with overlap
     ethr =  1.49E-08,  avg # of iterations =  8.5

     total cpu time spent up to now is       53.4 secs

     total energy              =    -258.82024523 Ry
     estimated scf accuracy    <       0.00000733 Ry

     total magnetization       =     7.00 Bohr mag/cell
     absolute magnetization    =     7.01 Bohr mag/cell

     iteration # 33     ecut=   400.00 Ry     beta= 0.20
     Davidson diagonalization with overlap
     ethr =  1.49E-08,  avg # of iterations =  1.0

     total cpu time spent up to now is       55.0 secs

     total energy              =    -258.82024516 Ry
     estimated scf accuracy    <       0.00000719 Ry

     total magnetization       =     7.00 Bohr mag/cell
     absolute magnetization    =     7.01 Bohr mag/cell

     iteration # 34     ecut=   400.00 Ry     beta= 0.20
     Davidson diagonalization with overlap
     ethr =  1.49E-08,  avg # of iterations =  1.0

     total cpu time spent up to now is       56.5 secs

     total energy              =    -258.82024519 Ry
     estimated scf accuracy    <       0.00000679 Ry

     total magnetization       =     7.00 Bohr mag/cell
     absolute magnetization    =     7.01 Bohr mag/cell

     iteration # 35     ecut=   400.00 Ry     beta= 0.20
     Davidson diagonalization with overlap
     ethr =  1.49E-08,  avg # of iterations =  1.5

     total cpu time spent up to now is       58.1 secs

     total energy              =    -258.82024636 Ry
     estimated scf accuracy    <       0.00000618 Ry

     total magnetization       =     7.00 Bohr mag/cell
     absolute magnetization    =     7.01 Bohr mag/cell

     iteration # 36     ecut=   400.00 Ry     beta= 0.20
     Davidson diagonalization with overlap
     ethr =  1.49E-08,  avg # of iterations =  1.0

     total cpu time spent up to now is       59.7 secs

     total energy              =    -258.82024571 Ry
     estimated scf accuracy    <       0.00000581 Ry

     total magnetization       =     7.00 Bohr mag/cell
     absolute magnetization    =     7.01 Bohr mag/cell

     iteration # 37     ecut=   400.00 Ry     beta= 0.20
     Davidson diagonalization with overlap
     ethr =  1.49E-08,  avg # of iterations =  1.0

     total cpu time spent up to now is       61.2 secs

     total energy              =    -258.82024679 Ry
     estimated scf accuracy    <       0.00000735 Ry

     total magnetization       =     7.00 Bohr mag/cell
     absolute magnetization    =     7.01 Bohr mag/cell

     iteration # 38     ecut=   400.00 Ry     beta= 0.20
     Davidson diagonalization with overlap
     ethr =  1.49E-08,  avg # of iterations =  1.0

     total cpu time spent up to now is       62.8 secs

     total energy              =    -258.82024591 Ry
     estimated scf accuracy    <       0.00000571 Ry

     total magnetization       =     7.00 Bohr mag/cell
     absolute magnetization    =     7.01 Bohr mag/cell

     iteration # 39     ecut=   400.00 Ry     beta= 0.20
     Davidson diagonalization with overlap
     ethr =  1.49E-08,  avg # of iterations =  1.0

     total cpu time spent up to now is       64.3 secs

     total energy              =    -258.82024802 Ry
     estimated scf accuracy    <       0.00000611 Ry

     total magnetization       =     7.00 Bohr mag/cell
     absolute magnetization    =     7.01 Bohr mag/cell

     iteration # 40     ecut=   400.00 Ry     beta= 0.20
     Davidson diagonalization with overlap
     ethr =  1.49E-08,  avg # of iterations =  1.0

     total cpu time spent up to now is       65.9 secs

     total energy              =    -258.82025133 Ry
     estimated scf accuracy    <       0.00000444 Ry

     total magnetization       =     7.00 Bohr mag/cell
     absolute magnetization    =     7.01 Bohr mag/cell

     iteration # 41     ecut=   400.00 Ry     beta= 0.20
     Davidson diagonalization with overlap
     ethr =  1.49E-08,  avg # of iterations =  8.0

     total cpu time spent up to now is       67.9 secs

     total energy              =    -258.82025197 Ry
     estimated scf accuracy    <       0.00000546 Ry

     total magnetization       =     7.00 Bohr mag/cell
     absolute magnetization    =     7.01 Bohr mag/cell

     iteration # 42     ecut=   400.00 Ry     beta= 0.20
     Davidson diagonalization with overlap
     ethr =  1.49E-08,  avg # of iterations =  2.0

     total cpu time spent up to now is       69.5 secs

     total energy              =    -258.82025491 Ry
     estimated scf accuracy    <       0.00000786 Ry

     total magnetization       =     7.00 Bohr mag/cell
     absolute magnetization    =     7.01 Bohr mag/cell

     iteration # 43     ecut=   400.00 Ry     beta= 0.20
     Davidson diagonalization with overlap
     ethr =  1.49E-08,  avg # of iterations =  1.0

     total cpu time spent up to now is       71.1 secs

     total energy              =    -258.82025481 Ry
     estimated scf accuracy    <       0.00000740 Ry

     total magnetization       =     7.00 Bohr mag/cell
     absolute magnetization    =     7.01 Bohr mag/cell

     iteration # 44     ecut=   400.00 Ry     beta= 0.20
     Davidson diagonalization with overlap
     ethr =  1.49E-08,  avg # of iterations =  1.0

     total cpu time spent up to now is       72.6 secs

     total energy              =    -258.82025848 Ry
     estimated scf accuracy    <       0.00001423 Ry

     total magnetization       =     7.00 Bohr mag/cell
     absolute magnetization    =     7.01 Bohr mag/cell

     iteration # 45     ecut=   400.00 Ry     beta= 0.20
     Davidson diagonalization with overlap
     ethr =  1.49E-08,  avg # of iterations =  1.5

     total cpu time spent up to now is       74.2 secs

     total energy              =    -258.82025952 Ry
     estimated scf accuracy    <       0.00000946 Ry

     total magnetization       =     7.00 Bohr mag/cell
     absolute magnetization    =     7.01 Bohr mag/cell

     iteration # 46     ecut=   400.00 Ry     beta= 0.20
     Davidson diagonalization with overlap
     ethr =  1.49E-08,  avg # of iterations =  1.0

     total cpu time spent up to now is       75.8 secs

     total energy              =    -258.82025762 Ry
     estimated scf accuracy    <       0.00001055 Ry

     total magnetization       =     7.00 Bohr mag/cell
     absolute magnetization    =     7.01 Bohr mag/cell

     iteration # 47     ecut=   400.00 Ry     beta= 0.20
     Davidson diagonalization with overlap
     ethr =  1.49E-08,  avg # of iterations =  1.0

     total cpu time spent up to now is       77.3 secs

     total energy              =    -258.82025967 Ry
     estimated scf accuracy    <       0.00001127 Ry

     total magnetization       =     7.00 Bohr mag/cell
     absolute magnetization    =     7.01 Bohr mag/cell

     iteration # 48     ecut=   400.00 Ry     beta= 0.20
     Davidson diagonalization with overlap
     ethr =  1.49E-08,  avg # of iterations =  1.0

     total cpu time spent up to now is       78.8 secs

     total energy              =    -258.82026157 Ry
     estimated scf accuracy    <       0.00000684 Ry

     total magnetization       =     7.00 Bohr mag/cell
     absolute magnetization    =     7.01 Bohr mag/cell

     iteration # 49     ecut=   400.00 Ry     beta= 0.20
     Davidson diagonalization with overlap
     ethr =  1.49E-08,  avg # of iterations =  6.0

     total cpu time spent up to now is       80.7 secs

     total energy              =    -258.82025464 Ry
     estimated scf accuracy    <       0.00001484 Ry

     total magnetization       =     7.00 Bohr mag/cell
     absolute magnetization    =     7.01 Bohr mag/cell

     iteration # 50     ecut=   400.00 Ry     beta= 0.20
     Davidson diagonalization with overlap
     ethr =  1.49E-08,  avg # of iterations =  6.5

     total cpu time spent up to now is       82.5 secs

     total energy              =    -258.82026200 Ry
     estimated scf accuracy    <       0.00000666 Ry

     total magnetization       =     7.00 Bohr mag/cell
     absolute magnetization    =     7.01 Bohr mag/cell

     iteration # 51     ecut=   400.00 Ry     beta= 0.20
     Davidson diagonalization with overlap
     ethr =  1.49E-08,  avg # of iterations =  1.0

     total cpu time spent up to now is       84.1 secs

     total energy              =    -258.82026557 Ry
     estimated scf accuracy    <       0.00000437 Ry

     total magnetization       =     7.00 Bohr mag/cell
     absolute magnetization    =     7.01 Bohr mag/cell

     iteration # 52     ecut=   400.00 Ry     beta= 0.20
     Davidson diagonalization with overlap
     ethr =  1.49E-08,  avg # of iterations =  6.5

     total cpu time spent up to now is       85.9 secs

     total energy              =    -258.82024755 Ry
     estimated scf accuracy    <       0.00000501 Ry

     total magnetization       =     7.00 Bohr mag/cell
     absolute magnetization    =     7.01 Bohr mag/cell

     iteration # 53     ecut=   400.00 Ry     beta= 0.20
     Davidson diagonalization with overlap
     ethr =  1.49E-08,  avg # of iterations =  6.0

     total cpu time spent up to now is       87.8 secs

     total energy              =    -258.82026035 Ry
     estimated scf accuracy    <       0.00000495 Ry

     total magnetization       =     7.00 Bohr mag/cell
     absolute magnetization    =     7.01 Bohr mag/cell

     iteration # 54     ecut=   400.00 Ry     beta= 0.20
     Davidson diagonalization with overlap
     ethr =  1.49E-08,  avg # of iterations =  1.5

     total cpu time spent up to now is       89.4 secs

     total energy              =    -258.82026266 Ry
     estimated scf accuracy    <       0.00000369 Ry

     total magnetization       =     7.00 Bohr mag/cell
     absolute magnetization    =     7.01 Bohr mag/cell

     iteration # 55     ecut=   400.00 Ry     beta= 0.20
     Davidson diagonalization with overlap
     ethr =  1.49E-08,  avg # of iterations =  6.5

     total cpu time spent up to now is       91.3 secs

     total energy              =    -258.82027087 Ry
     estimated scf accuracy    <       0.00000630 Ry

     total magnetization       =     7.00 Bohr mag/cell
     absolute magnetization    =     7.01 Bohr mag/cell

     iteration # 56     ecut=   400.00 Ry     beta= 0.20
     Davidson diagonalization with overlap
     ethr =  1.49E-08,  avg # of iterations =  1.5

     total cpu time spent up to now is       92.9 secs

     total energy              =    -258.82026961 Ry
     estimated scf accuracy    <       0.00000575 Ry

     total magnetization       =     7.00 Bohr mag/cell
     absolute magnetization    =     7.01 Bohr mag/cell

     iteration # 57     ecut=   400.00 Ry     beta= 0.20
     Davidson diagonalization with overlap
     ethr =  1.49E-08,  avg # of iterations =  1.0

     total cpu time spent up to now is       94.4 secs

     total energy              =    -258.82027327 Ry
     estimated scf accuracy    <       0.00000518 Ry

     total magnetization       =     7.00 Bohr mag/cell
     absolute magnetization    =     7.01 Bohr mag/cell

     iteration # 58     ecut=   400.00 Ry     beta= 0.20
     Davidson diagonalization with overlap
     ethr =  1.49E-08,  avg # of iterations =  6.0

     total cpu time spent up to now is       96.2 secs

     total energy              =    -258.82027409 Ry
     estimated scf accuracy    <       0.00000794 Ry

     total magnetization       =     7.00 Bohr mag/cell
     absolute magnetization    =     7.01 Bohr mag/cell

     iteration # 59     ecut=   400.00 Ry     beta= 0.20
     Davidson diagonalization with overlap
     ethr =  1.49E-08,  avg # of iterations =  1.5

     total cpu time spent up to now is       97.8 secs

     total energy              =    -258.82027036 Ry
     estimated scf accuracy    <       0.00001492 Ry

     total magnetization       =     7.00 Bohr mag/cell
     absolute magnetization    =     7.01 Bohr mag/cell

     iteration # 60     ecut=   400.00 Ry     beta= 0.20
     Davidson diagonalization with overlap
     ethr =  1.49E-08,  avg # of iterations =  2.0

     total cpu time spent up to now is       99.4 secs

     total energy              =    -258.82027162 Ry
     estimated scf accuracy    <       0.00001100 Ry

     total magnetization       =     7.00 Bohr mag/cell
     absolute magnetization    =     7.01 Bohr mag/cell

     iteration # 61     ecut=   400.00 Ry     beta= 0.20
     Davidson diagonalization with overlap
     ethr =  1.49E-08,  avg # of iterations =  1.0

     total cpu time spent up to now is      100.9 secs

     total energy              =    -258.82027743 Ry
     estimated scf accuracy    <       0.00001304 Ry

     total magnetization       =     7.00 Bohr mag/cell
     absolute magnetization    =     7.01 Bohr mag/cell

     iteration # 62     ecut=   400.00 Ry     beta= 0.20
     Davidson diagonalization with overlap
     ethr =  1.49E-08,  avg # of iterations =  3.5

     total cpu time spent up to now is      102.6 secs

     total energy              =    -258.82026843 Ry
     estimated scf accuracy    <       0.00000469 Ry

     total magnetization       =     7.00 Bohr mag/cell
     absolute magnetization    =     7.01 Bohr mag/cell

     iteration # 63     ecut=   400.00 Ry     beta= 0.20
     Davidson diagonalization with overlap
     ethr =  1.49E-08,  avg # of iterations =  2.0

     total cpu time spent up to now is      104.2 secs

     total energy              =    -258.82027459 Ry
     estimated scf accuracy    <       0.00002279 Ry

     total magnetization       =     7.00 Bohr mag/cell
     absolute magnetization    =     7.01 Bohr mag/cell

     iteration # 64     ecut=   400.00 Ry     beta= 0.20
     Davidson diagonalization with overlap
     ethr =  1.49E-08,  avg # of iterations =  1.5

     total cpu time spent up to now is      105.8 secs

     total energy              =    -258.82027042 Ry
     estimated scf accuracy    <       0.00001813 Ry

     total magnetization       =     7.00 Bohr mag/cell
     absolute magnetization    =     7.01 Bohr mag/cell

     iteration # 65     ecut=   400.00 Ry     beta= 0.20
     Davidson diagonalization with overlap
     ethr =  1.49E-08,  avg # of iterations =  1.5

     total cpu time spent up to now is      107.4 secs

     total energy              =    -258.82027445 Ry
     estimated scf accuracy    <       0.00002513 Ry

     total magnetization       =     7.00 Bohr mag/cell
     absolute magnetization    =     7.01 Bohr mag/cell

     iteration # 66     ecut=   400.00 Ry     beta= 0.20
     Davidson diagonalization with overlap
     ethr =  1.49E-08,  avg # of iterations =  6.0

     total cpu time spent up to now is      109.2 secs

     total energy              =    -258.82027653 Ry
     estimated scf accuracy    <       0.00006644 Ry

     total magnetization       =     7.00 Bohr mag/cell
     absolute magnetization    =     7.01 Bohr mag/cell

     iteration # 67     ecut=   400.00 Ry     beta= 0.20
     Davidson diagonalization with overlap
     ethr =  1.49E-08,  avg # of iterations =  7.5

     total cpu time spent up to now is      111.2 secs

     total energy              =    -258.82025383 Ry
     estimated scf accuracy    <       0.00002305 Ry

     total magnetization       =     7.00 Bohr mag/cell
     absolute magnetization    =     7.01 Bohr mag/cell

     iteration # 68     ecut=   400.00 Ry     beta= 0.20
     Davidson diagonalization with overlap
     ethr =  1.49E-08,  avg # of iterations =  7.5

     total cpu time spent up to now is      113.2 secs

     total energy              =    -258.82028724 Ry
     estimated scf accuracy    <       0.00001640 Ry

     total magnetization       =     7.00 Bohr mag/cell
     absolute magnetization    =     7.01 Bohr mag/cell

     iteration # 69     ecut=   400.00 Ry     beta= 0.20
     Davidson diagonalization with overlap
     ethr =  1.49E-08,  avg # of iterations =  1.0

     total cpu time spent up to now is      114.7 secs

     total energy              =    -258.82028710 Ry
     estimated scf accuracy    <       0.00000762 Ry

     total magnetization       =     7.00 Bohr mag/cell
     absolute magnetization    =     7.01 Bohr mag/cell

     iteration # 70     ecut=   400.00 Ry     beta= 0.20
     Davidson diagonalization with overlap
     ethr =  1.49E-08,  avg # of iterations =  1.0

     total cpu time spent up to now is      116.3 secs

     total energy              =    -258.82028589 Ry
     estimated scf accuracy    <       0.00000753 Ry

     total magnetization       =     7.00 Bohr mag/cell
     absolute magnetization    =     7.01 Bohr mag/cell

     iteration # 71     ecut=   400.00 Ry     beta= 0.20
     Davidson diagonalization with overlap
     ethr =  1.49E-08,  avg # of iterations =  1.0

     total cpu time spent up to now is      117.8 secs

     total energy              =    -258.82023924 Ry
     estimated scf accuracy    <       0.00001291 Ry

     total magnetization       =     7.00 Bohr mag/cell
     absolute magnetization    =     7.01 Bohr mag/cell

     iteration # 72     ecut=   400.00 Ry     beta= 0.20
     Davidson diagonalization with overlap
     c_bands:  1 eigenvalues not converged
     ethr =  1.49E-08,  avg # of iterations = 12.0

     total cpu time spent up to now is      120.1 secs

     total energy              =    -258.82031273 Ry
     estimated scf accuracy    <       0.00000498 Ry

     total magnetization       =     7.00 Bohr mag/cell
     absolute magnetization    =     7.01 Bohr mag/cell

     iteration # 73     ecut=   400.00 Ry     beta= 0.20
     Davidson diagonalization with overlap
     ethr =  1.49E-08,  avg # of iterations =  2.0

     total cpu time spent up to now is      121.7 secs

     total energy              =    -258.82026129 Ry
     estimated scf accuracy    <       0.00000772 Ry

     total magnetization       =     7.00 Bohr mag/cell
     absolute magnetization    =     7.01 Bohr mag/cell

     iteration # 74     ecut=   400.00 Ry     beta= 0.20
     Davidson diagonalization with overlap
     ethr =  1.49E-08,  avg # of iterations = 12.0

     total cpu time spent up to now is      124.0 secs

     total energy              =    -258.82033139 Ry
     estimated scf accuracy    <       0.00001095 Ry

     total magnetization       =     7.00 Bohr mag/cell
     absolute magnetization    =     7.01 Bohr mag/cell

     iteration # 75     ecut=   400.00 Ry     beta= 0.20
     Davidson diagonalization with overlap
     ethr =  1.49E-08,  avg # of iterations =  7.5

     total cpu time spent up to now is      126.0 secs

     total energy              =    -258.82035108 Ry
     estimated scf accuracy    <       0.00000658 Ry

     total magnetization       =     7.00 Bohr mag/cell
     absolute magnetization    =     7.01 Bohr mag/cell

     iteration # 76     ecut=   400.00 Ry     beta= 0.20
     Davidson diagonalization with overlap
     ethr =  1.49E-08,  avg # of iterations =  7.0

     total cpu time spent up to now is      127.8 secs

     total energy              =    -258.82035479 Ry
     estimated scf accuracy    <       0.00001156 Ry

     total magnetization       =     7.00 Bohr mag/cell
     absolute magnetization    =     7.01 Bohr mag/cell

     iteration # 77     ecut=   400.00 Ry     beta= 0.20
     Davidson diagonalization with overlap
     ethr =  1.49E-08,  avg # of iterations =  2.0

     total cpu time spent up to now is      129.4 secs

     total energy              =    -258.82035785 Ry
     estimated scf accuracy    <       0.00000511 Ry

     total magnetization       =     7.00 Bohr mag/cell
     absolute magnetization    =     7.01 Bohr mag/cell

     iteration # 78     ecut=   400.00 Ry     beta= 0.20
     Davidson diagonalization with overlap
     ethr =  1.49E-08,  avg # of iterations =  3.5

     total cpu time spent up to now is      131.1 secs

     total energy              =    -258.82035900 Ry
     estimated scf accuracy    <       0.00000250 Ry

     total magnetization       =     7.00 Bohr mag/cell
     absolute magnetization    =     7.01 Bohr mag/cell

     iteration # 79     ecut=   400.00 Ry     beta= 0.20
     Davidson diagonalization with overlap
     ethr =  1.31E-08,  avg # of iterations =  1.5

     total cpu time spent up to now is      132.7 secs

     total energy              =    -258.82036038 Ry
     estimated scf accuracy    <       0.00000418 Ry

     total magnetization       =     7.00 Bohr mag/cell
     absolute magnetization    =     7.01 Bohr mag/cell

     iteration # 80     ecut=   400.00 Ry     beta= 0.20
     Davidson diagonalization with overlap
     ethr =  1.31E-08,  avg # of iterations =  6.0

     total cpu time spent up to now is      134.5 secs

     total energy              =    -258.82033743 Ry
     estimated scf accuracy    <       0.00000335 Ry

     total magnetization       =     7.00 Bohr mag/cell
     absolute magnetization    =     7.01 Bohr mag/cell

     iteration # 81     ecut=   400.00 Ry     beta= 0.20
     Davidson diagonalization with overlap
     ethr =  1.31E-08,  avg # of iterations =  6.5

     total cpu time spent up to now is      136.3 secs

     total energy              =    -258.82035390 Ry
     estimated scf accuracy    <       0.00000413 Ry

     total magnetization       =     7.00 Bohr mag/cell
     absolute magnetization    =     7.01 Bohr mag/cell

     iteration # 82     ecut=   400.00 Ry     beta= 0.20
     Davidson diagonalization with overlap
     ethr =  1.31E-08,  avg # of iterations =  1.0

     total cpu time spent up to now is      137.9 secs

     total energy              =    -258.82034716 Ry
     estimated scf accuracy    <       0.00000378 Ry

     total magnetization       =     7.00 Bohr mag/cell
     absolute magnetization    =     7.01 Bohr mag/cell

     iteration # 83     ecut=   400.00 Ry     beta= 0.20
     Davidson diagonalization with overlap
     ethr =  1.31E-08,  avg # of iterations =  2.5

     total cpu time spent up to now is      139.5 secs

     total energy              =    -258.82034848 Ry
     estimated scf accuracy    <       0.00000806 Ry

     total magnetization       =     7.00 Bohr mag/cell
     absolute magnetization    =     7.01 Bohr mag/cell

     iteration # 84     ecut=   400.00 Ry     beta= 0.20
     Davidson diagonalization with overlap
     ethr =  1.31E-08,  avg # of iterations =  6.0

     total cpu time spent up to now is      141.3 secs

     total energy              =    -258.82035982 Ry
     estimated scf accuracy    <       0.00001512 Ry

     total magnetization       =     7.00 Bohr mag/cell
     absolute magnetization    =     7.01 Bohr mag/cell

     iteration # 85     ecut=   400.00 Ry     beta= 0.20
     Davidson diagonalization with overlap
     ethr =  1.31E-08,  avg # of iterations =  1.5

     total cpu time spent up to now is      142.9 secs

     total energy              =    -258.82036178 Ry
     estimated scf accuracy    <       0.00000643 Ry

     total magnetization       =     7.00 Bohr mag/cell
     absolute magnetization    =     7.01 Bohr mag/cell

     iteration # 86     ecut=   400.00 Ry     beta= 0.20
     Davidson diagonalization with overlap
     ethr =  1.31E-08,  avg # of iterations =  1.5

     total cpu time spent up to now is      144.5 secs

     total energy              =    -258.82036384 Ry
     estimated scf accuracy    <       0.00000271 Ry

     total magnetization       =     7.00 Bohr mag/cell
     absolute magnetization    =     7.01 Bohr mag/cell

     iteration # 87     ecut=   400.00 Ry     beta= 0.20
     Davidson diagonalization with overlap
     ethr =  1.31E-08,  avg # of iterations =  3.5

     total cpu time spent up to now is      146.2 secs

     total energy              =    -258.82036542 Ry
     estimated scf accuracy    <       0.00000158 Ry

     total magnetization       =     7.00 Bohr mag/cell
     absolute magnetization    =     7.01 Bohr mag/cell

     iteration # 88     ecut=   400.00 Ry     beta= 0.20
     Davidson diagonalization with overlap
     ethr =  8.34E-09,  avg # of iterations =  6.5

     total cpu time spent up to now is      148.0 secs

     total energy              =    -258.82036191 Ry
     estimated scf accuracy    <       0.00000372 Ry

     total magnetization       =     7.00 Bohr mag/cell
     absolute magnetization    =     7.01 Bohr mag/cell

     iteration # 89     ecut=   400.00 Ry     beta= 0.20
     Davidson diagonalization with overlap
     ethr =  8.34E-09,  avg # of iterations =  2.0

     total cpu time spent up to now is      149.6 secs

     total energy              =    -258.82036558 Ry
     estimated scf accuracy    <       0.00000672 Ry

     total magnetization       =     7.00 Bohr mag/cell
     absolute magnetization    =     7.01 Bohr mag/cell

     iteration # 90     ecut=   400.00 Ry     beta= 0.20
     Davidson diagonalization with overlap
     ethr =  8.34E-09,  avg # of iterations =  1.0

     total cpu time spent up to now is      151.2 secs

     total energy              =    -258.82036524 Ry
     estimated scf accuracy    <       0.00000422 Ry

     total magnetization       =     7.00 Bohr mag/cell
     absolute magnetization    =     7.01 Bohr mag/cell

     iteration # 91     ecut=   400.00 Ry     beta= 0.20
     Davidson diagonalization with overlap
     ethr =  8.34E-09,  avg # of iterations =  1.0

     total cpu time spent up to now is      152.7 secs

     total energy              =    -258.82036301 Ry
     estimated scf accuracy    <       0.00000424 Ry

     total magnetization       =     7.00 Bohr mag/cell
     absolute magnetization    =     7.01 Bohr mag/cell

     iteration # 92     ecut=   400.00 Ry     beta= 0.20
     Davidson diagonalization with overlap
     ethr =  8.34E-09,  avg # of iterations =  1.0

     total cpu time spent up to now is      154.3 secs

     total energy              =    -258.82036622 Ry
     estimated scf accuracy    <       0.00000538 Ry

     total magnetization       =     7.00 Bohr mag/cell
     absolute magnetization    =     7.01 Bohr mag/cell

     iteration # 93     ecut=   400.00 Ry     beta= 0.20
     Davidson diagonalization with overlap
     ethr =  8.34E-09,  avg # of iterations =  3.0

     total cpu time spent up to now is      155.9 secs

     total energy              =    -258.82036795 Ry
     estimated scf accuracy    <       0.00000251 Ry

     total magnetization       =     7.00 Bohr mag/cell
     absolute magnetization    =     7.01 Bohr mag/cell

     iteration # 94     ecut=   400.00 Ry     beta= 0.20
     Davidson diagonalization with overlap
     ethr =  8.34E-09,  avg # of iterations =  1.0

     total cpu time spent up to now is      157.4 secs

     total energy              =    -258.82036800 Ry
     estimated scf accuracy    <       0.00000253 Ry

     total magnetization       =     7.00 Bohr mag/cell
     absolute magnetization    =     7.01 Bohr mag/cell

     iteration # 95     ecut=   400.00 Ry     beta= 0.20
     Davidson diagonalization with overlap
     ethr =  8.34E-09,  avg # of iterations =  1.0

     total cpu time spent up to now is      159.0 secs

     total energy              =    -258.82036806 Ry
     estimated scf accuracy    <       0.00000255 Ry

     total magnetization       =     7.00 Bohr mag/cell
     absolute magnetization    =     7.01 Bohr mag/cell

     iteration # 96     ecut=   400.00 Ry     beta= 0.20
     Davidson diagonalization with overlap
     ethr =  8.34E-09,  avg # of iterations =  1.0

     total cpu time spent up to now is      160.5 secs

     total energy              =    -258.82036576 Ry
     estimated scf accuracy    <       0.00000252 Ry

     total magnetization       =     7.00 Bohr mag/cell
     absolute magnetization    =     7.01 Bohr mag/cell

     iteration # 97     ecut=   400.00 Ry     beta= 0.20
     Davidson diagonalization with overlap
     ethr =  8.34E-09,  avg # of iterations =  7.0

     total cpu time spent up to now is      162.5 secs

     total energy              =    -258.82036947 Ry
     estimated scf accuracy    <       0.00000285 Ry

     total magnetization       =     7.00 Bohr mag/cell
     absolute magnetization    =     7.01 Bohr mag/cell

     iteration # 98     ecut=   400.00 Ry     beta= 0.20
     Davidson diagonalization with overlap
     ethr =  8.34E-09,  avg # of iterations =  7.5

     total cpu time spent up to now is      164.4 secs

     total energy              =    -258.82037265 Ry
     estimated scf accuracy    <       0.00000315 Ry

     total magnetization       =     7.00 Bohr mag/cell
     absolute magnetization    =     7.01 Bohr mag/cell

     iteration # 99     ecut=   400.00 Ry     beta= 0.20
     Davidson diagonalization with overlap
     ethr =  8.34E-09,  avg # of iterations =  1.0

     total cpu time spent up to now is      165.9 secs

     total energy              =    -258.82037122 Ry
     estimated scf accuracy    <       0.00000323 Ry

     total magnetization       =     7.00 Bohr mag/cell
     absolute magnetization    =     7.01 Bohr mag/cell

     iteration #100     ecut=   400.00 Ry     beta= 0.20
     Davidson diagonalization with overlap
     ethr =  8.34E-09,  avg # of iterations =  1.5

     total cpu time spent up to now is      167.5 secs

     total energy              =    -258.82037277 Ry
     estimated scf accuracy    <       0.00000388 Ry

     total magnetization       =     7.00 Bohr mag/cell
     absolute magnetization    =     7.01 Bohr mag/cell

     iteration #101     ecut=   400.00 Ry     beta= 0.20
     Davidson diagonalization with overlap
     ethr =  8.34E-09,  avg # of iterations =  6.0

     total cpu time spent up to now is      169.3 secs

     total energy              =    -258.82037699 Ry
     estimated scf accuracy    <       0.00000299 Ry

     total magnetization       =     7.00 Bohr mag/cell
     absolute magnetization    =     7.01 Bohr mag/cell

     iteration #102     ecut=   400.00 Ry     beta= 0.20
     Davidson diagonalization with overlap
     ethr =  8.34E-09,  avg # of iterations =  1.0

     total cpu time spent up to now is      170.8 secs

     total energy              =    -258.82037752 Ry
     estimated scf accuracy    <       0.00000266 Ry

     total magnetization       =     7.00 Bohr mag/cell
     absolute magnetization    =     7.01 Bohr mag/cell

     iteration #103     ecut=   400.00 Ry     beta= 0.20
     Davidson diagonalization with overlap
     ethr =  8.34E-09,  avg # of iterations =  1.0

     total cpu time spent up to now is      172.4 secs

     total energy              =    -258.82037913 Ry
     estimated scf accuracy    <       0.00000231 Ry

     total magnetization       =     7.00 Bohr mag/cell
     absolute magnetization    =     7.01 Bohr mag/cell

     iteration #104     ecut=   400.00 Ry     beta= 0.20
     Davidson diagonalization with overlap
     ethr =  8.34E-09,  avg # of iterations =  6.5

     total cpu time spent up to now is      174.2 secs

     total energy              =    -258.82038076 Ry
     estimated scf accuracy    <       0.00000272 Ry

     total magnetization       =     7.00 Bohr mag/cell
     absolute magnetization    =     7.01 Bohr mag/cell

     iteration #105     ecut=   400.00 Ry     beta= 0.20
     Davidson diagonalization with overlap
     ethr =  8.34E-09,  avg # of iterations =  1.0

     total cpu time spent up to now is      175.7 secs

     total energy              =    -258.82038149 Ry
     estimated scf accuracy    <       0.00000260 Ry

     total magnetization       =     7.00 Bohr mag/cell
     absolute magnetization    =     7.01 Bohr mag/cell

     iteration #106     ecut=   400.00 Ry     beta= 0.20
     Davidson diagonalization with overlap
     ethr =  8.34E-09,  avg # of iterations =  1.0

     total cpu time spent up to now is      177.3 secs

     total energy              =    -258.82037723 Ry
     estimated scf accuracy    <       0.00000214 Ry

     total magnetization       =     7.00 Bohr mag/cell
     absolute magnetization    =     7.01 Bohr mag/cell

     iteration #107     ecut=   400.00 Ry     beta= 0.20
     Davidson diagonalization with overlap
     ethr =  8.34E-09,  avg # of iterations =  9.0

     total cpu time spent up to now is      179.2 secs

     total energy              =    -258.82038096 Ry
     estimated scf accuracy    <       0.00000318 Ry

     total magnetization       =     7.00 Bohr mag/cell
     absolute magnetization    =     7.01 Bohr mag/cell

     iteration #108     ecut=   400.00 Ry     beta= 0.20
     Davidson diagonalization with overlap
     ethr =  8.34E-09,  avg # of iterations =  2.0

     total cpu time spent up to now is      180.8 secs

     total energy              =    -258.82038127 Ry
     estimated scf accuracy    <       0.00000166 Ry

     total magnetization       =     7.00 Bohr mag/cell
     absolute magnetization    =     7.01 Bohr mag/cell

     iteration #109     ecut=   400.00 Ry     beta= 0.20
     Davidson diagonalization with overlap
     ethr =  8.34E-09,  avg # of iterations =  1.5

     total cpu time spent up to now is      182.3 secs

     total energy              =    -258.82038061 Ry
     estimated scf accuracy    <       0.00000149 Ry

     total magnetization       =     7.00 Bohr mag/cell
     absolute magnetization    =     7.01 Bohr mag/cell

     iteration #110     ecut=   400.00 Ry     beta= 0.20
     Davidson diagonalization with overlap
     ethr =  7.85E-09,  avg # of iterations =  2.0

     total cpu time spent up to now is      183.9 secs

     total energy              =    -258.82037713 Ry
     estimated scf accuracy    <       0.00000213 Ry

     total magnetization       =     7.00 Bohr mag/cell
     absolute magnetization    =     7.01 Bohr mag/cell

     iteration #111     ecut=   400.00 Ry     beta= 0.20
     Davidson diagonalization with overlap
     ethr =  7.85E-09,  avg # of iterations =  8.0

     total cpu time spent up to now is      185.8 secs

     total energy              =    -258.82037930 Ry
     estimated scf accuracy    <       0.00000277 Ry

     total magnetization       =     7.00 Bohr mag/cell
     absolute magnetization    =     7.01 Bohr mag/cell

     iteration #112     ecut=   400.00 Ry     beta= 0.20
     Davidson diagonalization with overlap
     ethr =  7.85E-09,  avg # of iterations =  1.5

     total cpu time spent up to now is      187.4 secs

     total energy              =    -258.82037584 Ry
     estimated scf accuracy    <       0.00000218 Ry

     total magnetization       =     7.00 Bohr mag/cell
     absolute magnetization    =     7.01 Bohr mag/cell

     iteration #113     ecut=   400.00 Ry     beta= 0.20
     Davidson diagonalization with overlap
     ethr =  7.85E-09,  avg # of iterations =  6.0

     total cpu time spent up to now is      189.3 secs

     total energy              =    -258.82035940 Ry
     estimated scf accuracy    <       0.00000253 Ry

     total magnetization       =     7.00 Bohr mag/cell
     absolute magnetization    =     7.01 Bohr mag/cell

     iteration #114     ecut=   400.00 Ry     beta= 0.20
     Davidson diagonalization with overlap
     ethr =  7.85E-09,  avg # of iterations =  6.0

     total cpu time spent up to now is      191.3 secs

     total energy              =    -258.82037670 Ry
     estimated scf accuracy    <       0.00000295 Ry

     total magnetization       =     7.00 Bohr mag/cell
     absolute magnetization    =     7.01 Bohr mag/cell

     iteration #115     ecut=   400.00 Ry     beta= 0.20
     Davidson diagonalization with overlap
     ethr =  7.85E-09,  avg # of iterations =  1.0

     total cpu time spent up to now is      192.8 secs

     total energy              =    -258.82037223 Ry
     estimated scf accuracy    <       0.00000288 Ry

     total magnetization       =     7.00 Bohr mag/cell
     absolute magnetization    =     7.01 Bohr mag/cell

     iteration #116     ecut=   400.00 Ry     beta= 0.20
     Davidson diagonalization with overlap
     ethr =  7.85E-09,  avg # of iterations =  1.5

     total cpu time spent up to now is      194.4 secs

     total energy              =    -258.82037300 Ry
     estimated scf accuracy    <       0.00000481 Ry

     total magnetization       =     7.00 Bohr mag/cell
     absolute magnetization    =     7.01 Bohr mag/cell

     iteration #117     ecut=   400.00 Ry     beta= 0.20
     Davidson diagonalization with overlap
     ethr =  7.85E-09,  avg # of iterations =  1.0

     total cpu time spent up to now is      195.9 secs

     total energy              =    -258.82037276 Ry
     estimated scf accuracy    <       0.00000475 Ry

     total magnetization       =     7.00 Bohr mag/cell
     absolute magnetization    =     7.01 Bohr mag/cell

     iteration #118     ecut=   400.00 Ry     beta= 0.20
     Davidson diagonalization with overlap
     ethr =  7.85E-09,  avg # of iterations =  1.0

     total cpu time spent up to now is      197.5 secs

     total energy              =    -258.82037221 Ry
     estimated scf accuracy    <       0.00000487 Ry

     total magnetization       =     7.00 Bohr mag/cell
     absolute magnetization    =     7.01 Bohr mag/cell

     iteration #119     ecut=   400.00 Ry     beta= 0.20
     Davidson diagonalization with overlap
     ethr =  7.85E-09,  avg # of iterations =  1.0

     total cpu time spent up to now is      199.0 secs

     total energy              =    -258.82037641 Ry
     estimated scf accuracy    <       0.00000517 Ry

     total magnetization       =     7.00 Bohr mag/cell
     absolute magnetization    =     7.01 Bohr mag/cell

     iteration #120     ecut=   400.00 Ry     beta= 0.20
     Davidson diagonalization with overlap
     ethr =  7.85E-09,  avg # of iterations =  7.0

     total cpu time spent up to now is      200.9 secs

     total energy              =    -258.82037752 Ry
     estimated scf accuracy    <       0.00000275 Ry

     total magnetization       =     7.00 Bohr mag/cell
     absolute magnetization    =     7.01 Bohr mag/cell

     iteration #121     ecut=   400.00 Ry     beta= 0.20
     Davidson diagonalization with overlap
     ethr =  7.85E-09,  avg # of iterations =  1.5

     total cpu time spent up to now is      202.5 secs

     total energy              =    -258.82037994 Ry
     estimated scf accuracy    <       0.00000401 Ry

     total magnetization       =     7.00 Bohr mag/cell
     absolute magnetization    =     7.01 Bohr mag/cell

     iteration #122     ecut=   400.00 Ry     beta= 0.20
     Davidson diagonalization with overlap
     ethr =  7.85E-09,  avg # of iterations =  6.5

     total cpu time spent up to now is      204.4 secs

     total energy              =    -258.82038652 Ry
     estimated scf accuracy    <       0.00000280 Ry

     total magnetization       =     7.00 Bohr mag/cell
     absolute magnetization    =     7.01 Bohr mag/cell

     iteration #123     ecut=   400.00 Ry     beta= 0.20
     Davidson diagonalization with overlap
     ethr =  7.85E-09,  avg # of iterations =  7.0

     total cpu time spent up to now is      206.3 secs

     total energy              =    -258.82038698 Ry
     estimated scf accuracy    <       0.00000236 Ry

     total magnetization       =     7.00 Bohr mag/cell
     absolute magnetization    =     7.01 Bohr mag/cell

     iteration #124     ecut=   400.00 Ry     beta= 0.20
     Davidson diagonalization with overlap
     ethr =  7.85E-09,  avg # of iterations =  1.5

     total cpu time spent up to now is      207.9 secs

     total energy              =    -258.82038857 Ry
     estimated scf accuracy    <       0.00000386 Ry

     total magnetization       =     7.00 Bohr mag/cell
     absolute magnetization    =     7.01 Bohr mag/cell

     iteration #125     ecut=   400.00 Ry     beta= 0.20
     Davidson diagonalization with overlap
     ethr =  7.85E-09,  avg # of iterations =  3.5

     total cpu time spent up to now is      209.5 secs

     total energy              =    -258.82039066 Ry
     estimated scf accuracy    <       0.00000288 Ry

     total magnetization       =     7.00 Bohr mag/cell
     absolute magnetization    =     7.01 Bohr mag/cell

     iteration #126     ecut=   400.00 Ry     beta= 0.20
     Davidson diagonalization with overlap
     ethr =  7.85E-09,  avg # of iterations =  1.5

     total cpu time spent up to now is      211.1 secs

     total energy              =    -258.82038868 Ry
     estimated scf accuracy    <       0.00000238 Ry

     total magnetization       =     7.00 Bohr mag/cell
     absolute magnetization    =     7.01 Bohr mag/cell

     iteration #127     ecut=   400.00 Ry     beta= 0.20
     Davidson diagonalization with overlap
     ethr =  7.85E-09,  avg # of iterations =  1.0

     total cpu time spent up to now is      212.7 secs

     total energy              =    -258.82038758 Ry
     estimated scf accuracy    <       0.00000500 Ry

     total magnetization       =     7.00 Bohr mag/cell
     absolute magnetization    =     7.01 Bohr mag/cell

     iteration #128     ecut=   400.00 Ry     beta= 0.20
     Davidson diagonalization with overlap
     ethr =  7.85E-09,  avg # of iterations =  1.5

     total cpu time spent up to now is      214.3 secs

     total energy              =    -258.82038897 Ry
     estimated scf accuracy    <       0.00000609 Ry

     total magnetization       =     7.00 Bohr mag/cell
     absolute magnetization    =     7.01 Bohr mag/cell

     iteration #129     ecut=   400.00 Ry     beta= 0.20
     Davidson diagonalization with overlap
     ethr =  7.85E-09,  avg # of iterations =  1.0

     total cpu time spent up to now is      215.8 secs

     total energy              =    -258.82039107 Ry
     estimated scf accuracy    <       0.00000357 Ry

     total magnetization       =     7.00 Bohr mag/cell
     absolute magnetization    =     7.01 Bohr mag/cell

     iteration #130     ecut=   400.00 Ry     beta= 0.20
     Davidson diagonalization with overlap
     ethr =  7.85E-09,  avg # of iterations =  2.0

     total cpu time spent up to now is      217.4 secs

     total energy              =    -258.82039239 Ry
     estimated scf accuracy    <       0.00000167 Ry

     total magnetization       =     7.00 Bohr mag/cell
     absolute magnetization    =     7.01 Bohr mag/cell

     iteration #131     ecut=   400.00 Ry     beta= 0.20
     Davidson diagonalization with overlap
     ethr =  7.85E-09,  avg # of iterations =  6.0

     total cpu time spent up to now is      219.2 secs

     total energy              =    -258.82039420 Ry
     estimated scf accuracy    <       0.00000247 Ry

     total magnetization       =     7.00 Bohr mag/cell
     absolute magnetization    =     7.01 Bohr mag/cell

     iteration #132     ecut=   400.00 Ry     beta= 0.20
     Davidson diagonalization with overlap
     ethr =  7.85E-09,  avg # of iterations =  2.0

     total cpu time spent up to now is      220.8 secs

     total energy              =    -258.82039543 Ry
     estimated scf accuracy    <       0.00000121 Ry

     total magnetization       =     7.00 Bohr mag/cell
     absolute magnetization    =     7.01 Bohr mag/cell

     iteration #133     ecut=   400.00 Ry     beta= 0.20
     Davidson diagonalization with overlap
     ethr =  6.37E-09,  avg # of iterations =  1.0

     total cpu time spent up to now is      222.3 secs

     total energy              =    -258.82039548 Ry
     estimated scf accuracy    <       0.00000125 Ry

     total magnetization       =     7.00 Bohr mag/cell
     absolute magnetization    =     7.01 Bohr mag/cell

     iteration #134     ecut=   400.00 Ry     beta= 0.20
     Davidson diagonalization with overlap
     ethr =  6.37E-09,  avg # of iterations =  1.0

     total cpu time spent up to now is      223.9 secs

     total energy              =    -258.82039548 Ry
     estimated scf accuracy    <       0.00000124 Ry

     total magnetization       =     7.00 Bohr mag/cell
     absolute magnetization    =     7.01 Bohr mag/cell

     iteration #135     ecut=   400.00 Ry     beta= 0.20
     Davidson diagonalization with overlap
     ethr =  6.37E-09,  avg # of iterations =  1.0

     total cpu time spent up to now is      225.4 secs

     total energy              =    -258.82039585 Ry
     estimated scf accuracy    <       0.00000125 Ry

     total magnetization       =     7.00 Bohr mag/cell
     absolute magnetization    =     7.01 Bohr mag/cell

     iteration #136     ecut=   400.00 Ry     beta= 0.20
     Davidson diagonalization with overlap
     ethr =  6.37E-09,  avg # of iterations =  1.5
 
     Magnetic moment per site  (integrated on atomic sphere of radius R)
     atom   1 (R=0.413)  charge= 18.9463  magn=  6.9618

     total cpu time spent up to now is      226.9 secs

     End of self-consistent calculation

 ------ SPIN UP ------------


          k = 0.0000 0.0000 0.0000 (455957 PWs)   bands (ev):

   -47.3427 -24.6325 -24.3572 -24.2525 -10.9751 -10.7662 -10.7582 -10.5898
   -10.2509  -9.4756  -8.4589  -3.3629  -1.2545  -0.8223  -0.7643  -0.6889
    -0.6620  -0.6379  -0.5880  -0.4091

 ------ SPIN DOWN ----------


          k = 0.0000 0.0000 0.0000 (455957 PWs)   bands (ev):

   -44.3972 -22.6809 -22.4692 -22.3121  -3.6226  -2.5485  -2.4293  -0.1622
    -0.1535   0.0155   0.0479   0.1488   0.1659   0.1987   0.2870   0.2939
     1.2839   1.4694   1.6290   1.6809

     highest occupied, lowest unoccupied level (ev):    -1.2545   -2.4293

!    total energy              =    -258.82039730 Ry
     estimated scf accuracy    <       0.00000098 Ry

     The total energy is the sum of the following terms:
     one-electron contribution =    -366.42288683 Ry
     hartree contribution      =     190.01885729 Ry
     xc contribution           =     -28.21463069 Ry
     ewald contribution        =     -54.20173708 Ry

     total magnetization       =     7.00 Bohr mag/cell
     absolute magnetization    =     7.01 Bohr mag/cell

     convergence has been achieved in 136 iterations

     Writing all to output data dir pwscf_output/pwscf.save/
 
     init_run     :      1.72s CPU      2.15s WALL (       1 calls)
     electrons    :    223.35s CPU    224.56s WALL (       1 calls)

     Called by init_run:
     wfcinit      :      0.14s CPU      0.33s WALL (       1 calls)
     potinit      :      0.51s CPU      0.67s WALL (       1 calls)
     hinit0       :      0.13s CPU      0.19s WALL (       1 calls)

     Called by electrons:
     c_bands      :    121.08s CPU    121.63s WALL (     136 calls)
     sum_band     :     32.27s CPU     32.41s WALL (     136 calls)
     v_of_rho     :     58.00s CPU     58.27s WALL (     137 calls)
     mix_rho      :     11.21s CPU     11.30s WALL (     136 calls)

     Called by c_bands:
     init_us_2    :      1.34s CPU      1.36s WALL (     544 calls)
     init_us_2:cp :      1.34s CPU      1.36s WALL (     544 calls)
     regterg      :    117.22s CPU    117.73s WALL (     272 calls)

     Called by *egterg:
     rdiaghg      :      0.34s CPU      0.37s WALL (    1004 calls)
     h_psi        :    104.78s CPU    105.21s WALL (    1006 calls)
     g_psi        :      0.29s CPU      0.29s WALL (     734 calls)

     Called by h_psi:
     h_psi:calbec :      2.19s CPU      2.20s WALL (    1006 calls)
     vloc_psi     :    101.16s CPU    101.56s WALL (    1006 calls)
     add_vuspsi   :      1.22s CPU      1.23s WALL (    1006 calls)

     General routines
     calbec       :      2.18s CPU      2.20s WALL (    1006 calls)
     fft          :     34.67s CPU     34.86s WALL (    2051 calls)
     ffts         :      3.75s CPU      3.77s WALL (     272 calls)
     fftw         :    117.74s CPU    118.19s WALL (   14784 calls)
 
     Parallel routines
 
     PWSCF        :   3m45.59s CPU   3m47.83s WALL

 
   This run was terminated on:  14:21:23   5Apr2022            

=------------------------------------------------------------------------------=
   JOB DONE.
=------------------------------------------------------------------------------=
