
 Primary working directories    : /global/cscratch1/sd/haihan
 Secondary working directories  : /global/cscratch1/sd/haihan
 Wavefunction directory         : /global/homes/h/haihan/Research/ECP/f_group_element_ecps/Rh/Molpro/molecules/RhO/UC/wfu/
 Main file repository           : /global/cscratch1/sd/haihan/

 SHA1      : 19cd028119e0e09f93f0674bd8af7968d9b3eff6
 NAME      : 2015.1.36
 ARCHNAME  : linux/x86_64
 FC        : /opt/cray/pe/craype/2.5.14/bin/ftn
 BLASLIB   : -L/opt/intel/compilers_and_libraries_2018.1.163/linux/mkl/lib/intel64 -Wl,-_start-group -lmkl_intel_ilp64 -lmkl_intel_thread -lmkl_core -Wl,-_end-group -liomp5
 id        : lbl

 Nodes     nprocs
 nid01066    11
 Number of processes for MPI-2 version of Molpro:   nprocs(total)=   12   nprocs(compute)=   11   nprocs(helper)=    1

 Using customized tuning parameters: mindgm=7; mindgv=16; mindgc=1; mindgr=1; noblas=0; minvec=7
 default implementation of scratch files=sf  

 ***,Calculation for all-electron YH molecule, SCF and CCSD(T)
 memory,1,g
 gthresh,twoint=1.0E-15
 gthresh,throvl=1.0E-15
 
 set,dkroll=1,dkho=10,dkhp=4
 basis={
 Including file /global/u2/h/haihan/Research/ECP/f_group_element_ecps/Rh/Molpro/molecules/RhO/UC/r_2.10/../generate/Rh-aug-cc-pwCVTZ.basis
 Including file /global/u2/h/haihan/Research/ECP/f_group_element_ecps/Rh/Molpro/molecules/RhO/UC/r_2.10/../generate/O-aug-cc-pwCVTZ.basis
 }
 
 Rh_ccsd=-4781.905747
 O_ccsd=-75.03694110
 
                                                                                 !These are the wf cards parameters
 ne = 53
 symm = 1
 ss= 3
 
                                                                                 !There are irrep cards paramters
 A1=14
 B1=6
 B2=6
 A2=2
 
 
 geometry={
     2
     RhO molecule
     Rh 0.0 0.0 0.0
     O 0.0 0.0 2.10
 }
 {rhf,nitord=20;
  maxit,200;
  wf,ne,symm,ss
  occ,A1,B1,B2,A2
  closed,A1,B1-1,B2-1,A2-1
  print,orbitals=2
 }
 scf=energy
 _CC_NORM_MAX=2.0
 {rccsd(t),shifts=0.5,shiftp=0.5,thrdis=1.0;diis,1,1,15,1;maxit,200;core,8,3,3,1}
 ccsd=energy
 bind=ccsd-Rh_ccsd-O_ccsd
 
 
 table,2.10,scf,ccsd,bind
 save
 type,csv
 

 Variables initialized (889), CPU time= 0.00 sec
 Commands  initialized (702), CPU time= 0.01 sec, 572 directives.
 Default parameters read. Elapsed time= 0.15 sec

 Checking input...
 Passed
1


                                         ***  PROGRAM SYSTEM MOLPRO  ***
                                       Copyright, TTI GmbH Stuttgart, 2015
                                    Version 2015.1 linked Dec 29 2018 15:55:43


 **********************************************************************************************************************************
 LABEL *   Calculation for all-electron YH molecule, SCF and CCSD(T)                     
  64 bit mpp version                                                                     DATE: 25-Sep-22          TIME: 10:48:55  
 **********************************************************************************************************************************

 SHA1:             19cd028119e0e09f93f0674bd8af7968d9b3eff6
 **********************************************************************************************************************************

 THRESHOLDS:

 ZERO    =  1.00D-12  ONEINT  =  1.00D-12  TWOINT  =  1.00D-15  PREFAC  =  1.00D-14  LOCALI  =  1.00D-09  EORDER  =  1.00D-04
 ENERGY  =  0.00D+00  ETEST   =  0.00D+00  EDENS   =  0.00D+00  THRDEDEF=  1.00D-06  GRADIENT=  1.00D-02  STEP    =  1.00D-03
 ORBITAL =  1.00D-05  CIVEC   =  1.00D-05  COEFF   =  1.00D-04  PRINTCI =  5.00D-02  PUNCHCI =  9.90D+01  OPTGRAD =  3.00D-04
 OPTENERG=  1.00D-06  OPTSTEP =  3.00D-04  THRGRAD =  1.00D-10  COMPRESS=  1.00D-11  VARMIN  =  1.00D-07  VARMAX  =  1.00D-03
 THRDOUB =  0.00D+00  THRDIV  =  1.00D-05  THRRED  =  1.00D-07  THRPSP  =  1.00D+00  THRDC   =  1.00D-10  THRCS   =  1.00D-10
 THRNRM  =  1.00D-08  THREQ   =  0.00D+00  THRDE   =  1.00D+00  THRREF  =  1.00D-05  SPARFAC =  1.00D+00  THRDLP  =  1.00D-07
 THRDIA  =  1.00D-10  THRDLS  =  1.00D-07  THRGPS  =  0.00D+00  THRKEX  =  0.00D+00  THRDIS  =  2.00D-01  THRVAR  =  1.00D-10
 THRLOC  =  1.00D-06  THRGAP  =  1.00D-06  THRLOCT = -1.00D+00  THRGAPT = -1.00D+00  THRORB  =  1.00D-06  THRMLTP =  0.00D+00
 THRCPQCI=  1.00D-10  KEXTA   =  0.00D+00  THRCOARS=  0.00D+00  SYMTOL  =  1.00D-06  GRADTOL =  1.00D-06  THROVL  =  1.00D-08
 THRORTH =  1.00D-08  GRID    =  1.00D-06  GRIDMAX =  1.00D-03  DTMAX   =  0.00D+00  THROCCDE=  1.00D-01  THROCCDE=  1.00D-01



 THRESHOLDS:

 ZERO    =  1.00D-12  ONEINT  =  1.00D-12  TWOINT  =  1.00D-15  PREFAC  =  1.00D-14  LOCALI  =  1.00D-09  EORDER  =  1.00D-04
 ENERGY  =  0.00D+00  ETEST   =  0.00D+00  EDENS   =  0.00D+00  THRDEDEF=  1.00D-06  GRADIENT=  1.00D-02  STEP    =  1.00D-03
 ORBITAL =  1.00D-05  CIVEC   =  1.00D-05  COEFF   =  1.00D-04  PRINTCI =  5.00D-02  PUNCHCI =  9.90D+01  OPTGRAD =  3.00D-04
 OPTENERG=  1.00D-06  OPTSTEP =  3.00D-04  THRGRAD =  1.00D-10  COMPRESS=  1.00D-11  VARMIN  =  1.00D-07  VARMAX  =  1.00D-03
 THRDOUB =  0.00D+00  THRDIV  =  1.00D-05  THRRED  =  1.00D-07  THRPSP  =  1.00D+00  THRDC   =  1.00D-10  THRCS   =  1.00D-10
 THRNRM  =  1.00D-08  THREQ   =  0.00D+00  THRDE   =  1.00D+00  THRREF  =  1.00D-05  SPARFAC =  1.00D+00  THRDLP  =  1.00D-07
 THRDIA  =  1.00D-10  THRDLS  =  1.00D-07  THRGPS  =  0.00D+00  THRKEX  =  0.00D+00  THRDIS  =  2.00D-01  THRVAR  =  1.00D-10
 THRLOC  =  1.00D-06  THRGAP  =  1.00D-06  THRLOCT = -1.00D+00  THRGAPT = -1.00D+00  THRORB  =  1.00D-06  THRMLTP =  0.00D+00
 THRCPQCI=  1.00D-10  KEXTA   =  0.00D+00  THRCOARS=  0.00D+00  SYMTOL  =  1.00D-06  GRADTOL =  1.00D-06  THROVL  =  1.00D-15
 THRORTH =  1.00D-08  GRID    =  1.00D-06  GRIDMAX =  1.00D-03  DTMAX   =  0.00D+00  THROCCDE=  1.00D-01  THROCCDE=  1.00D-01


 SETTING DKROLL         =         1.00000000                                  
 SETTING DKHO           =        10.00000000                                  
 SETTING DKHP           =         4.00000000                                  

 Variable memory set to 1000000000 words,  buffer space   230000 words

 SETTING BASIS          =    USERDEF
 SETTING RH_CCSD        =     -4781.90574700                                  
 SETTING O_CCSD         =       -75.03694110                                  
 SETTING NE             =        53.00000000                                  
 SETTING SYMM           =         1.00000000                                  
 SETTING SS             =         3.00000000                                  
 SETTING A1             =        14.00000000                                  
 SETTING B1             =         6.00000000                                  
 SETTING B2             =         6.00000000                                  
 SETTING A2             =         2.00000000                                  

Geometry recognized as XYZ



 Recomputing integrals since basis changed


 Using spherical harmonics



 PROGRAM * SEWARD (Integral evaluation for generally contracted gaussian basis sets)     Author: Roland Lindh, 1990

 Geometry written to block  1 of record 700


 Point group  C2v 



 ATOMIC COORDINATES

 NR  ATOM    CHARGE       X              Y              Z

   1  RH     45.00    0.000000000    0.000000000    0.000000000
   2  O       8.00    0.000000000    0.000000000    3.968424862

 Bond lengths in Bohr (Angstrom)

 1-2  3.968424862
     ( 2.100000000)

 NUCLEAR CHARGE:                   53
 NUMBER OF PRIMITIVE AOS:         391
 NUMBER OF SYMMETRY AOS:          330
 NUMBER OF CONTRACTIONS:          330   ( 145A1  +  75B1  +  75B2  +  35A2  )
 NUMBER OF CORE ORBITALS:          19   (  10A1  +   4B1  +   4B2  +   1A2  )
 NUMBER OF VALENCE ORBITALS:       10   (   5A1  +   2B1  +   2B2  +   1A2  )


 NUCLEAR REPULSION ENERGY   90.71609330

 One-electron integrals computed with SEWARD

 10nd-order Douglas-Kroll-Hess method activated. McWeeny DKH parametrization is used.

 Computing Douglas-Kroll / X2C integrals

 AO integral compression algorithm  1   Integral accuracy      1.0D-15

     1497.367 MB (compressed) written to integral file ( 41.1%)

     Node minimum: 92.537 MB, node maximum: 239.600 MB


 NUMBER OF SORTED TWO-ELECTRON INTEGRALS:   35099806.     BUFFER LENGTH:  32768
 NUMBER OF SEGMENTS:   2  SEGMENT LENGTH:   31967806      RECORD LENGTH: 524288

 Memory used in sort:      32.52 MW

 SORT1 READ   454841961. AND WROTE    15249526. INTEGRALS IN     45 RECORDS. CPU TIME:     7.90 SEC, REAL TIME:     9.94 SEC
 SORT2 READ   166211260. AND WROTE   386140795. INTEGRALS IN   3883 RECORDS. CPU TIME:     1.16 SEC, REAL TIME:     2.06 SEC

 Node minimum:    35061033.  Node maximum:    35222262. integrals

 OPERATOR DM      FOR CENTER  0  COORDINATES:    0.000000    0.000000    0.000000

 EXTRA SYMMETRY OF AOS IN SYMMETRY 1:   1 1 1 1 1 1 1 1 1 1   1 1 1 1 1 1 1 1 1 1   1 1 1 1 1 1 1 1 1 1   1 1 1 1 1 1 1 1 1 1
                                        1 1 1 1 1 1 1 1 1 1   1 1 1 1 1 1 1 1 2 1   2 1 2 1 2 1 2 1 2 1   2 1 2 1 2 1 2 1 2 1
                                        2 1 2 1 2 1 2 1 2 1   2 1 2 1 2 1 2 1 2 1   2 1 2 1 3 2 1 3 2 1   3 2 1 1 1 1 1 1 1 1
                                        1 1 1 1 1 1 1 1 1 1   1 1 1 1 2 1 2 1 2 1   2 1 2 1 2
 EXTRA SYMMETRY OF AOS IN SYMMETRY 2:   1 1 1 1 1 1 1 1 1 1   1 1 1 1 1 1 1 1 1 1   1 1 1 1 1 1 1 1 1 1   1 1 1 1 1 1 1 1 1 1
                                        1 1 1 1 2 1 2 1 2 1   2 1 2 1 2 1 2 1 2 1   1 1 1 1 1 1 1 1 1 1   1 1 2 1 2
 EXTRA SYMMETRY OF AOS IN SYMMETRY 3:   1 1 1 1 1 1 1 1 1 1   1 1 1 1 1 1 1 1 1 1   1 1 1 1 1 1 1 1 1 1   1 1 1 1 1 1 1 1 1 1
                                        1 1 1 1 2 1 2 1 2 1   2 1 2 1 2 1 2 1 2 1   1 1 1 1 1 1 1 1 1 1   1 1 2 1 2
 EXTRA SYMMETRY OF AOS IN SYMMETRY 4:   1 1 1 1 1 1 1 1 1 1   1 1 1 1 1 1 1 1 1 1   1 1 1 1 2 1 2 1 2 1   1 1 1 1 1

 Eigenvalues of metric

         1 0.116E-07 0.850E-06 0.871E-06 0.269E-05 0.276E-05 0.432E-05 0.590E-05 0.189E-04
         2 0.882E-06 0.274E-05 0.615E-05 0.330E-04 0.483E-04 0.537E-03 0.674E-03 0.155E-02
         3 0.882E-06 0.274E-05 0.615E-05 0.330E-04 0.483E-04 0.537E-03 0.674E-03 0.155E-02
         4 0.276E-05 0.493E-04 0.686E-03 0.163E-02 0.452E-02 0.127E-01 0.271E-01 0.555E-01


 **********************************************************************************************************************************
 DATASETS  * FILE   NREC   LENGTH (MB)   RECORD NAMES
              1      22       22.21       500      610      700      900      950      970     1000      129      960     1700   
                                          VAR    BASINP    GEOM    SYMINP    ZMAT    AOBASIS   BASIS     P2S    ABASIS    OPER   
                                         1101     1401     1411     1412     1650     1100     1400     1410     1200     1210   
                                          SR      EKINR    POTR     PVPR    MOLCAS      S      EKIN      POT      H0       H01  
                                         1080     1600   
                                         AOSYM     SMH  

 PROGRAMS   *        TOTAL       INT
 CPU TIMES  *        46.72     46.44
 REAL TIME  *        51.33 SEC
 DISK USED  *         3.50 GB      
 GA USED    *         0.00 MB       (max)       0.00 MB       (current)
 **********************************************************************************************************************************


 PROGRAM * RHF-SCF (OPEN SHELL)       Authors: W. Meyer, H.-J. Werner


 NUMBER OF ELECTRONS:      28+   25-    SPACE SYMMETRY=1    SPIN SYMMETRY: Quartet 
 CONVERGENCE THRESHOLDS:    1.00E-05 (Density)    1.06E-07 (Energy)
 MAX. NUMBER OF ITERATIONS:      200
 INTERPOLATION TYPE:            DIIS
 INTERPOLATION STEPS:              2 (START)      1 (STEP)
 LEVEL SHIFTS:                 -0.60 (CLOSED) -0.30 (OPEN) 

 Number of closed-shell orbitals:   25 (  14   5   5   1 )
 Number of open-shell orbitals:      3 (   0   1   1   1 )


 Orbital guess generated from atomic densities. Full valence occupancy:   15   6   6   2

 Molecular orbital dump at record        2100.2

 ITERATION    DDIFF          GRAD             ENERGY        2-EL.EN.            DIPOLE MOMENTS         DIIS   ORB.
    1      0.000D+00      0.000D+00     -4841.12359850   3436.355337    0.00000    0.00000   -7.46874    0    start
    2      0.000D+00      0.424D-01     -4837.19200424   4238.988036    0.00000    0.00000   19.17184    1    diag,B
    3      0.776D+00      0.976D-01     -4852.00050214   4064.655000    0.00000    0.00000    4.67404    2    diag,B
    4      0.149D+00      0.508D-01     -4853.79262404   4011.130623    0.00000    0.00000    3.66892    3    diag,B
    5      0.246D-01      0.352D-01     -4855.43209692   3951.350262    0.00000    0.00000    1.20336    4    diag,B
    6      0.139D-01      0.179D-01     -4855.92389701   3910.620187    0.00000    0.00000    0.29916    5    diag,B
    7      0.588D-02      0.773D-02     -4856.06856232   3881.372298    0.00000    0.00000   -0.36881    6    diag,B
    8      0.410D-02      0.139D-02     -4856.07814341   3876.310997    0.00000    0.00000   -0.52614    7    diag,B
    9      0.185D-02      0.441D-03     -4856.08002198   3874.787604    0.00000    0.00000   -0.54047    8    diag,B
   10      0.764D-03      0.290D-03     -4856.08099392   3874.500353    0.00000    0.00000   -0.52417    9    orth
   11      0.927D-03      0.189D-03     -4856.08158262   3874.545587    0.00000    0.00000   -0.49966    9    diag,B
   12      0.568D-03      0.129D-03     -4856.08206751   3874.387420    0.00000    0.00000   -0.47482    9    diag,B
   13      0.365D-03      0.975D-04     -4856.08249970   3874.311500    0.00000    0.00000   -0.43980    9    diag,B
   14      0.431D-03      0.632D-04     -4856.08271970   3874.077750    0.00000    0.00000   -0.41074    9    diag,B
   15      0.351D-03      0.406D-04     -4856.08278014   3874.081254    0.00000    0.00000   -0.39616    9    diag,B
   16      0.175D-03      0.222D-04     -4856.08279641   3873.964951    0.00000    0.00000   -0.39272    9    diag,B
   17      0.103D-03      0.135D-04     -4856.08280173   3873.941499    0.00000    0.00000   -0.39170    9    diag,B
   18      0.420D-04      0.622D-05     -4856.08280287   3873.924406    0.00000    0.00000   -0.39207    9    diag,B
   19      0.394D-04      0.258D-05     -4856.08280301   3873.918566    0.00000    0.00000   -0.39271    9    fixocc
   20      0.122D-04      0.129D-05     -4856.08280304   3873.919314    0.00000    0.00000   -0.39307    9    orth
   21      0.426D-05      0.690D-06     -4856.08279994   3873.830309    0.00000    0.00000   -0.40299    0    orth

 Final alpha occupancy:  14   6   6   2
 Final beta  occupancy:  14   5   5   1

 !RHF STATE 1.1 Energy              -4856.082799940643
 Nuclear energy                        90.71609330
 One-electron energy                -6883.71404770
 Two-electron energy                 1936.91515446
 Virial quotient                       -0.89130049
 !RHF STATE 1.1 Dipole moment           0.00000000     0.00000000    -0.40298781
 Dipole moment /Debye                   0.00000000     0.00000000    -1.02422576

 ELECTRON ORBITALS
 =================


   Orb  Occ    Energy  Couls-En    Coefficients

                                   1 1s      1 1s      1 1s      1 1s      1 1s      1 1s      1 1s      1 1s      1 1s      1 1s   
                                   1 1s      1 1s      1 1s      1 1s      1 1s      1 1s      1 1s      1 1s      1 1s      1 1s   
                                   1 1s      1 1s      1 1s      1 1s      1 1s      1 1s      1 1s      1 1s      1 1s      1 1s   
                                   1 1s      1 1s      1 2pz     1 2pz     1 2pz     1 2pz     1 2pz     1 2pz     1 2pz     1 2pz  
                                   1 2pz     1 2pz     1 2pz     1 2pz     1 2pz     1 2pz     1 2pz     1 2pz     1 2pz     1 2pz  
                                   1 2pz     1 2pz     1 2pz     1 2pz     1 2pz     1 2pz     1 2pz     1 3d0     1 3d2+    1 3d0  
                                   1 3d2+    1 3d0     1 3d2+    1 3d0     1 3d2+    1 3d0     1 3d2+    1 3d0     1 3d2+    1 3d0  
                                   1 3d2+    1 3d0     1 3d2+    1 3d0     1 3d2+    1 3d0     1 3d2+    1 3d0     1 3d2+    1 3d0  
                                   1 3d2+    1 3d0     1 3d2+    1 3d0     1 3d2+    1 3d0     1 3d2+    1 3d0     1 3d2+    1 3d0  
                                   1 3d2+    1 3d0     1 3d2+    1 4f0     1 4f2+    1 4f0     1 4f2+    1 4f0     1 4f2+    1 4f0  
                                   1 4f2+    1 4f0     1 4f2+    1 5g0     1 5g4+    1 5g2+    1 5g0     1 5g4+    1 5g2+    1 5g0  
                                   1 5g4+    1 5g2+    2 1s      2 1s      2 1s      2 1s      2 1s      2 1s      2 1s      2 1s   
                                   2 1s      2 1s      2 1s      2 1s      2 1s      2 2pz     2 2pz     2 2pz     2 2pz     2 2pz  
                                   2 2pz     2 2pz     2 2pz     2 3d0     2 3d2+    2 3d0     2 3d2+    2 3d0     2 3d2+    2 3d0  
                                   2 3d2+    2 4f0     2 4f2+    2 4f0     2 4f2+ 

   1.1   2  -857.7188-1900.9087  0.000045  0.000122  0.000335  0.000765  0.001628  0.003290  0.006567  0.013170  0.026884  0.055549
                                 0.112517  0.208272  0.308816  0.297915 -0.004400  0.130168  0.011229  0.004376 -0.010071  0.057731
                                -0.076276  0.038792 -0.016991  0.005343 -0.001671  0.000813 -0.000178  0.000094 -0.000048  0.000022
                                -0.000005  0.000001 -0.000000 -0.000000 -0.000000 -0.000000 -0.000000 -0.000000 -0.000000 -0.000001
                                -0.000001 -0.000000  0.000001 -0.000008  0.000011 -0.000007  0.000022 -0.000029  0.000017 -0.000027
                                 0.000027 -0.000008  0.000002  0.000000  0.000002  0.000001 -0.000000 -0.000000  0.000000 -0.000000
                                -0.000000  0.000000  0.000000 -0.000000 -0.000000  0.000000  0.000000 -0.000000 -0.000000  0.000000
                                 0.000000 -0.000000 -0.000000  0.000004  0.000000 -0.000007 -0.000000  0.000006  0.000000 -0.000006
                                -0.000000  0.000011  0.000000 -0.000009 -0.000000  0.000003  0.000000 -0.000001 -0.000000  0.000001
                                 0.000000 -0.000000 -0.000000 -0.000000  0.000000  0.000002  0.000000 -0.000002 -0.000000  0.000001
                                 0.000000  0.000000 -0.000000  0.000000  0.000000 -0.000000 -0.000000  0.000000  0.000000  0.000000
                                 0.000000 -0.000000 -0.000000  0.000000 -0.000000  0.000000 -0.000000  0.000000  0.000001  0.000000
                                 0.000000 -0.000001 -0.000004 -0.000001 -0.000000  0.000000  0.000000 -0.000000  0.000000  0.000001
                                 0.000002 -0.000000 -0.000000  0.000000 -0.000000 -0.000001  0.000000 -0.000000  0.000000 -0.000000
                                 0.000000  0.000000  0.000000  0.000000  0.000000

   2.1   2  -127.2875 -389.0081 -0.000015 -0.000041 -0.000113 -0.000258 -0.000550 -0.001115 -0.002238 -0.004529 -0.009382 -0.019887
                                -0.042212 -0.085437 -0.150306 -0.190841  0.002594 -0.066951  0.308951  0.553394  0.266851  0.112303
                                -0.128745  0.099301 -0.047942  0.017351 -0.006001  0.002903 -0.000725  0.000373 -0.000193  0.000089
                                -0.000022  0.000005 -0.000000 -0.000000 -0.000000 -0.000000 -0.000001 -0.000002 -0.000006 -0.000016
                                -0.000036 -0.000065 -0.000082 -0.000093  0.000041 -0.000040  0.000074 -0.000099  0.000057 -0.000098
                                 0.000099 -0.000029  0.000007  0.000002  0.000007  0.000003 -0.000001 -0.000000 -0.000000 -0.000000
                                -0.000000 -0.000001 -0.000000 -0.000004 -0.000000 -0.000029 -0.000000 -0.000030 -0.000000  0.000002
                                -0.000000 -0.000012  0.000000  0.000054 -0.000000 -0.000083  0.000000  0.000055 -0.000000 -0.000041
                                 0.000000  0.000055 -0.000000 -0.000045  0.000000  0.000014 -0.000000 -0.000004  0.000000  0.000005
                                -0.000000 -0.000001  0.000000 -0.000002 -0.000000  0.000010  0.000000 -0.000010 -0.000000  0.000003
                                 0.000000  0.000000 -0.000000  0.000001 -0.000004  0.000000 -0.000001  0.000001 -0.000000  0.000002
                                -0.000001  0.000000 -0.000000  0.000000 -0.000000  0.000000 -0.000000  0.000001  0.000002  0.000001
                                 0.000002 -0.000003 -0.000016 -0.000002 -0.000001  0.000000  0.000001 -0.000001  0.000001  0.000005
                                 0.000007 -0.000001 -0.000000  0.000000  0.000000 -0.000002  0.000000 -0.000002 -0.000000 -0.000000
                                -0.000000  0.000000 -0.000000  0.000002  0.000000

   3.1   2  -113.8545 -369.9069 -0.000000 -0.000000 -0.000000 -0.000000 -0.000000 -0.000000 -0.000001 -0.000001 -0.000002 -0.000005
                                -0.000010 -0.000021 -0.000038 -0.000047 -0.000001 -0.000015  0.000084  0.000141  0.000024  0.000327
                                -0.000496  0.000354 -0.000226  0.000111 -0.000074  0.000055 -0.000030  0.000030 -0.000018  0.000005
                                 0.000000 -0.000000  0.000016  0.000055  0.000203  0.000713  0.002485  0.008366  0.026119  0.072486
                                 0.167223  0.296009  0.348836  0.212863  0.000877  0.050282  0.007461 -0.004535  0.002514 -0.002422
                                 0.002017 -0.000458  0.000065 -0.000025  0.000007 -0.000002  0.000000 -0.000000  0.000000 -0.000000
                                -0.000000 -0.000001 -0.000000 -0.000004 -0.000000 -0.000013 -0.000000 -0.000013 -0.000000 -0.000001
                                 0.000000 -0.000003 -0.000000  0.000008  0.000000 -0.000014 -0.000000  0.000009  0.000000 -0.000010
                                -0.000000  0.000022  0.000000 -0.000022  0.000000  0.000012 -0.000000 -0.000009  0.000000  0.000002
                                -0.000000 -0.000001  0.000000 -0.000010 -0.000000  0.000047  0.000000 -0.000042 -0.000000  0.000007
                                 0.000000 -0.000004 -0.000000 -0.000000  0.000000 -0.000000  0.000000 -0.000000  0.000000  0.000000
                                -0.000000 -0.000000 -0.000000  0.000000 -0.000000  0.000000 -0.000000  0.000003  0.000010  0.000005
                                -0.000003  0.000005 -0.000002 -0.000009 -0.000007  0.000000  0.000002 -0.000001  0.000001 -0.000003
                                 0.000002 -0.000002 -0.000000  0.000001 -0.000000 -0.000002  0.000000 -0.000000 -0.000000 -0.000000
                                 0.000000  0.000000 -0.000000  0.000002  0.000000

   4.1   2   -23.9728 -133.3739  0.000007  0.000018  0.000049  0.000111  0.000237  0.000481  0.000965  0.001956  0.004059  0.008640
                                 0.018447  0.037877  0.068221  0.092150 -0.003564  0.035053 -0.204787 -0.489232 -0.317207  0.276863
                                -0.066401  0.473895  0.367274  0.293517  0.054321 -0.004968  0.002801 -0.000894  0.000573 -0.000214
                                 0.000064 -0.000014  0.000000  0.000000  0.000000  0.000000  0.000001  0.000004  0.000014  0.000038
                                 0.000092  0.000171  0.000210  0.000100 -0.000058 -0.000268 -0.000642  0.000063 -0.000497  0.000187
                                -0.000254  0.000095 -0.000057  0.000049 -0.000005 -0.000004  0.000003 -0.000000 -0.000000 -0.000000
                                -0.000000 -0.000001 -0.000000 -0.000008 -0.000000 -0.000003 -0.000000 -0.000040 -0.000000 -0.000133
                                -0.000000 -0.000343 -0.000000 -0.000967 -0.000000  0.000805 -0.000000 -0.000363  0.000000  0.000189
                                -0.000000 -0.000111  0.000000  0.000059 -0.000000 -0.000017 -0.000000  0.000032  0.000000 -0.000010
                                -0.000000  0.000004  0.000000 -0.000048  0.000000  0.000175 -0.000000 -0.000145  0.000000  0.000015
                                 0.000000  0.000007  0.000000  0.000016 -0.000044  0.000000 -0.000029  0.000077 -0.000000  0.000010
                                -0.000017  0.000000 -0.000000 -0.000000  0.000000 -0.000000  0.000000 -0.000001 -0.000004 -0.000006
                                 0.000010 -0.000043  0.000007  0.000006  0.000003  0.000000  0.000003  0.000000  0.000007  0.000035
                                -0.000008 -0.000002 -0.000000  0.000000  0.000000 -0.000005 -0.000000 -0.000010  0.000000 -0.000000
                                 0.000000  0.000001 -0.000000  0.000001  0.000000

   5.1   2   -20.6985  -63.9886  0.000000  0.000000  0.000000  0.000000  0.000000  0.000000  0.000000  0.000000  0.000000  0.000000
                                 0.000000  0.000001 -0.000001  0.000011 -0.000018  0.000016 -0.000023  0.000053 -0.000346  0.003897
                                -0.006444  0.005167 -0.003777  0.002186 -0.001699  0.001320 -0.000963  0.004024 -0.006391 -0.001642
                                -0.000112  0.000081 -0.000000 -0.000000  0.000000 -0.000000  0.000000 -0.000000  0.000001 -0.000003
                                 0.000008 -0.000028  0.000113 -0.001427  0.002094 -0.001651  0.006231 -0.008733  0.005822 -0.011679
                                 0.012567 -0.004599  0.002664 -0.004714 -0.001961  0.000324 -0.000033 -0.000000 -0.000000  0.000000
                                -0.000000 -0.000000 -0.000000  0.000001 -0.000000 -0.000003 -0.000000  0.000007 -0.000000 -0.000025
                                -0.000000  0.000096 -0.000000 -0.001440 -0.000000  0.002538  0.000000 -0.002209 -0.000000  0.001819
                                 0.000000 -0.002015 -0.000000  0.001439  0.000000 -0.000295  0.000000 -0.002800  0.000000 -0.000234
                                 0.000000  0.000123 -0.000000  0.000001  0.000000 -0.000052 -0.000000  0.000096  0.000000 -0.000220
                                -0.000000 -0.001069  0.000000 -0.000014  0.000000 -0.000000  0.000051  0.000000  0.000000 -0.000216
                                 0.000000 -0.000000  0.000743  0.004237  0.020742  0.079665  0.231900  0.424833  0.334218  0.040973
                                -0.010925  0.008636  0.001674  0.010745  0.014038 -0.000013  0.000055 -0.000258  0.000638 -0.004736
                                -0.000750 -0.000239 -0.000009  0.000178  0.000000  0.000364  0.000000  0.001806  0.000000 -0.000180
                                 0.000000  0.000092 -0.000000 -0.000456  0.000000

   6.1   2   -19.4233 -125.2554  0.000000  0.000000  0.000000  0.000000  0.000000  0.000001  0.000001  0.000002  0.000005  0.000011
                                 0.000023  0.000048  0.000086  0.000125 -0.000018  0.000057 -0.000285 -0.000602 -0.000618  0.002783
                                -0.004005  0.003887 -0.001866  0.001482 -0.000897  0.000768 -0.000397  0.000163  0.000190 -0.000095
                                 0.000024 -0.000005 -0.000007 -0.000025 -0.000091 -0.000320 -0.001118 -0.003789 -0.011975 -0.034034
                                -0.081599 -0.152309 -0.185097 -0.030137 -0.003569  0.296838  0.489014  0.011074  0.284367  0.038788
                                 0.008231  0.000317  0.000850  0.000141 -0.000036 -0.000002  0.000001 -0.000000 -0.000000 -0.000001
                                -0.000000 -0.000003 -0.000000 -0.000014 -0.000000 -0.000041 -0.000000 -0.000102 -0.000000 -0.000180
                                -0.000000 -0.000273 -0.000000 -0.000174 -0.000000 -0.000120  0.000000  0.000246 -0.000000 -0.000355
                                -0.000000  0.000781  0.000000 -0.000737 -0.000000  0.000270 -0.000000 -0.000059 -0.000000 -0.000019
                                -0.000000  0.000002  0.000000 -0.000799 -0.000000  0.002585  0.000000 -0.002233 -0.000000  0.000300
                                 0.000000 -0.000077 -0.000000 -0.000008 -0.000000  0.000000 -0.000003  0.000000 -0.000000  0.000023
                                -0.000000  0.000000  0.000000  0.000000  0.000000  0.000000 -0.000001  0.000019  0.000058  0.000022
                                 0.000053 -0.000095 -0.000030 -0.000057 -0.000035  0.000003  0.000033 -0.000022  0.000021  0.000145
                                 0.000012 -0.000025 -0.000001  0.000012  0.000000 -0.000055  0.000000 -0.000084  0.000000 -0.000002
                                -0.000000  0.000002 -0.000000  0.000047  0.000000

   7.1   2   -12.1857 -113.4347  0.000000  0.000000 -0.000000  0.000000  0.000000  0.000000  0.000000  0.000000  0.000000  0.000000
                                 0.000000  0.000000  0.000000  0.000000  0.000000 -0.000000 -0.000000 -0.000000  0.000000 -0.000000
                                 0.000000 -0.000000  0.000000 -0.000000  0.000000 -0.000000  0.000000 -0.000000  0.000000 -0.000000
                                 0.000000  0.000000 -0.000000  0.000000 -0.000000 -0.000000 -0.000000  0.000000 -0.000000 -0.000000
                                -0.000000 -0.000000 -0.000000  0.000000 -0.000000  0.000000  0.000000  0.000000  0.000000 -0.000000
                                 0.000000 -0.000000  0.000000 -0.000000 -0.000000  0.000000 -0.000000  0.000000  0.000149  0.000000
                                 0.001274  0.000000  0.007717  0.000000  0.031711  0.000000  0.096183  0.000000  0.214007  0.000000
                                 0.329593  0.000000  0.338685  0.000000  0.196003 -0.000000 -0.017741  0.000000  0.034534  0.000000
                                 0.018273 -0.000000 -0.006761  0.000000  0.005663 -0.000000 -0.000482 -0.000000  0.000196 -0.000000
                                -0.000050  0.000000  0.000014 -0.000000 -0.000250  0.000000  0.000699 -0.000000 -0.000610  0.000000
                                 0.000066 -0.000000 -0.000024 -0.000000 -0.000000 -0.000183  0.000000  0.000000  0.000127 -0.000000
                                -0.000000 -0.000052  0.000000  0.000000  0.000000  0.000000  0.000000  0.000000  0.000000  0.000000
                                 0.000000  0.000000  0.000000 -0.000000 -0.000000  0.000000  0.000000  0.000000  0.000000 -0.000000
                                -0.000000  0.000000  0.000000 -0.000000  0.000000  0.000000 -0.000001  0.000000  0.000009 -0.000000
                                -0.000000 -0.000000  0.000002 -0.000000 -0.000009

   8.1   2   -12.1645 -113.4139  0.000000  0.000000  0.000000  0.000000  0.000000  0.000001  0.000001  0.000003  0.000005  0.000011
                                 0.000024  0.000049  0.000089  0.000122 -0.000005  0.000047 -0.000299 -0.000752 -0.000417 -0.000079
                                 0.001042  0.000604  0.001406 -0.001028 -0.000784  0.000236 -0.000048  0.000241 -0.000173 -0.000242
                                -0.000090  0.000022 -0.000000 -0.000000 -0.000000 -0.000000 -0.000001 -0.000003 -0.000009 -0.000026
                                -0.000061 -0.000117 -0.000136 -0.000076  0.000092  0.000196  0.000804 -0.000528  0.000412 -0.000801
                                 0.000879 -0.000343  0.000164 -0.000148 -0.000221 -0.000038  0.000012  0.000149 -0.000000  0.001273
                                -0.000000  0.007714 -0.000000  0.031700 -0.000000  0.096150 -0.000000  0.213918 -0.000000  0.329505
                                -0.000000  0.338724 -0.000000  0.195690 -0.000000 -0.017148  0.000000  0.034307 -0.000000  0.018659
                                -0.000000 -0.007135  0.000000  0.005885 -0.000000 -0.000511  0.000000  0.000048 -0.000000 -0.000122
                                 0.000000  0.000018 -0.000000 -0.000444  0.000000  0.001290 -0.000000 -0.001112  0.000000  0.000131
                                -0.000000 -0.000126  0.000000 -0.000278  0.000075  0.000000  0.000194 -0.000104  0.000000 -0.000104
                                 0.000017  0.000000  0.000000  0.000000  0.000000  0.000000 -0.000000  0.000016  0.000050  0.000028
                                -0.000057  0.000196  0.000301 -0.000050 -0.000030  0.000000  0.000001  0.000008 -0.000014 -0.000149
                                -0.000086  0.000000  0.000000  0.000001 -0.000000  0.000015  0.000000  0.000028  0.000000 -0.000000
                                -0.000000 -0.000002  0.000000  0.000010 -0.000000

   9.1   2    -3.6364  -53.7522 -0.000003 -0.000007 -0.000020 -0.000045 -0.000097 -0.000196 -0.000394 -0.000799 -0.001659 -0.003530
                                -0.007559 -0.015520 -0.028234 -0.037489 -0.000049 -0.013379  0.088873  0.236554  0.122125  0.270139
                                -0.677281  0.252968 -0.863037 -0.023755 -0.080011  0.858817  0.496154  0.022096  0.020680 -0.008477
                                 0.002194 -0.000521 -0.000000 -0.000000 -0.000000 -0.000000 -0.000002 -0.000005 -0.000017 -0.000046
                                -0.000114 -0.000209 -0.000280  0.000190 -0.000320  0.000797 -0.000119  0.001601 -0.000416  0.000539
                                -0.001458 -0.001204 -0.002325 -0.000500 -0.000699 -0.000342  0.000145 -0.000000 -0.000000 -0.000001
                                -0.000000 -0.000005 -0.000000 -0.000018 -0.000000 -0.000072 -0.000000 -0.000124 -0.000000 -0.000197
                                -0.000000  0.000037 -0.000000 -0.000182 -0.000000  0.001590  0.000000 -0.002179 -0.000000  0.003086
                                 0.000000 -0.003534  0.000000  0.004428  0.000000 -0.000992  0.000000  0.000115  0.000000 -0.000489
                                 0.000000  0.000109 -0.000000  0.000065  0.000000 -0.000243  0.000000  0.000333 -0.000000 -0.000216
                                 0.000000 -0.000094 -0.000000 -0.000058  0.000137  0.000000 -0.000184  0.000509 -0.000000 -0.000253
                                 0.000644  0.000000 -0.000000 -0.000002 -0.000010 -0.000041 -0.000127 -0.000302 -0.000434  0.000126
                                 0.000982  0.000739  0.001611  0.000117  0.000028 -0.000025 -0.000195 -0.000419 -0.000941 -0.000721
                                -0.000647  0.000019 -0.000003  0.000062  0.000000  0.000472 -0.000000  0.000245 -0.000000  0.000007
                                -0.000000 -0.000069 -0.000000 -0.000199  0.000000

  10.1   2    -2.2733  -48.3044 -0.000000 -0.000000 -0.000000 -0.000000 -0.000000 -0.000001 -0.000002 -0.000004 -0.000008 -0.000018
                                -0.000037 -0.000077 -0.000137 -0.000208  0.000039 -0.000102  0.000492  0.001064  0.001340 -0.006781
                                 0.009977 -0.009417  0.002887 -0.003843  0.001955  0.004653  0.003353 -0.005537  0.002510 -0.004514
                                -0.001067  0.000384  0.000003  0.000009  0.000035  0.000123  0.000429  0.001455  0.004609  0.013156
                                 0.031758  0.059905  0.073273  0.002281  0.002680 -0.157158 -0.270278 -0.036366 -0.114181  0.292938
                                 0.047894  0.522451  0.302534  0.040368 -0.006463  0.001055 -0.000201  0.000000  0.000000  0.000001
                                 0.000000  0.000003  0.000000  0.000016  0.000000  0.000039  0.000000  0.000114  0.000000  0.000122
                                 0.000000  0.000326  0.000000 -0.002292  0.000000  0.004381 -0.000000 -0.004516  0.000000  0.004200
                                -0.000000 -0.006527 -0.000000  0.003825  0.000000 -0.002190 -0.000000  0.000583  0.000000 -0.001413
                                -0.000000  0.000319  0.000000 -0.001736 -0.000000  0.000812 -0.000000 -0.002439  0.000000 -0.000714
                                -0.000000 -0.000445 -0.000000 -0.000032 -0.000002  0.000000 -0.000060  0.000000 -0.000000  0.000102
                                 0.000001  0.000000 -0.000004 -0.000021 -0.000103 -0.000409 -0.001277 -0.002856 -0.003675  0.002655
                                 0.012207  0.005524  0.004131  0.000161 -0.000109 -0.000178 -0.001304 -0.004155 -0.007355 -0.003057
                                -0.001642 -0.000112 -0.000033  0.000437 -0.000000  0.001819 -0.000000  0.000566 -0.000000  0.000034
                                -0.000000 -0.000198 -0.000000 -0.000505  0.000000

  11.1   2    -1.2654  -19.8518  0.000000  0.000000  0.000001  0.000001  0.000002  0.000005  0.000010  0.000020  0.000042  0.000089
                                 0.000191  0.000393  0.000713  0.000962 -0.000020  0.000358 -0.002291 -0.006005 -0.003560 -0.002224
                                 0.009551  0.000483  0.018068  0.004571 -0.004151 -0.020670 -0.033145  0.036519 -0.031672 -0.009158
                                 0.000928  0.000116 -0.000000 -0.000001 -0.000002 -0.000007 -0.000026 -0.000088 -0.000276 -0.000802
                                -0.001890 -0.003705 -0.004055 -0.004891  0.006923  0.003837  0.040111 -0.031698  0.031399 -0.080067
                                 0.067622 -0.067016  0.000302 -0.019577 -0.012833  0.004356 -0.000884 -0.000002 -0.000000 -0.000014
                                -0.000000 -0.000083 -0.000000 -0.000343 -0.000000 -0.001055 -0.000000 -0.002352 -0.000000 -0.003567
                                -0.000000 -0.003147 -0.000000 -0.001596 -0.000000  0.004137  0.000000 -0.000608 -0.000000  0.012602
                                 0.000000 -0.008291 -0.000000  0.018848  0.000000  0.013134  0.000000 -0.014747  0.000000 -0.000714
                                 0.000000  0.001157 -0.000000  0.001002 -0.000000 -0.001322  0.000000  0.001994 -0.000000  0.003811
                                 0.000000 -0.005861 -0.000000 -0.000073  0.000001  0.000000  0.000527 -0.000002 -0.000000  0.000744
                                -0.000024 -0.000000 -0.000168 -0.000958 -0.004749 -0.018643 -0.059155 -0.124342 -0.143143  0.175681
                                 0.583569  0.397751  0.019633 -0.028603 -0.021753 -0.000204 -0.001368 -0.005519 -0.009417 -0.034765
                                -0.004707 -0.000290 -0.000050  0.000597  0.000000  0.005232 -0.000000  0.014933  0.000000  0.000374
                                -0.000000 -0.000052 -0.000000 -0.002598 -0.000000

  12.1   2    -0.5966  -19.5977  0.000000  0.000000  0.000001  0.000002  0.000005  0.000010  0.000020  0.000041  0.000085  0.000182
                                 0.000389  0.000801  0.001454  0.001960 -0.000038  0.000728 -0.004672 -0.012298 -0.007081 -0.008177
                                 0.026518 -0.006377  0.045168  0.002986  0.000532 -0.054791 -0.064614  0.038969 -0.015411 -0.035137
                                -0.025384  0.006858 -0.000000 -0.000001 -0.000003 -0.000010 -0.000035 -0.000121 -0.000379 -0.001094
                                -0.002606 -0.005032 -0.005767 -0.004028  0.005563  0.008587  0.042362 -0.024697  0.029649 -0.082837
                                 0.061526 -0.085321 -0.009173 -0.009288 -0.028582 -0.009061  0.003559 -0.000009  0.000000 -0.000074
                                 0.000000 -0.000453  0.000000 -0.001866  0.000000 -0.005744  0.000000 -0.012826  0.000000 -0.019346
                                 0.000000 -0.017284  0.000000  0.000205  0.000000  0.006481 -0.000000  0.017718  0.000000  0.045500
                                -0.000000  0.002995  0.000000  0.069411 -0.000000  0.063828 -0.000000  0.006540 -0.000000 -0.001920
                                -0.000000 -0.000165  0.000000  0.002072  0.000000 -0.002292 -0.000000  0.003727 -0.000000  0.010360
                                 0.000000 -0.003875 -0.000000 -0.000111 -0.000019 -0.000000  0.000580 -0.000006  0.000000  0.003754
                                -0.000157  0.000000  0.000009  0.000054  0.000267  0.001056  0.003322  0.007541  0.009882 -0.010018
                                -0.043740 -0.014292  0.065561 -0.000072  0.000377 -0.011434 -0.084421 -0.290452 -0.456629 -0.353922
                                -0.048036 -0.009580 -0.002261  0.001985 -0.000000  0.007412  0.000000  0.017321 -0.000000  0.000110
                                 0.000000  0.001877  0.000000 -0.000287 -0.000000

  13.1   2    -0.3522  -34.7281 -0.000000 -0.000000 -0.000000 -0.000000 -0.000000 -0.000000 -0.000000 -0.000000 -0.000000 -0.000000
                                 0.000000 -0.000000  0.000000 -0.000000  0.000000 -0.000000  0.000000 -0.000000  0.000000 -0.000000
                                 0.000000 -0.000000  0.000000 -0.000000  0.000000 -0.000000  0.000000 -0.000000  0.000000 -0.000000
                                 0.000000 -0.000000 -0.000000 -0.000000 -0.000000 -0.000000 -0.000000 -0.000000 -0.000000 -0.000000
                                -0.000000 -0.000000  0.000000 -0.000000  0.000000 -0.000000  0.000000 -0.000000  0.000000 -0.000000
                                 0.000000 -0.000000  0.000000 -0.000000  0.000000 -0.000000  0.000000 -0.000000 -0.000044 -0.000000
                                -0.000372 -0.000000 -0.002283 -0.000000 -0.009363 -0.000000 -0.028973 -0.000000 -0.064334 -0.000000
                                -0.097976  0.000000 -0.083315 -0.000000 -0.048664  0.000000  0.130386 -0.000000 -0.001499  0.000000
                                 0.325015 -0.000000 -0.092815  0.000000  0.444247  0.000000  0.250259 -0.000000  0.183910  0.000000
                                 0.071722 -0.000000 -0.002016 -0.000000 -0.000811  0.000000  0.001632 -0.000000 -0.002530  0.000000
                                -0.001675 -0.000000 -0.002053 -0.000000 -0.000000 -0.000435  0.000000  0.000000 -0.000666 -0.000000
                                 0.000000  0.001091  0.000000  0.000000  0.000000  0.000000 -0.000000  0.000000  0.000000  0.000000
                                -0.000000  0.000000  0.000000 -0.000000 -0.000000  0.000000  0.000000 -0.000000 -0.000000 -0.000000
                                -0.000000 -0.000000 -0.000000  0.000000  0.000378 -0.000000  0.001758  0.000000  0.002666 -0.000000
                                 0.000031  0.000000 -0.000123  0.000000 -0.001312

  14.1   2    -0.2807  -31.1559 -0.000000 -0.000001 -0.000002 -0.000005 -0.000011 -0.000022 -0.000044 -0.000089 -0.000185 -0.000393
                                -0.000843 -0.001730 -0.003156 -0.004157 -0.000068 -0.001443  0.009973  0.027228  0.012695  0.048329
                                -0.107812  0.052121 -0.128835  0.009735 -0.012531  0.151703  0.120833  0.007405 -0.099604 -0.225817
                                -0.075899 -0.004237  0.000000  0.000000  0.000001  0.000005  0.000018  0.000061  0.000194  0.000552
                                 0.001344  0.002508  0.003172 -0.000978  0.001634 -0.008075 -0.006996 -0.008821  0.000549  0.005009
                                 0.013613  0.024442  0.016752 -0.021313 -0.039263  0.001013 -0.003558 -0.000039  0.000000 -0.000330
                                 0.000000 -0.002022  0.000000 -0.008290  0.000000 -0.025653  0.000000 -0.056948  0.000000 -0.086752
                                 0.000000 -0.073788  0.000000 -0.043425  0.000000  0.116271 -0.000000 -0.003168 -0.000000  0.288299
                                -0.000000 -0.083585  0.000000  0.395673 -0.000000  0.229711 -0.000000  0.174710 -0.000000  0.086188
                                 0.000000  0.003032 -0.000000 -0.001792 -0.000000  0.004102 -0.000000 -0.005953  0.000000 -0.003677
                                -0.000000 -0.008442  0.000000 -0.000702 -0.000286  0.000000 -0.000811 -0.000231 -0.000000 -0.000187
                                -0.000649  0.000000  0.000005  0.000030  0.000149  0.000582  0.001876  0.003667  0.003583 -0.007100
                                -0.019090 -0.026067 -0.040493  0.002187  0.001258  0.002221  0.016374  0.058008  0.089906  0.088713
                                 0.034697  0.002087  0.000452  0.001642  0.000000  0.006948 -0.000000  0.002315  0.000000  0.000116
                                -0.000000 -0.001350 -0.000000 -0.002353  0.000000

  15.1   0     0.0117   -8.5180 -0.000000 -0.000000 -0.000001 -0.000003 -0.000006 -0.000012 -0.000023 -0.000048 -0.000096 -0.000213
                                -0.000434 -0.000956 -0.001518 -0.003613  0.002486 -0.003009  0.008214  0.006284  0.055685 -0.536079
                                 0.875294 -0.724108  0.489840 -0.322279  0.267835 -0.167731  0.250842 -0.308686  0.455496 -0.615032
                                 1.076605 -1.518090 -0.000000 -0.000000 -0.000001 -0.000005 -0.000017 -0.000060 -0.000185 -0.000544
                                -0.001269 -0.002533 -0.002630 -0.004725  0.006800  0.000996  0.033867 -0.030520  0.027192 -0.066769
                                 0.056308 -0.049627 -0.007260  0.007207  0.161780  0.002698  0.301306  0.000008  0.000000  0.000067
                                 0.000000  0.000416  0.000000  0.001695  0.000000  0.005284  0.000000  0.011623  0.000000  0.018011
                                 0.000000  0.014277  0.000000  0.023130 -0.000000 -0.049661  0.000000  0.025374 -0.000000 -0.084668
                                 0.000000  0.061019  0.000000 -0.119182 -0.000000 -0.033612  0.000000 -0.031355 -0.000000  0.006574
                                 0.000000 -0.054791 -0.000000  0.000638  0.000000 -0.000784 -0.000000  0.001274  0.000000  0.001575
                                -0.000000  0.012584  0.000000  0.000398 -0.000165  0.000000 -0.000239 -0.000395  0.000000  0.002314
                                 0.000392 -0.000000 -0.000009 -0.000054 -0.000264 -0.001046 -0.003279 -0.007567 -0.010384  0.008636
                                 0.046249  0.036825 -0.106351  0.000746 -0.000120 -0.000841 -0.006331 -0.020962 -0.035580 -0.004137
                                 0.067547 -0.000508 -0.000154 -0.000917 -0.000000 -0.002984  0.000000 -0.016550 -0.000000 -0.000048
                                -0.000000  0.000340 -0.000000  0.002147  0.000000

  16.1   0     0.0294   -5.3477  0.000000  0.000000  0.000000  0.000000  0.000000  0.000000  0.000000  0.000001  0.000001  0.000003
                                 0.000005  0.000012  0.000018  0.000057 -0.000052  0.000056 -0.000124 -0.000015 -0.001017  0.009908
                                -0.015887  0.012246 -0.007781  0.004203 -0.002115  0.001763 -0.014958  0.101298 -0.142091 -0.262966
                                -1.331721  1.001258 -0.000000 -0.000000 -0.000000 -0.000001 -0.000004 -0.000015 -0.000039 -0.000144
                                -0.000249 -0.000768  0.000093 -0.010312  0.015222 -0.010884  0.052987 -0.072445  0.053749 -0.131962
                                 0.150703 -0.077586  0.056771 -0.119184 -0.231480 -0.923665  1.455154 -0.000003 -0.000000 -0.000019
                                -0.000000 -0.000132 -0.000000 -0.000493 -0.000000 -0.001676 -0.000000 -0.003303 -0.000000 -0.006189
                                -0.000000 -0.001277 -0.000000 -0.056772  0.000000  0.106401 -0.000000 -0.097290  0.000000  0.119945
                                -0.000000 -0.192200  0.000000  0.191613 -0.000000 -0.047091  0.000000 -0.008213 -0.000000 -0.210750
                                 0.000000 -0.010340 -0.000000  0.000036  0.000000 -0.003852 -0.000000  0.004443  0.000000 -0.003959
                                -0.000000 -0.037806  0.000000 -0.000581  0.000034 -0.000000  0.002008  0.000107  0.000000 -0.006816
                                 0.000058  0.000000  0.000009  0.000048  0.000245  0.000933  0.003148  0.004644  0.001354 -0.014398
                                -0.040673 -0.063803  1.028096  0.008345  0.004795 -0.000002  0.000627 -0.005788  0.006730 -0.129828
                                -0.491559 -0.001397 -0.000084  0.000090 -0.000000  0.002620 -0.000000  0.064925 -0.000000  0.000052
                                -0.000000  0.001234  0.000000 -0.010562 -0.000000

                                   1 2px     1 2px     1 2px     1 2px     1 2px     1 2px     1 2px     1 2px     1 2px     1 2px  
                                   1 2px     1 2px     1 2px     1 2px     1 2px     1 2px     1 2px     1 2px     1 2px     1 2px  
                                   1 2px     1 2px     1 2px     1 2px     1 2px     1 3d1+    1 3d1+    1 3d1+    1 3d1+    1 3d1+ 
                                   1 3d1+    1 3d1+    1 3d1+    1 3d1+    1 3d1+    1 3d1+    1 3d1+    1 3d1+    1 3d1+    1 3d1+ 
                                   1 3d1+    1 3d1+    1 3d1+    1 4f1+    1 4f3+    1 4f1+    1 4f3+    1 4f1+    1 4f3+    1 4f1+ 
                                   1 4f3+    1 4f1+    1 4f3+    1 5g1+    1 5g3+    1 5g1+    1 5g3+    1 5g1+    1 5g3+    2 2px  
                                   2 2px     2 2px     2 2px     2 2px     2 2px     2 2px     2 2px     2 3d1+    2 3d1+    2 3d1+ 
                                   2 3d1+    2 4f1+    2 4f3+    2 4f1+    2 4f3+ 

   1.2   2  -113.8602 -369.9107  0.000016  0.000055  0.000203  0.000713  0.002485  0.008366  0.026118  0.072484  0.167217  0.295998
                                 0.348847  0.212943  0.000798  0.050294  0.007351 -0.004400  0.002450 -0.002279  0.001882 -0.000411
                                 0.000051 -0.000022  0.000007 -0.000004  0.000001 -0.000000 -0.000000 -0.000001 -0.000003 -0.000008
                                -0.000011 -0.000003 -0.000002  0.000009 -0.000013  0.000009 -0.000006  0.000008 -0.000006  0.000001
                                -0.000001 -0.000000 -0.000000 -0.000013 -0.000009  0.000031 -0.000006 -0.000027  0.000002  0.000002
                                -0.000002 -0.000001  0.000000 -0.000000  0.000000  0.000000 -0.000000 -0.000000  0.000000 -0.000000
                                -0.000000 -0.000000 -0.000001  0.000000  0.000000  0.000000  0.000000 -0.000000  0.000000 -0.000001
                                 0.000000 -0.000000  0.000000 -0.000000 -0.000000

   2.2   2   -19.4398 -125.2483 -0.000007 -0.000025 -0.000091 -0.000320 -0.001118 -0.003788 -0.011971 -0.034022 -0.081571 -0.152248
                                -0.185045 -0.030147 -0.003628  0.296710  0.488038  0.012140  0.284388  0.039697  0.007162  0.000444
                                 0.000853 -0.000051  0.000048 -0.000030  0.000008 -0.000000 -0.000001 -0.000004 -0.000015 -0.000045
                                -0.000110 -0.000185 -0.000229 -0.000064 -0.000130  0.000147 -0.000175  0.000261 -0.000216  0.000051
                                -0.000029 -0.000011 -0.000003 -0.000758 -0.000234  0.002394  0.000808 -0.001979 -0.000586  0.000234
                                 0.000093 -0.000071 -0.000013 -0.000008 -0.000000  0.000007 -0.000000 -0.000001 -0.000000 -0.000000
                                -0.000004  0.000011  0.000005  0.000026  0.000017  0.000005  0.000000 -0.000004  0.000010 -0.000016
                                 0.000001  0.000002 -0.000000 -0.000015  0.000000

   3.2   2   -12.1714 -113.4274 -0.000000 -0.000000 -0.000000 -0.000000 -0.000001 -0.000002 -0.000007 -0.000019 -0.000046 -0.000086
                                -0.000104 -0.000026  0.000011  0.000165  0.000384 -0.000104  0.000224 -0.000093  0.000149 -0.000078
                                 0.000016 -0.000037 -0.000026 -0.000005 -0.000000  0.000149  0.001274  0.007717  0.031710  0.096181
                                 0.213989  0.329589  0.338708  0.195692 -0.017376  0.034423  0.018434 -0.006863  0.005700 -0.000506
                                 0.000142 -0.000064  0.000010 -0.000395 -0.000000  0.001134 -0.000000 -0.000974 -0.000000  0.000106
                                -0.000000 -0.000075 -0.000000 -0.000264 -0.000046  0.000190  0.000063 -0.000093 -0.000010  0.000000
                                 0.000000  0.000010  0.000003  0.000064  0.000022  0.000002  0.000000  0.000002 -0.000007 -0.000045
                                -0.000000 -0.000003 -0.000000  0.000021  0.000001

   4.2   2    -2.2671  -48.1549  0.000003  0.000009  0.000035  0.000122  0.000428  0.001453  0.004601  0.013131  0.031704  0.059786
                                 0.073186  0.001783  0.003423 -0.157529 -0.266922 -0.040022 -0.111968  0.285880  0.055568  0.517546
                                 0.304145  0.045294 -0.002559  0.001886 -0.000540  0.000000  0.000002  0.000011  0.000047  0.000142
                                 0.000324  0.000492  0.000466 -0.000036 -0.000121 -0.000619 -0.001092  0.000052 -0.002274 -0.000680
                                 0.000242  0.000020  0.000025 -0.000242  0.002323 -0.000897 -0.003267  0.001103  0.006234  0.000919
                                 0.002913  0.000144  0.001080 -0.000007 -0.000006 -0.000039 -0.000009  0.000145 -0.000020  0.000052
                                 0.000390  0.001161  0.002099  0.001290 -0.000065  0.000013  0.000008 -0.000112 -0.000669 -0.000225
                                -0.000011  0.000089  0.000000  0.000266  0.000003

   5.2   2    -0.3558  -32.9755 -0.000000 -0.000000 -0.000000 -0.000001 -0.000002 -0.000007 -0.000022 -0.000064 -0.000148 -0.000296
                                -0.000307 -0.000550  0.000794  0.000119  0.003959 -0.003586  0.003215 -0.007937  0.006558 -0.005621
                                -0.001232  0.000927  0.002354  0.005060 -0.000951 -0.000041 -0.000349 -0.002140 -0.008776 -0.027149
                                -0.060297 -0.091786 -0.078306 -0.042895  0.117064  0.003026  0.298716 -0.077933  0.407922  0.242743
                                 0.175250  0.076132  0.000418 -0.000647 -0.000002  0.003804 -0.000007 -0.004735  0.000012  0.001380
                                 0.000011 -0.004352  0.000040 -0.000565  0.000127 -0.000779  0.000069  0.002063  0.000449  0.002667
                                 0.019526  0.066694  0.107621  0.081820  0.000635  0.002203  0.000527 -0.002084 -0.009364 -0.012526
                                -0.000167  0.000227 -0.000008  0.002925  0.000038

   6.2   +    -0.6529  -19.7234 -0.000000 -0.000000 -0.000001 -0.000003 -0.000010 -0.000034 -0.000107 -0.000309 -0.000735 -0.001424
                                -0.001617 -0.001298  0.001804  0.002226  0.012668 -0.008041  0.009098 -0.023614  0.017027 -0.022273
                                -0.003537  0.003008 -0.004867  0.005358 -0.001267  0.000014  0.000115  0.000708  0.002898  0.008989
                                 0.019905  0.030460  0.025370  0.021671 -0.052622  0.011977 -0.112729  0.048919 -0.156913 -0.068991
                                -0.072120 -0.028554  0.003358  0.000823  0.000041  0.002928 -0.000033 -0.002394  0.000107  0.007338
                                -0.000001 -0.003880 -0.000029  0.000367  0.000111  0.000691  0.000307  0.001756  0.000214  0.012006
                                 0.088275  0.312255  0.490768  0.308512  0.007709  0.010805  0.002427 -0.000314 -0.000668 -0.007162
                                -0.000023 -0.005294  0.000004 -0.001267 -0.000022

   7.2   0     0.0275   -5.6287 -0.000000 -0.000000 -0.000001 -0.000004 -0.000012 -0.000047 -0.000126 -0.000435 -0.000819 -0.002237
                                -0.000353 -0.023744  0.034989 -0.023666  0.122587 -0.163289  0.120429 -0.281858  0.307345 -0.148681
                                 0.061814 -0.092239  0.265840 -0.559610  1.315785 -0.000000 -0.000002 -0.000014 -0.000058 -0.000172
                                -0.000399 -0.000560 -0.000636  0.001888 -0.003132  0.003759 -0.001708  0.005430 -0.002142  0.002878
                                 0.000671  0.008067 -0.054568 -0.000088  0.000012 -0.000846  0.000177  0.000728 -0.000136 -0.001844
                                -0.000010  0.001791 -0.000456  0.000047 -0.000002 -0.000231 -0.000009  0.000387  0.000004 -0.000449
                                -0.003163 -0.013346 -0.018590 -0.025164  0.014810 -0.000770 -0.000113  0.000006 -0.001272  0.003538
                                -0.000020  0.000227 -0.000002  0.000172  0.000008

   8.2   0     0.0882   -6.8075  0.000000  0.000000  0.000001  0.000004  0.000017  0.000052  0.000188  0.000457  0.001346  0.001822
                                 0.004716 -0.024673  0.036676 -0.035917  0.108388 -0.173188  0.118075 -0.268490  0.324307 -0.109092
                                 0.091537 -0.122246  0.233082 -0.640105  0.486772  0.000002  0.000032  0.000138  0.000786  0.001711
                                 0.005819  0.003292  0.021858 -0.252419  0.457104 -0.449631  0.431897 -0.763321  0.620703 -0.253566
                                 0.235386 -0.390808  1.237109  0.000228 -0.000021 -0.002250 -0.000162  0.002651  0.000103 -0.001034
                                 0.000060  0.003946  0.000565  0.000086  0.000024 -0.000005  0.000091  0.000020  0.000020 -0.000461
                                -0.004506 -0.002268 -0.020132  0.034263 -0.230435  0.002045  0.000057  0.000682  0.002707  0.014549
                                 0.000038  0.000668  0.000002 -0.002369 -0.000009

                                   1 2py     1 2py     1 2py     1 2py     1 2py     1 2py     1 2py     1 2py     1 2py     1 2py  
                                   1 2py     1 2py     1 2py     1 2py     1 2py     1 2py     1 2py     1 2py     1 2py     1 2py  
                                   1 2py     1 2py     1 2py     1 2py     1 2py     1 3d1-    1 3d1-    1 3d1-    1 3d1-    1 3d1- 
                                   1 3d1-    1 3d1-    1 3d1-    1 3d1-    1 3d1-    1 3d1-    1 3d1-    1 3d1-    1 3d1-    1 3d1- 
                                   1 3d1-    1 3d1-    1 3d1-    1 4f1-    1 4f3-    1 4f1-    1 4f3-    1 4f1-    1 4f3-    1 4f1- 
                                   1 4f3-    1 4f1-    1 4f3-    1 5g1-    1 5g3-    1 5g1-    1 5g3-    1 5g1-    1 5g3-    2 2py  
                                   2 2py     2 2py     2 2py     2 2py     2 2py     2 2py     2 2py     2 3d1-    2 3d1-    2 3d1- 
                                   2 3d1-    2 4f1-    2 4f3-    2 4f1-    2 4f3- 

   1.3   2  -113.8602 -369.9107  0.000016  0.000055  0.000203  0.000713  0.002485  0.008366  0.026118  0.072484  0.167217  0.295998
                                 0.348847  0.212943  0.000798  0.050294  0.007351 -0.004400  0.002450 -0.002279  0.001882 -0.000411
                                 0.000051 -0.000022  0.000007 -0.000004  0.000001 -0.000000 -0.000000 -0.000001 -0.000003 -0.000008
                                -0.000011 -0.000003 -0.000002  0.000009 -0.000013  0.000009 -0.000006  0.000008 -0.000006  0.000001
                                -0.000001 -0.000000 -0.000000 -0.000013  0.000009  0.000031  0.000006 -0.000027 -0.000002  0.000002
                                 0.000002 -0.000001 -0.000000 -0.000000 -0.000000  0.000000  0.000000 -0.000000 -0.000000 -0.000000
                                -0.000000 -0.000000 -0.000001  0.000000  0.000000  0.000000  0.000000 -0.000000  0.000000 -0.000001
                                 0.000000 -0.000000 -0.000000 -0.000000  0.000000

   2.3   2   -19.4398 -125.2483 -0.000007 -0.000025 -0.000091 -0.000320 -0.001118 -0.003788 -0.011971 -0.034022 -0.081571 -0.152248
                                -0.185045 -0.030147 -0.003628  0.296710  0.488038  0.012140  0.284388  0.039697  0.007162  0.000444
                                 0.000853 -0.000051  0.000048 -0.000030  0.000008 -0.000000 -0.000001 -0.000004 -0.000015 -0.000045
                                -0.000110 -0.000185 -0.000229 -0.000064 -0.000130  0.000147 -0.000175  0.000261 -0.000216  0.000051
                                -0.000029 -0.000011 -0.000003 -0.000758  0.000234  0.002394 -0.000808 -0.001979  0.000586  0.000234
                                -0.000093 -0.000071  0.000013 -0.000008  0.000000  0.000007  0.000000 -0.000001  0.000000 -0.000000
                                -0.000004  0.000011  0.000005  0.000026  0.000017  0.000005  0.000000 -0.000004  0.000010 -0.000016
                                 0.000001  0.000002  0.000000 -0.000015 -0.000000

   3.3   2   -12.1714 -113.4274 -0.000000 -0.000000 -0.000000 -0.000000 -0.000001 -0.000002 -0.000007 -0.000019 -0.000046 -0.000086
                                -0.000104 -0.000026  0.000011  0.000165  0.000384 -0.000104  0.000224 -0.000093  0.000149 -0.000078
                                 0.000016 -0.000037 -0.000026 -0.000005 -0.000000  0.000149  0.001274  0.007717  0.031710  0.096181
                                 0.213989  0.329589  0.338708  0.195692 -0.017376  0.034423  0.018434 -0.006863  0.005700 -0.000506
                                 0.000142 -0.000064  0.000010 -0.000395  0.000000  0.001134  0.000000 -0.000974  0.000000  0.000106
                                 0.000000 -0.000075  0.000000 -0.000264  0.000046  0.000190 -0.000063 -0.000093  0.000010  0.000000
                                 0.000000  0.000010  0.000003  0.000064  0.000022  0.000002  0.000000  0.000002 -0.000007 -0.000045
                                -0.000000 -0.000003  0.000000  0.000021 -0.000001

   4.3   2    -2.2671  -48.1549  0.000003  0.000009  0.000035  0.000122  0.000428  0.001453  0.004601  0.013131  0.031704  0.059786
                                 0.073186  0.001783  0.003423 -0.157529 -0.266922 -0.040022 -0.111968  0.285880  0.055568  0.517546
                                 0.304145  0.045294 -0.002559  0.001886 -0.000540  0.000000  0.000002  0.000011  0.000047  0.000142
                                 0.000324  0.000492  0.000466 -0.000036 -0.000121 -0.000619 -0.001092  0.000052 -0.002274 -0.000680
                                 0.000242  0.000020  0.000025 -0.000242 -0.002323 -0.000897  0.003267  0.001103 -0.006234  0.000919
                                -0.002913  0.000144 -0.001080 -0.000007  0.000006 -0.000039  0.000009  0.000145  0.000020  0.000052
                                 0.000390  0.001161  0.002099  0.001290 -0.000065  0.000013  0.000008 -0.000112 -0.000669 -0.000225
                                -0.000011  0.000089 -0.000000  0.000266 -0.000003

   5.3   2    -0.3558  -32.9755 -0.000000 -0.000000 -0.000000 -0.000001 -0.000002 -0.000007 -0.000022 -0.000064 -0.000148 -0.000296
                                -0.000307 -0.000550  0.000794  0.000119  0.003959 -0.003586  0.003215 -0.007937  0.006558 -0.005621
                                -0.001232  0.000927  0.002354  0.005060 -0.000951 -0.000041 -0.000349 -0.002140 -0.008776 -0.027149
                                -0.060297 -0.091786 -0.078306 -0.042895  0.117064  0.003026  0.298716 -0.077933  0.407922  0.242743
                                 0.175250  0.076132  0.000418 -0.000647  0.000002  0.003804  0.000007 -0.004735 -0.000012  0.001380
                                -0.000011 -0.004352 -0.000040 -0.000565 -0.000127 -0.000779 -0.000069  0.002063 -0.000449  0.002667
                                 0.019526  0.066694  0.107621  0.081820  0.000635  0.002203  0.000527 -0.002084 -0.009364 -0.012526
                                -0.000167  0.000227  0.000008  0.002925 -0.000038

   6.3   +    -0.6529  -19.7234 -0.000000 -0.000000 -0.000001 -0.000003 -0.000010 -0.000034 -0.000107 -0.000309 -0.000735 -0.001424
                                -0.001617 -0.001298  0.001804  0.002226  0.012668 -0.008041  0.009098 -0.023614  0.017027 -0.022273
                                -0.003537  0.003008 -0.004867  0.005358 -0.001267  0.000014  0.000115  0.000708  0.002898  0.008989
                                 0.019905  0.030460  0.025370  0.021671 -0.052622  0.011977 -0.112729  0.048919 -0.156913 -0.068991
                                -0.072120 -0.028554  0.003358  0.000823 -0.000041  0.002928  0.000033 -0.002394 -0.000107  0.007338
                                 0.000001 -0.003880  0.000029  0.000367 -0.000111  0.000691 -0.000307  0.001756 -0.000214  0.012006
                                 0.088275  0.312255  0.490768  0.308512  0.007709  0.010805  0.002427 -0.000314 -0.000668 -0.007162
                                -0.000023 -0.005294 -0.000004 -0.001267  0.000022

   7.3   0     0.0275   -5.6287 -0.000000 -0.000000 -0.000001 -0.000004 -0.000012 -0.000047 -0.000126 -0.000435 -0.000819 -0.002237
                                -0.000353 -0.023744  0.034989 -0.023666  0.122587 -0.163289  0.120429 -0.281858  0.307345 -0.148681
                                 0.061814 -0.092239  0.265840 -0.559610  1.315785 -0.000000 -0.000002 -0.000014 -0.000058 -0.000172
                                -0.000399 -0.000560 -0.000636  0.001888 -0.003132  0.003759 -0.001708  0.005430 -0.002142  0.002878
                                 0.000671  0.008067 -0.054568 -0.000088 -0.000012 -0.000846 -0.000177  0.000728  0.000136 -0.001844
                                 0.000010  0.001791  0.000456  0.000047  0.000002 -0.000231  0.000009  0.000387 -0.000004 -0.000449
                                -0.003163 -0.013346 -0.018590 -0.025164  0.014810 -0.000770 -0.000113  0.000006 -0.001272  0.003538
                                -0.000020  0.000227  0.000002  0.000172 -0.000008

   8.3   0     0.0882   -6.8075  0.000000  0.000000  0.000001  0.000004  0.000017  0.000052  0.000188  0.000457  0.001346  0.001822
                                 0.004716 -0.024673  0.036676 -0.035917  0.108388 -0.173188  0.118075 -0.268490  0.324307 -0.109092
                                 0.091537 -0.122246  0.233082 -0.640105  0.486772  0.000002  0.000032  0.000138  0.000786  0.001711
                                 0.005819  0.003292  0.021858 -0.252419  0.457104 -0.449631  0.431897 -0.763321  0.620703 -0.253566
                                 0.235386 -0.390808  1.237109  0.000228  0.000021 -0.002250  0.000162  0.002651 -0.000103 -0.001034
                                -0.000060  0.003946 -0.000565  0.000086 -0.000024 -0.000005 -0.000091  0.000020 -0.000020 -0.000461
                                -0.004506 -0.002268 -0.020132  0.034263 -0.230435  0.002045  0.000057  0.000682  0.002707  0.014549
                                 0.000038  0.000668 -0.000002 -0.002369  0.000009

                                   1 3d2-    1 3d2-    1 3d2-    1 3d2-    1 3d2-    1 3d2-    1 3d2-    1 3d2-    1 3d2-    1 3d2- 
                                   1 3d2-    1 3d2-    1 3d2-    1 3d2-    1 3d2-    1 3d2-    1 3d2-    1 3d2-    1 4f2-    1 4f2- 
                                   1 4f2-    1 4f2-    1 4f2-    1 5g2-    1 5g4-    1 5g2-    1 5g4-    1 5g2-    1 5g4-    2 3d2- 
                                   2 3d2-    2 3d2-    2 3d2-    2 4f2-    2 4f2- 

   1.4   2   -12.1718 -113.3573  0.000148  0.001271  0.007702  0.031650  0.095985  0.213573  0.329046  0.338642  0.197439 -0.018494
                                 0.035392  0.018260 -0.006632  0.005726 -0.000372  0.000264 -0.000024  0.000013 -0.000254  0.000710
                                -0.000620  0.000067 -0.000027 -0.000233 -0.000000  0.000196  0.000000 -0.000064 -0.000000  0.000000
                                -0.000001  0.000013  0.000000  0.000003 -0.000013

   2.4   +    -0.3922  -35.1641 -0.000044 -0.000378 -0.002318 -0.009505 -0.029401 -0.065315 -0.099427 -0.084634 -0.048773  0.129522
                                 0.000236  0.327399 -0.087994  0.447337  0.253070  0.171894  0.059245 -0.002964 -0.000754  0.001466
                                -0.002296 -0.001921 -0.002007 -0.000908 -0.000000 -0.001859  0.000000 -0.000266  0.000000  0.000392
                                 0.001871  0.002361  0.000032 -0.000140 -0.001164

   3.4   0     0.0905   -6.5328  0.000002  0.000033  0.000130  0.000812  0.001610  0.006104  0.002321  0.025827 -0.316821  0.574560
                                -0.562745  0.546257 -0.956110  0.783611 -0.309698  0.291816 -0.500006  1.259196 -0.000115  0.001596
                                -0.001765  0.001219 -0.001794  0.000052  0.000000  0.000162 -0.000000 -0.000163  0.000000  0.000549
                                 0.000758  0.007149  0.000015 -0.000046  0.000530

   4.4   0     0.3004  -10.3911 -0.000014 -0.000074 -0.000681 -0.001944 -0.008777 -0.011752 -0.039253  0.040145 -0.999345  1.836353
                                -1.742993  1.860323 -3.054448  2.702006 -0.895186  1.105976 -1.966989  0.907707 -0.000001 -0.001810
                                 0.001931 -0.002277  0.003253 -0.000252 -0.000000 -0.000313  0.000000  0.000084 -0.000000 -0.001418
                                -0.008558 -0.007938 -0.000139 -0.000201  0.003534

 HOMO     14.1    -0.280680 =      -7.6377eV
 LUMO     15.1     0.011656 =       0.3172eV
 LUMO-HOMO         0.292336 =       7.9549eV


 **********************************************************************************************************************************
 DATASETS  * FILE   NREC   LENGTH (MB)   RECORD NAMES
              1      22       22.21       500      610      700      900      950      970     1000      129      960     1700   
                                          VAR    BASINP    GEOM    SYMINP    ZMAT    AOBASIS   BASIS     P2S    ABASIS    OPER   
                                         1101     1401     1411     1412     1650     1100     1400     1410     1200     1210   
                                          SR      EKINR    POTR     PVPR    MOLCAS      S      EKIN      POT      H0       H01  
                                         1080     1600   
                                         AOSYM     SMH  

              2       4        3.76       700     1000      520     2100   
                                         GEOM     BASIS   MCVARS     RHF  

 PROGRAMS   *        TOTAL       RHF       INT
 CPU TIMES  *        57.81     11.08     46.44
 REAL TIME  *        70.26 SEC
 DISK USED  *         3.84 GB      
 SF USED    *         0.14 MB      
 GA USED    *         0.00 MB       (max)       0.00 MB       (current)
 **********************************************************************************************************************************
 SETTING SCF            =     -4856.08279994  AU                              
 SETTING _CC_NORM_MAX   =         2.00000000                                  


 PROGRAM * CCSD (Restricted open-shell coupled cluster)     Authors: C. Hampel, H.-J. Werner, 1991, M. Deegan, P.J. Knowles, 1992


 Convergence thresholds:  THRVAR = 1.00D-08  THRDEN = 1.06D-06

 CCSD(T)     terms to be evaluated (factor= 1.000)


 Number of core orbitals:          15 (   8   3   3   1 )
 Number of closed-shell orbitals:  10 (   6   2   2   0 )
 Number of active  orbitals:        3 (   0   1   1   1 )
 Number of external orbitals:     302 ( 131  69  69  33 )

 Memory could be reduced to 158.45 Mwords without degradation in triples

 Number of N-1 electron functions:              23
 Number of N-2 electron functions:             253
 Number of singly external CSFs:              2306
 Number of doubly external CSFs:           4633214
 Total number of CSFs:                     4635520

 Molecular orbitals read from record     2100.2  Type=RHF/CANONICAL (state 1.1)

 Integral transformation finished. Total CPU:   5.38 sec, npass=  1  Memory used:  17.35 MW

 Starting RMP2 calculation

 Wavefunction is spin-projected

 ITER.      SQ.NORM     CORR.ENERGY   TOTAL ENERGY   ENERGY CHANGE        DEN1      VAR(S)    VAR(P)  DIIS     TIME
   1      1.19568523    -0.88421288 -4856.96701282    -0.88421288    -0.01086674  0.18D-03  0.40D-02  1  1     6.19
   2      1.20882456    -0.89692566 -4856.97972560    -0.01271278    -0.00029332  0.19D-04  0.16D-03  2  2     7.75
   3      1.21188078    -0.89841579 -4856.98121573    -0.00149013    -0.00001005  0.23D-05  0.45D-05  3  3     9.04
   4      1.21221349    -0.89848565 -4856.98128559    -0.00006986    -0.00000052  0.30D-06  0.12D-06  4  4     9.84
   5      1.21223485    -0.89848721 -4856.98128715    -0.00000157    -0.00000004  0.37D-07  0.36D-08  5  5    11.57
   6      1.21223942    -0.89848794 -4856.98128788    -0.00000073    -0.00000000  0.21D-08  0.44D-09  6  6    13.52

 Norm of t1 vector:      0.06771164      S-energy:    -0.00916021      T1 diagnostic:  0.00196741
 Norm of t2 vector:      0.45569130      P-energy:    -0.88932774
                                         Alpha-Beta:  -0.61678377
                                         Alpha-Alpha: -0.15906799
                                         Beta-Beta:   -0.11347598

 Spin contamination <S**2-Sz**2-Sz>     0.00000000
  Reference energy                  -4856.082799940633
  RHF-RMP2 correlation energy          -0.898487944029
 !RHF-RMP2 energy                   -4856.981287884662
 (NB above energy spin projected)

 Starting RCCSD calculation

 ITER.      SQ.NORM     CORR.ENERGY   TOTAL ENERGY   ENERGY CHANGE        DEN1      VAR(S)    VAR(P)  DIIS     TIME
   1      1.17038339    -0.83728019 -4856.92008013    -0.83728019    -0.02099317  0.56D-02  0.32D-02  1  1    18.94
   2      1.19432029    -0.85551980 -4856.93831974    -0.01823961    -0.00450901  0.19D-02  0.10D-02  2  2    23.48
   3      1.22406722    -0.86200657 -4856.94480651    -0.00648677    -0.00281269  0.22D-02  0.28D-03  3  3    28.22
   4      1.26366559    -0.86719987 -4856.94999981    -0.00519330    -0.00205092  0.16D-02  0.23D-03  4  4    33.10
   5      1.42218341    -0.87830023 -4856.96110017    -0.01110036    -0.00101661  0.78D-03  0.11D-03  5  5    38.13
   6      1.60683674    -0.88597754 -4856.96877748    -0.00767731    -0.00035275  0.19D-03  0.88D-04  6  6    42.91
   7      1.71823133    -0.88954200 -4856.97234194    -0.00356446    -0.00007793  0.29D-04  0.24D-04  7  7    47.79
   8      1.76262678    -0.89114163 -4856.97394157    -0.00159963    -0.00002470  0.89D-05  0.77D-05  8  8    52.88
   9      1.76595726    -0.89114641 -4856.97394635    -0.00000478    -0.00000911  0.40D-05  0.25D-05  9  9    57.84
  10      1.78303955    -0.89175283 -4856.97455277    -0.00060642    -0.00000273  0.91D-06  0.96D-06 10 10    62.86
  11      1.78167967    -0.89165469 -4856.97445463     0.00009814    -0.00000068  0.22D-06  0.23D-06 11 11    67.98
  12      1.78456855    -0.89176119 -4856.97456113    -0.00010649    -0.00000019  0.82D-07  0.57D-07 12 12    73.17
  13      1.78432473    -0.89174742 -4856.97454736     0.00001376    -0.00000007  0.45D-07  0.17D-07 13 13    78.33
  14      1.78456287    -0.89175768 -4856.97455762    -0.00001025    -0.00000004  0.29D-07  0.74D-08 14 14    83.57
  15      1.78444934    -0.89175525 -4856.97455519     0.00000243    -0.00000002  0.17D-07  0.26D-08 15 15    89.04
  16      1.78443489    -0.89175671 -4856.97455665    -0.00000146    -0.00000001  0.11D-07  0.15D-08 15  1    94.36
  17      1.78435148    -0.89175381 -4856.97455376     0.00000290    -0.00000001  0.11D-07  0.14D-08 15  2    99.75
  18      1.78437854    -0.89175640 -4856.97455634    -0.00000259    -0.00000001  0.83D-08  0.91D-09 15  3   104.99
  19      1.78425728    -0.89175353 -4856.97455347     0.00000287    -0.00000001  0.59D-08  0.60D-09 15  6   110.29
  20      1.78427945    -0.89175508 -4856.97455502    -0.00000155    -0.00000001  0.48D-08  0.48D-09 15  4   115.57
  21      1.78432019    -0.89175725 -4856.97455719    -0.00000217    -0.00000000  0.42D-08  0.43D-09 15  5   120.93
  22      1.78431046    -0.89175757 -4856.97455751    -0.00000032    -0.00000000  0.35D-08  0.38D-09 15  8   126.25

 Norm of t1 vector:      0.65746079      S-energy:    -0.01293250      T1 diagnostic:  0.09475887
                                                                       D1 diagnostic:  0.29549507
 Norm of t2 vector:      0.59334288      P-energy:    -0.87882507
                                         Alpha-Beta:  -0.63684437
                                         Alpha-Alpha: -0.13491813
                                         Beta-Beta:   -0.10706257

 Singles amplitudes (print threshold =  0.500E-01):

         I         SYM. A    A   T(IA) [Alpha-Alpha]

         4         1         1     -0.05251809
         4         1         3     -0.06635748
         4         1         7     -0.05194699
 
         I         SYM. A    A   T(IA) [Beta-Beta]

         4         1         1     -0.06157605
         4         1         3     -0.07778760
         4         1         7     -0.06932831
         6         1         1      0.06114211
         6         1         3      0.07374717
         8         2         1      0.41788499
        11         3         1      0.41788499

 Doubles amplitudes (print threshold =  0.500E-01):

         I         J         SYM. A    SYM. B    A         B      T(IJ, AB) [Beta-Beta]

         8         4         1         2         3         1      0.05690481
         8         4         1         2         7         1      0.05098956
         8         4         2         1         1         3     -0.05690481
         8         4         2         1         1         7     -0.05098956
        11         4         1         3         3         1      0.05690481
        11         4         1         3         7         1      0.05098956
        11         4         3         1         1         3     -0.05690481
        11         4         3         1         1         7     -0.05098956
        11         8         2         3         1         1      0.14185298
        11         8         3         2         1         1     -0.14185298
 
         I         J         SYM. A    SYM. B    A         B      T(IJ, AB) [Alpha-Beta]

         4         8         1         2         3         1     -0.06113691
         4         8         1         2         7         1     -0.05602320
         4        11         1         3         3         1     -0.06113691
         4        11         1         3         7         1     -0.05602320

 Spin contamination <S**2-Sz**2-Sz>     0.00000000

 Memory could be reduced to 168.48 Mwords without degradation in triples
 

  Correlated core orbitals:             9.1      10.1       4.2       4.3
  Orbital energies:                    -3.6718   -2.2912   -2.3254   -2.3254
 
  RCCSD core-core energy               -0.117695517480
  RCCSD core-valence energy            -0.246922304839
  RCCSD valence correlation energy     -0.527139746394
 

 RESULTS
 =======

  Reference energy                  -4856.082799940633
  RCCSD singles energy                 -0.012932503457
  RCCSD pair energy                    -0.878825065255
  RCCSD correlation energy             -0.891757568712
  Triples (T) contribution             -0.059007109021
  Total correlation energy             -0.950764677733
 
  RHF-RCCSD energy                  -4856.974557509345
  RHF-RCCSD[T] energy               -4857.057153971285
  RHF-RCCSD-T energy                -4857.023116757348
 !RHF-RCCSD(T) energy               -4857.033564618366

 Program statistics:

 Available memory in ccsd:               999998418
 Min. memory needed in ccsd:              13487523
 Max. memory used in ccsd:                19218861
 Max. memory used in cckext:              16629317 (22 integral passes)
 Max. memory used in cckint:              17353452 ( 1 integral passes)



 **********************************************************************************************************************************
 DATASETS  * FILE   NREC   LENGTH (MB)   RECORD NAMES
              1      22       22.21       500      610      700      900      950      970     1000      129      960     1700   
                                          VAR    BASINP    GEOM    SYMINP    ZMAT    AOBASIS   BASIS     P2S    ABASIS    OPER   
                                         1101     1401     1411     1412     1650     1100     1400     1410     1200     1210   
                                          SR      EKINR    POTR     PVPR    MOLCAS      S      EKIN      POT      H0       H01  
                                         1080     1600   
                                         AOSYM     SMH  

              2       4        3.76       700     1000      520     2100   
                                         GEOM     BASIS   MCVARS     RHF  

 PROGRAMS   *        TOTAL  RCCSD(T)       RHF       INT
 CPU TIMES  *       262.12    204.21     11.08     46.44
 REAL TIME  *       331.77 SEC
 DISK USED  *        19.93 GB      
 SF USED    *         2.84 GB      
 GA USED    *         0.00 MB       (max)       0.00 MB       (current)
 **********************************************************************************************************************************
 SETTING CCSD           =     -4857.03356462  AU                              
 SETTING BIND           =        -0.09087652  AU                              
 Output type csv         
                                                                                                                                                                                                                                                                

  2.10,SCF,CCSD,BIND
   2.1,   -4856.082800,   -4857.033565,   -0.09087652
                                                  

 RCCSD(T)/USERDEF energy=  -4857.033564618366

        RCCSD(T)        RHF-SCF 
  -4857.03356462  -4856.08279994
 **********************************************************************************************************************************
 Molpro calculation terminated
 Variable memory released
