<?xml version="1.0"?>
<molpro xmlns="http://www.molpro.net/schema/molpro-output"
  xmlns:xsd="http://www.w3.org/1999/XMLSchema"
  xmlns:cml="http://www.xml-cml.org/schema"
  xmlns:stm="http://www.xml-cml.org/schema"
  xmlns:xhtml="http://www.w3.org/1999/xhtml">
 <!--

 Nodes     nprocs
 nid00908    11
 Number of processes for MPI-2 version of Molpro:   nprocs(total)=   12   nprocs(compute)=   11   nprocs(helper)=    1

 Using customized tuning parameters: mindgm=7; mindgv=16; mindgc=1; mindgr=1; noblas=0; minvec=7
 default implementation of scratch files=sf

 --><job>
  <!--

 Variables initialized (889), CPU time= 0.03 sec
 Commands  initialized (702), CPU time= 0.03 sec, 572 directives.
 Default parameters read. Elapsed time= 1.23 sec

 Checking input...
 Passed
1


                                         ***  PROGRAM SYSTEM MOLPRO  ***
                                       Copyright, TTI GmbH Stuttgart, 2015
                                    Version 2015.1 linked Dec 29 2018 15:55:43


 **********************************************************************************************************************************
 LABEL *   Calculation for Y atom, singlet and triplet
  64 bit mpp version                                                                     DATE: 14-May-23          TIME: 05:35:01
 **********************************************************************************************************************************

 SHA1:             19cd028119e0e09f93f0674bd8af7968d9b3eff6
 **********************************************************************************************************************************
  -->
  <!--

 THRESHOLDS:

 ZERO    =  1.00D-12  ONEINT  =  1.00D-12  TWOINT  =  1.00D-15  PREFAC  =  1.00D-14  LOCALI  =  1.00D-09  EORDER  =  1.00D-04
 ENERGY  =  0.00D+00  ETEST   =  0.00D+00  EDENS   =  0.00D+00  THRDEDEF=  1.00D-06  GRADIENT=  1.00D-02  STEP    =  1.00D-03
 ORBITAL =  1.00D-05  CIVEC   =  1.00D-05  COEFF   =  1.00D-04  PRINTCI =  5.00D-02  PUNCHCI =  9.90D+01  OPTGRAD =  3.00D-04
 OPTENERG=  1.00D-06  OPTSTEP =  3.00D-04  THRGRAD =  1.00D-10  COMPRESS=  1.00D-11  VARMIN  =  1.00D-07  VARMAX  =  1.00D-03
 THRDOUB =  0.00D+00  THRDIV  =  1.00D-05  THRRED  =  1.00D-07  THRPSP  =  1.00D+00  THRDC   =  1.00D-10  THRCS   =  1.00D-10
 THRNRM  =  1.00D-08  THREQ   =  0.00D+00  THRDE   =  1.00D+00  THRREF  =  1.00D-05  SPARFAC =  1.00D+00  THRDLP  =  1.00D-07
 THRDIA  =  1.00D-10  THRDLS  =  1.00D-07  THRGPS  =  0.00D+00  THRKEX  =  0.00D+00  THRDIS  =  2.00D-01  THRVAR  =  1.00D-10
 THRLOC  =  1.00D-06  THRGAP  =  1.00D-06  THRLOCT = -1.00D+00  THRGAPT = -1.00D+00  THRORB  =  1.00D-06  THRMLTP =  0.00D+00
 THRCPQCI=  1.00D-10  KEXTA   =  0.00D+00  THRCOARS=  0.00D+00  SYMTOL  =  1.00D-06  GRADTOL =  1.00D-06  THROVL  =  1.00D-08
 THRORTH =  1.00D-08  GRID    =  1.00D-06  GRIDMAX =  1.00D-03  DTMAX   =  0.00D+00  THROCCDE=  1.00D-01  THROCCDE=  1.00D-01



 THRESHOLDS:

 ZERO    =  1.00D-12  ONEINT  =  1.00D-12  TWOINT  =  1.00D-15  PREFAC  =  1.00D-14  LOCALI  =  1.00D-09  EORDER  =  1.00D-04
 ENERGY  =  0.00D+00  ETEST   =  0.00D+00  EDENS   =  0.00D+00  THRDEDEF=  1.00D-06  GRADIENT=  1.00D-02  STEP    =  1.00D-03
 ORBITAL =  1.00D-05  CIVEC   =  1.00D-05  COEFF   =  1.00D-04  PRINTCI =  5.00D-02  PUNCHCI =  9.90D+01  OPTGRAD =  3.00D-04
 OPTENERG=  1.00D-06  OPTSTEP =  3.00D-04  THRGRAD =  1.00D-10  COMPRESS=  1.00D-11  VARMIN  =  1.00D-07  VARMAX  =  1.00D-03
 THRDOUB =  0.00D+00  THRDIV  =  1.00D-05  THRRED  =  1.00D-07  THRPSP  =  1.00D+00  THRDC   =  1.00D-10  THRCS   =  1.00D-10
 THRNRM  =  1.00D-08  THREQ   =  0.00D+00  THRDE   =  1.00D+00  THRREF  =  1.00D-05  SPARFAC =  1.00D+00  THRDLP  =  1.00D-07
 THRDIA  =  1.00D-10  THRDLS  =  1.00D-07  THRGPS  =  0.00D+00  THRKEX  =  0.00D+00  THRDIS  =  2.00D-01  THRVAR  =  1.00D-10
 THRLOC  =  1.00D-06  THRGAP  =  1.00D-06  THRLOCT = -1.00D+00  THRGAPT = -1.00D+00  THRORB  =  1.00D-06  THRMLTP =  0.00D+00
 THRCPQCI=  1.00D-10  KEXTA   =  0.00D+00  THRCOARS=  0.00D+00  SYMTOL  =  1.00D-06  GRADTOL =  1.00D-06  THROVL  =  1.00D-15
 THRORTH =  1.00D-08  GRID    =  1.00D-06  GRIDMAX =  1.00D-03  DTMAX   =  0.00D+00  THROCCDE=  1.00D-01  THROCCDE=  1.00D-01



 Variable memory set to 1000000000 words,  buffer space   230000 words

 SETTING BASIS          =    USERDEF
 SETTING LU_CCSD        =       -40.04252900
 SETTING O_CCSD         =       -15.86622096
 SETTING NE             =        17.00000000
 SETTING SYMM           =         1.00000000
 SETTING SS             =         1.00000000
 SETTING A1             =         5.00000000
 SETTING B1             =         2.00000000
 SETTING B2             =         2.00000000
 SETTING A2             =     0.00000000D+00

Geometry recognized as XYZ

  --><jobstep command="RHF-SCF" commandset="SCFPRO">
   <!--


 Recomputing integrals since basis changed


 Using spherical harmonics



 PROGRAM * SEWARD (Integral evaluation for generally contracted gaussian basis sets)     Author: Roland Lindh, 1990

 Geometry written to block  1 of record 700


 Point group  C2v


   --><cml:molecule>
    <cml:symmetry pointGroup="C2v"/>
    <cml:atomArray>
     <cml:atom id="a1" elementType="Lu" x3="0.0" y3="0.0" z3="0.0"/>
     <cml:atom id="a2" elementType="O" x3="0.0" y3="0.0" z3="2.3"/>
    </cml:atomArray>
    <cml:bondArray>
     <cml:bond atomRefs2="a1 a2"/>
    </cml:bondArray>
   </cml:molecule><!--

 ATOMIC COORDINATES

 NR  ATOM    CHARGE       X              Y              Z

   1  LU     11.00    0.000000000    0.000000000    0.000000000
   2  O       6.00    0.000000000    0.000000000    4.346370086

 Bond lengths in Bohr (Angstrom)

 1-2  4.346370086
     ( 2.300000000)

 NUCLEAR CHARGE:                   17
 NUMBER OF PRIMITIVE AOS:         584
 NUMBER OF SYMMETRY AOS:          451
 NUMBER OF CONTRACTIONS:          451   ( 180A1  + 108B1  + 108B2  +  55A2  )
 NUMBER OF CORE ORBITALS:           0   (   0A1  +   0B1  +   0B2  +   0A2  )
 NUMBER OF VALENCE ORBITALS:       14   (   7A1  +   3B1  +   3B2  +   1A2  )


 NUCLEAR REPULSION ENERGY   15.18508518

 EXTRA SYMMETRY OF AOS IN SYMMETRY 1:   1 1 1 1 1 1 1 1 1 1   1 1 1 1 1 1 1 1 1 1   1 1 1 1 1 1 1 1 1 1   1 1 1 1 1 1 1 1 1 1
                                        1 1 1 1 1 1 1 1 1 1   1 1 1 1 1 1 1 1 1 2   1 2 1 2 1 2 1 2 1 2   1 2 1 2 1 2 1 2 1 2
                                        1 2 1 2 1 2 1 2 1 2   1 2 1 2 1 2 1 2 1 2   1 2 1 2 1 2 1 2 1 2   1 2 1 2 1 2 1 2 1 2
                                        1 3 2 1 3 2 1 3 2 1   3 2 1 3 2 1 3 2 2 3   1 2 3 1 2 3 1 1 1 1   1 1 1 1 1 1 1 1 1 1
                                        1 1 1 1 1 1 1 1 1 2   1 2 1 2 1 2 1 2 1 2
 EXTRA SYMMETRY OF AOS IN SYMMETRY 2:   1 1 1 1 1 1 1 1 1 1   1 1 1 1 1 1 1 1 1 1   1 1 1 1 1 1 1 1 1 1   1 1 1 1 1 1 1 1 1 1
                                        1 1 1 1 1 1 2 1 2 1   2 1 2 1 2 1 2 1 2 1   2 1 2 1 2 1 2 1 2 1   2 1 2 1 2 1 2 1 2 1
                                        2 1 2 1 2 3 1 2 3 1   2 3 1 1 1 1 1 1 1 1   1 1 1 1 1 2 1 2
 EXTRA SYMMETRY OF AOS IN SYMMETRY 3:   1 1 1 1 1 1 1 1 1 1   1 1 1 1 1 1 1 1 1 1   1 1 1 1 1 1 1 1 1 1   1 1 1 1 1 1 1 1 1 1
                                        1 1 1 1 1 1 2 1 2 1   2 1 2 1 2 1 2 1 2 1   2 1 2 1 2 1 2 1 2 1   2 1 2 1 2 1 2 1 2 1
                                        2 1 2 1 2 3 1 2 3 1   2 3 1 1 1 1 1 1 1 1   1 1 1 1 1 2 1 2
 EXTRA SYMMETRY OF AOS IN SYMMETRY 4:   1 1 1 1 1 1 1 1 1 1   1 1 1 1 1 1 1 1 1 1   1 1 1 1 1 1 1 1 1 1   1 1 2 1 2 1 2 1 2 1
                                        2 1 2 2 1 2 1 2 1 1   1 1 1 1 1

 Eigenvalues of metric

         1 0.863E-05 0.121E-04 0.369E-04 0.478E-04 0.678E-04 0.747E-04 0.105E-03 0.186E-03
         2 0.122E-04 0.175E-04 0.105E-03 0.490E-03 0.644E-03 0.156E-02 0.220E-02 0.335E-02
         3 0.122E-04 0.175E-04 0.105E-03 0.490E-03 0.644E-03 0.156E-02 0.220E-02 0.335E-02
         4 0.701E-03 0.220E-02 0.838E-02 0.144E-01 0.215E-01 0.328E-01 0.344E-01 0.520E-01


 Contracted 2-electron integrals neglected if value below      1.0D-15
 AO integral compression algorithm  1   Integral accuracy      1.0D-15

     3558.605 MB (compressed) written to integral file ( 32.4%)

     Node minimum: 233.046 MB, node maximum: 406.847 MB


 NUMBER OF SORTED TWO-ELECTRON INTEGRALS:  120340567.     BUFFER LENGTH:  32768
 NUMBER OF SEGMENTS:   4  SEGMENT LENGTH:   31988467      RECORD LENGTH: 524288

 Memory used in sort:      32.55 MW

 SORT1 READ  1374547738. AND WROTE    39796227. INTEGRALS IN    116 RECORDS. CPU TIME:    23.09 SEC, REAL TIME:    34.33 SEC
 SORT2 READ   446856431. AND WROTE  1323827515. INTEGRALS IN  11913 RECORDS. CPU TIME:     1.56 SEC, REAL TIME:     2.79 SEC

 Node minimum:   120327112.  Node maximum:   120451591. integrals

 OPERATOR DM      FOR CENTER  0  COORDINATES:    0.000000    0.000000    0.000000


 **********************************************************************************************************************************
 DATASETS  * FILE   NREC   LENGTH (MB)   RECORD NAMES
              1      19       22.40       500      610      700      900      950      970     1000      129      960     1100
                                          VAR    BASINP    GEOM    SYMINP    ZMAT    AOBASIS   BASIS     P2S    ABASIS      S
                                         1400     1410     1420     1200     1210     1080     1600     1650     1700
                                           T        V       ECP      H0       H01     AOSYM     SMH    MOLCAS    OPER

 PROGRAMS   *        TOTAL       INT
 CPU TIMES  *        87.06     85.27
 REAL TIME  *       101.32 SEC
 DISK USED  *         8.89 GB
 GA USED    *         0.00 MB       (max)       0.00 MB       (current)
 **********************************************************************************************************************************


 PROGRAM * RHF-SCF (CLOSED SHELL)       Authors: W. Meyer, H.-J. Werner


 NUMBER OF ELECTRONS:       8+    8-    SPACE SYMMETRY=1    SPIN SYMMETRY: Singlet
 CONVERGENCE THRESHOLDS:    1.00E-05 (Density)    1.00E-07 (Energy)
 MAX. NUMBER OF ITERATIONS:      200
 INTERPOLATION TYPE:            DIIS
 INTERPOLATION STEPS:              2 (START)      1 (STEP)
 LEVEL SHIFTS:                  0.00 (CLOSED)  0.00 (OPEN)

 Number of closed-shell orbitals:    8 (   4   2   2   0 )


 Orbital guess generated from atomic densities. Full valence occupancy:    7   3   3   1

 Molecular orbital dump at record        2202.2

 ITERATION    DDIFF          GRAD             ENERGY        2-EL.EN.            DIPOLE MOMENTS         DIIS   ORB.
    1      0.000D+00      0.000D+00       -54.78887983    101.206378    0.00000    0.00000   -7.83037    0    start
    2      0.000D+00      0.155D-01       -48.67599316     92.658850    0.00000    0.00000   23.40072    1    diag
    3      0.177D-01      0.493D-01       -55.09419145     98.736649    0.00000    0.00000   -6.03995    2    diag
    4      0.160D-01      0.540D-02       -55.14304521     98.005984    0.00000    0.00000   -4.74665    3    diag
    5      0.278D-02      0.206D-02       -55.15017644     97.584742    0.00000    0.00000   -4.16424    4    diag
    6      0.105D-02      0.405D-03       -55.15133498     97.466591    0.00000    0.00000   -3.99375    5    diag
    7      0.580D-03      0.432D-03       -55.15223936     97.415961    0.00000    0.00000   -3.90644    6    diag
    8      0.447D-03      0.425D-03       -55.15522350     97.176724    0.00000    0.00000   -3.49233    7    diag
    9      0.177D-02      0.344D-03       -55.15641225     96.986893    0.00000    0.00000   -3.14497    8    diag
   10      0.125D-02      0.201D-03       -55.15646822     97.039477    0.00000    0.00000   -3.23108    9    orth
   11      0.300D-03      0.116D-03       -55.15658594     96.929139    0.00000    0.00000   -3.05062    9    diag
   12      0.538D-03      0.446D-04       -55.15659192     96.940254    0.00000    0.00000   -3.07361    9    diag
   13      0.466D-04      0.632D-05       -55.15659307     96.931184    0.00000    0.00000   -3.06146    9    diag
   14      0.417D-04      0.288D-05       -55.15659314     96.929855    0.00000    0.00000   -3.05988    9    diag
   15      0.794D-05      0.456D-06       -55.15659314     96.929965    0.00000    0.00000   -3.05991    0    orth

 Final occupancy:   4   2   2   0

 !RHF STATE 1.1 Energy                -55.156593138435
   --><property name="Energy" method="RHF" principal="true" stateSymmetry="1" stateNumber="1"
     value="-55.1565931384345"/><!--
 Nuclear energy                        15.18508518
 One-electron energy                 -118.80666089
 Two-electron energy                   48.46498257
 Virial quotient                       -2.30503339
 !RHF STATE 1.1 Dipole moment           0.00000000     0.00000000    -3.05991090
 Dipole moment /Debye                   0.00000000     0.00000000    -7.77700836
   --><property name="Dipole moment" method="RHF" principal="true" stateSymmetry="1"
     stateNumber="1" value="0.0 0.0 -3.05991090475231"/><!--

 ELECTRON ORBITALS
 =================


   Orb  Occ    Energy  Couls-En    Coefficients

                                   1 1s      1 1s      1 1s      1 1s      1 1s      1 1s      1 1s      1 1s      1 1s      1 1s
                                   1 1s      1 1s      1 1s      1 1s      1 1s      1 1s      1 1s      1 1s      1 1s      1 1s
                                   1 1s      1 1s      1 1s      1 1s      1 1s      1 1s      1 1s      1 1s      1 1s      1 1s
                                   1 1s      1 2pz     1 2pz     1 2pz     1 2pz     1 2pz     1 2pz     1 2pz     1 2pz     1 2pz
                                   1 2pz     1 2pz     1 2pz     1 2pz     1 2pz     1 2pz     1 2pz     1 2pz     1 2pz     1 2pz
                                   1 2pz     1 2pz     1 2pz     1 2pz     1 2pz     1 2pz     1 2pz     1 2pz     1 3d0     1 3d2+
                                   1 3d0     1 3d2+    1 3d0     1 3d2+    1 3d0     1 3d2+    1 3d0     1 3d2+    1 3d0     1 3d2+
                                   1 3d0     1 3d2+    1 3d0     1 3d2+    1 3d0     1 3d2+    1 3d0     1 3d2+    1 3d0     1 3d2+
                                   1 3d0     1 3d2+    1 3d0     1 3d2+    1 3d0     1 3d2+    1 3d0     1 3d2+    1 3d0     1 3d2+
                                   1 3d0     1 3d2+    1 3d0     1 3d2+    1 4f0     1 4f2+    1 4f0     1 4f2+    1 4f0     1 4f2+
                                   1 4f0     1 4f2+    1 4f0     1 4f2+    1 4f0     1 4f2+    1 4f0     1 4f2+    1 4f0     1 4f2+
                                   1 4f0     1 4f2+    1 4f0     1 4f2+    1 4f0     1 4f2+    1 4f0     1 4f2+    1 4f0     1 4f2+
                                   1 5g0     1 5g4+    1 5g2+    1 5g0     1 5g4+    1 5g2+    1 5g0     1 5g4+    1 5g2+    1 5g0
                                   1 5g4+    1 5g2+    1 5g0     1 5g4+    1 5g2+    1 5g0     1 5g4+    1 5g2+    1 6h2+    1 6h4+
                                   1 6h0     1 6h2+    1 6h4+    1 6h0     1 6h2+    1 6h4+    1 6h0     2 1s      2 1s      2 1s
                                   2 1s      2 1s      2 1s      2 1s      2 1s      2 1s      2 1s      2 1s      2 1s      2 1s
                                   2 2pz     2 2pz     2 2pz     2 2pz     2 2pz     2 2pz     2 2pz     2 2pz     2 3d0     2 3d2+
                                   2 3d0     2 3d2+    2 3d0     2 3d2+    2 3d0     2 3d2+    2 4f0     2 4f2+    2 4f0     2 4f2+


   1.1   2    -2.9069  -12.2616  0.000000 -0.000000  0.000000 -0.000000  0.000000 -0.000000  0.000001 -0.000002  0.000005 -0.000014
                                 0.000034 -0.000082  0.000192 -0.000433  0.000935 -0.001946  0.003729 -0.006076  0.007077 -0.038509
                                 0.215768 -0.252979 -0.454868  0.264173  0.708642  0.390697 -0.030810  0.039873 -0.032539  0.022896
                                -0.006883 -0.000000  0.000000 -0.000000  0.000000 -0.000000  0.000000 -0.000000  0.000000 -0.000000
                                 0.000001 -0.000002  0.000005 -0.000013  0.000036 -0.000120  0.000872 -0.001863  0.001484  0.001227
                                -0.000311 -0.006330 -0.000647 -0.011294 -0.015557 -0.003055 -0.000971  0.015284 -0.000000 -0.000000
                                 0.000000  0.000000 -0.000000 -0.000000  0.000000  0.000000 -0.000002 -0.000000  0.000005  0.000000
                                -0.000013 -0.000000  0.000029  0.000000 -0.000054 -0.000000  0.000039  0.000000  0.000062 -0.000000
                                 0.000442  0.000000 -0.005417 -0.000000 -0.004521 -0.000000  0.000445  0.000000 -0.001400 -0.000000
                                 0.000524  0.000000  0.000264 -0.000000  0.000000 -0.000000 -0.000000  0.000000  0.000001 -0.000000
                                -0.000003  0.000000  0.000009 -0.000000 -0.000023  0.000000  0.000060 -0.000000 -0.000139 -0.000000
                                -0.000203 -0.000000 -0.000518  0.000000 -0.000023 -0.000000 -0.000107  0.000000  0.000170 -0.000000
                                 0.000002  0.000000  0.000000 -0.000007 -0.000000 -0.000000  0.000033  0.000000  0.000000  0.000050
                                 0.000000  0.000000  0.000008 -0.000000 -0.000000  0.000089  0.000000  0.000000  0.000000  0.000000
                                -0.000001  0.000000  0.000000  0.000004  0.000000 -0.000000  0.000036 -0.000000  0.000000 -0.000000
                                 0.000001 -0.000007  0.000220 -0.000282  0.000759  0.001128  0.002073  0.003384 -0.000297 -0.000362
                                -0.000030 -0.000260 -0.000616 -0.001155 -0.002264 -0.001550  0.000022  0.000008  0.000035  0.000000
                                 0.000578  0.000000  0.001005 -0.000000  0.000010 -0.000000 -0.000029 -0.000000 -0.000403  0.000000

   2.1   2    -1.6726   -9.7158  0.000000 -0.000000  0.000000 -0.000000  0.000000 -0.000000  0.000000 -0.000000  0.000000 -0.000000
                                 0.000001 -0.000002  0.000004 -0.000009  0.000019 -0.000039  0.000076 -0.000125  0.000149 -0.000915
                                 0.005511 -0.006704 -0.013120  0.009310  0.030954  0.000134 -0.020107  0.004065 -0.021133 -0.005004
                                 0.004155  0.000000 -0.000000  0.000000 -0.000000  0.000000 -0.000000  0.000000 -0.000000  0.000001
                                -0.000004  0.000013 -0.000036  0.000106 -0.000358  0.001727 -0.024355  0.069119 -0.061663 -0.140489
                                 0.177240  0.524450 -0.013703  0.401587 -0.010745  0.070447 -0.018675  0.011578 -0.000000  0.000000
                                 0.000000 -0.000000 -0.000000  0.000000  0.000000 -0.000000 -0.000002  0.000000  0.000005 -0.000000
                                -0.000013  0.000000  0.000027 -0.000000 -0.000046  0.000000 -0.000038 -0.000000  0.000371  0.000000
                                 0.000109 -0.000000 -0.007700 -0.000000 -0.014322 -0.000000 -0.005407 -0.000000 -0.003397  0.000000
                                -0.005480 -0.000000  0.003578 -0.000000 -0.000000  0.000000  0.000000 -0.000000 -0.000000  0.000000
                                 0.000001 -0.000000 -0.000004  0.000000  0.000003 -0.000000  0.000039 -0.000000  0.000092  0.000000
                                -0.003114  0.000000 -0.001892  0.000000 -0.000780  0.000000 -0.002426 -0.000000  0.000847  0.000000
                                -0.000001 -0.000000  0.000000  0.000007  0.000000 -0.000000 -0.000033 -0.000000  0.000000  0.000263
                                -0.000000  0.000000 -0.001071 -0.000000 -0.000000  0.000388  0.000000  0.000000 -0.000000 -0.000000
                                 0.000008 -0.000000  0.000000 -0.000138  0.000000 -0.000000  0.000415 -0.000000  0.000000 -0.000002
                                 0.000014 -0.000127  0.004958 -0.009971  0.016772  0.048982  0.036309  0.024807 -0.004355 -0.007956
                                -0.000327 -0.002772 -0.008401 -0.014645 -0.015069 -0.007739 -0.000094  0.000088  0.000478  0.000000
                                 0.003165 -0.000000  0.003180  0.000000  0.000029 -0.000000 -0.000336  0.000000 -0.001258 -0.000000

   3.1   2    -1.3128   -8.6510 -0.000000  0.000000 -0.000000  0.000000 -0.000000  0.000000 -0.000000  0.000000 -0.000000  0.000001
                                -0.000002  0.000004 -0.000009  0.000021 -0.000046  0.000096 -0.000183  0.000297 -0.000344  0.001842
                                -0.010557  0.013642  0.020034 -0.011395 -0.048333 -0.033178  0.050177 -0.007570 -0.021736 -0.001332
                                 0.005952 -0.000000  0.000000 -0.000000  0.000000 -0.000000  0.000000 -0.000000  0.000000 -0.000000
                                 0.000000 -0.000000  0.000001 -0.000005  0.000024 -0.000169  0.003192 -0.009689  0.008886  0.022147
                                -0.029808 -0.072163 -0.025827 -0.037518  0.056010 -0.011986 -0.024636 -0.049322 -0.000000  0.000000
                                 0.000000 -0.000000 -0.000000  0.000000  0.000001 -0.000000 -0.000005  0.000000  0.000015 -0.000000
                                -0.000041  0.000000  0.000098 -0.000000 -0.000213  0.000000  0.000627 -0.000000 -0.001670  0.000000
                                 0.001510 -0.000000  0.010229 -0.000000  0.023462 -0.000000 -0.000603 -0.000000 -0.022925  0.000000
                                 0.018698 -0.000000 -0.001035  0.000000  0.000000  0.000000 -0.000001 -0.000000  0.000004  0.000000
                                -0.000013 -0.000000  0.000035  0.000000 -0.000073 -0.000000  0.000057  0.000000  0.000016 -0.000000
                                 0.002675  0.000000  0.004286 -0.000000 -0.008379  0.000000  0.001864 -0.000000  0.001971  0.000000
                                 0.000011 -0.000000 -0.000000 -0.000057  0.000000  0.000000  0.000306 -0.000000 -0.000000  0.001056
                                 0.000000  0.000000 -0.004153 -0.000000 -0.000000  0.003081  0.000000  0.000000 -0.000000  0.000000
                                 0.000014  0.000000 -0.000000 -0.000126 -0.000000  0.000000  0.000769 -0.000000  0.000004 -0.000026
                                 0.000165 -0.001426  0.054197 -0.100893  0.188797  0.545700  0.407588  0.044657 -0.053115 -0.088035
                                -0.000166 -0.001134 -0.005101 -0.008059 -0.042024 -0.016097 -0.000329  0.000042 -0.000499  0.000000
                                 0.002551 -0.000000  0.009892  0.000000 -0.000264 -0.000000  0.000059  0.000000 -0.002523 -0.000000

   4.1   2    -0.5059   -6.3571  0.000000 -0.000000  0.000000 -0.000000  0.000000 -0.000000  0.000000 -0.000001  0.000001 -0.000004
                                 0.000009 -0.000022  0.000052 -0.000117  0.000253 -0.000527  0.001010 -0.001646  0.001921 -0.010725
                                 0.063128 -0.082487 -0.126330  0.079456  0.302926  0.295843 -0.103917 -0.449780 -0.299781  0.131486
                                -0.069042  0.000000 -0.000000  0.000000 -0.000000  0.000000 -0.000000  0.000000 -0.000000  0.000000
                                -0.000001  0.000002 -0.000005  0.000014 -0.000043  0.000170 -0.001870  0.005017 -0.004639 -0.008297
                                 0.012699  0.029711  0.026691  0.000063  0.417472 -0.020920  0.077663 -0.407555  0.000000  0.000000
                                -0.000000 -0.000000  0.000002  0.000000 -0.000007 -0.000000  0.000023  0.000000 -0.000071 -0.000000
                                 0.000188  0.000000 -0.000456 -0.000000  0.001010  0.000000 -0.003216 -0.000000  0.009046  0.000000
                                -0.008315 -0.000000 -0.064897 -0.000000 -0.130375 -0.000000 -0.089338 -0.000000  0.070572 -0.000000
                                -0.041560  0.000000  0.001677 -0.000000 -0.000000 -0.000000  0.000001  0.000000 -0.000004 -0.000000
                                 0.000015  0.000000 -0.000041 -0.000000  0.000080  0.000000 -0.000016 -0.000000 -0.000276  0.000000
                                -0.003070 -0.000000 -0.011558  0.000000  0.003500 -0.000000  0.012387  0.000000 -0.005100 -0.000000
                                -0.000010  0.000000  0.000000  0.000053 -0.000000 -0.000000 -0.000316  0.000000  0.000000 -0.004364
                                -0.000000  0.000000  0.005938  0.000000  0.000000 -0.002300 -0.000000 -0.000000  0.000000  0.000000
                                -0.000027 -0.000000 -0.000000  0.000299  0.000000  0.000000 -0.001794 -0.000000  0.000001 -0.000004
                                 0.000027 -0.000230  0.008894 -0.016069  0.033402  0.104004  0.103395 -0.042526 -0.009358 -0.014666
                                 0.006358  0.054369  0.177285  0.287193  0.243696  0.064749  0.003465 -0.001677 -0.003000 -0.000000
                                -0.012051  0.000000 -0.016950 -0.000000 -0.000309  0.000000  0.002344 -0.000000  0.004537  0.000000

   5.1   0    -0.2518   -4.9838 -0.000000  0.000000 -0.000000  0.000000 -0.000000  0.000000 -0.000000  0.000000 -0.000001  0.000002
                                -0.000006  0.000014 -0.000032  0.000073 -0.000157  0.000327 -0.000628  0.001029 -0.001213  0.007043
                                -0.042052  0.053838  0.090510 -0.061589 -0.193103 -0.194159 -0.044825  0.285075  0.459695  0.047618
                                 0.128455  0.000000 -0.000000  0.000000 -0.000000  0.000000 -0.000000  0.000000 -0.000000  0.000001
                                -0.000004  0.000012 -0.000032  0.000087 -0.000255  0.000906 -0.008015  0.019601 -0.017596 -0.023419
                                 0.032819  0.131772 -0.026852  0.134553 -0.103015 -0.102501 -0.280980  0.040330  0.000000  0.000000
                                -0.000000 -0.000000  0.000002  0.000000 -0.000008 -0.000000  0.000026  0.000000 -0.000080 -0.000000
                                 0.000212  0.000000 -0.000510  0.000000  0.001125 -0.000000 -0.003478  0.000000  0.009641 -0.000000
                                -0.009162  0.000000 -0.064804  0.000000 -0.133361  0.000000 -0.139394 -0.000000  0.018902 -0.000000
                                -0.069440  0.000000  0.020002 -0.000000 -0.000000 -0.000000  0.000001  0.000000 -0.000006 -0.000000
                                 0.000021  0.000000 -0.000058 -0.000000  0.000124  0.000000 -0.000137  0.000000  0.000066 -0.000000
                                -0.003772 -0.000000 -0.007130 -0.000000  0.010479 -0.000000  0.000177  0.000000  0.001149 -0.000000
                                -0.000007  0.000000 -0.000000  0.000034 -0.000000  0.000000 -0.000195  0.000000 -0.000000 -0.001091
                                 0.000000  0.000000  0.003356  0.000000  0.000000 -0.002510  0.000000 -0.000000  0.000000  0.000000
                                -0.000016 -0.000000 -0.000000  0.000166  0.000000  0.000000 -0.001239 -0.000000  0.000000 -0.000000
                                 0.000001 -0.000015  0.000836 -0.002380  0.003583  0.016288  0.018054  0.046585 -0.000418 -0.001335
                                 0.004803  0.041063  0.134820  0.217462  0.197854  0.056440  0.002718 -0.001265 -0.001544 -0.000000
                                -0.006386 -0.000000 -0.010798 -0.000000 -0.000152 -0.000000  0.001652 -0.000000  0.003800 -0.000000

   6.1   0    -0.1606   -5.0580 -0.000000  0.000000 -0.000000  0.000000 -0.000000  0.000000 -0.000000  0.000000 -0.000000  0.000000
                                -0.000000  0.000000 -0.000000  0.000000 -0.000000  0.000000 -0.000000  0.000000 -0.000000  0.000000
                                -0.000000  0.000000  0.000000 -0.000000 -0.000000 -0.000000  0.000000  0.000000 -0.000000  0.000000
                                -0.000000  0.000000  0.000000 -0.000000  0.000000 -0.000000  0.000000 -0.000000  0.000000 -0.000000
                                 0.000000 -0.000000  0.000000 -0.000000  0.000000 -0.000000  0.000000 -0.000000  0.000000  0.000000
                                -0.000000 -0.000000  0.000000 -0.000000 -0.000001  0.000000  0.000000  0.000001  0.000000  0.000000
                                -0.000000 -0.000001  0.000000  0.000004 -0.000000 -0.000017  0.000000  0.000061 -0.000000 -0.000184
                                 0.000000  0.000491 -0.000000 -0.001196  0.000000  0.002679 -0.000000 -0.008907  0.000000  0.025634
                                -0.000000 -0.022936 -0.000000 -0.194327 -0.000000 -0.367847 -0.000000 -0.421488 -0.000000 -0.137700
                                 0.000000 -0.050454 -0.000000 -0.115086 -0.000000 -0.000000  0.000000  0.000001 -0.000000 -0.000003
                                 0.000000  0.000010 -0.000000 -0.000026  0.000000  0.000079 -0.000000 -0.000338  0.000000  0.001049
                                 0.000000  0.002128  0.000000  0.017368  0.000000  0.041102  0.000000  0.017961  0.000000  0.019181
                                 0.000000 -0.000000  0.000020 -0.000000  0.000000 -0.000101  0.000000 -0.000000  0.000511  0.000000
                                 0.000000  0.009125  0.000000 -0.000000  0.007658  0.000000  0.000000  0.000384 -0.000004 -0.000000
                                 0.000000  0.000033  0.000000 -0.000000  0.000031 -0.000000  0.000000  0.000000 -0.000000  0.000000
                                -0.000000  0.000000 -0.000000  0.000000 -0.000000 -0.000000 -0.000000  0.000000 -0.000000  0.000000
                                -0.000000 -0.000000 -0.000000 -0.000000 -0.000000 -0.000000 -0.000000  0.000000 -0.000000 -0.000534
                                -0.000000 -0.002415 -0.000000 -0.003057 -0.000000 -0.000046  0.000000  0.000195  0.000000  0.001065

                                   1 2px     1 2px     1 2px     1 2px     1 2px     1 2px     1 2px     1 2px     1 2px     1 2px
                                   1 2px     1 2px     1 2px     1 2px     1 2px     1 2px     1 2px     1 2px     1 2px     1 2px
                                   1 2px     1 2px     1 2px     1 2px     1 2px     1 2px     1 2px     1 3d1+    1 3d1+    1 3d1+
                                   1 3d1+    1 3d1+    1 3d1+    1 3d1+    1 3d1+    1 3d1+    1 3d1+    1 3d1+    1 3d1+    1 3d1+
                                   1 3d1+    1 3d1+    1 3d1+    1 3d1+    1 3d1+    1 4f1+    1 4f3+    1 4f1+    1 4f3+    1 4f1+
                                   1 4f3+    1 4f1+    1 4f3+    1 4f1+    1 4f3+    1 4f1+    1 4f3+    1 4f1+    1 4f3+    1 4f1+
                                   1 4f3+    1 4f1+    1 4f3+    1 4f1+    1 4f3+    1 4f1+    1 4f3+    1 4f1+    1 4f3+    1 4f1+
                                   1 4f3+    1 5g1+    1 5g3+    1 5g1+    1 5g3+    1 5g1+    1 5g3+    1 5g1+    1 5g3+    1 5g1+
                                   1 5g3+    1 5g1+    1 5g3+    1 6h1+    1 6h3+    1 6h5+    1 6h1+    1 6h3+    1 6h5+    1 6h1+
                                   1 6h3+    1 6h5+    2 2px     2 2px     2 2px     2 2px     2 2px     2 2px     2 2px     2 2px
                                   2 3d1+    2 3d1+    2 3d1+    2 3d1+    2 4f1+    2 4f3+    2 4f1+    2 4f3+

   1.2   2    -1.6855   -9.6472  0.000000 -0.000000  0.000000 -0.000000  0.000000 -0.000000  0.000000 -0.000000  0.000002 -0.000005
                                 0.000015 -0.000042  0.000120 -0.000399  0.001862 -0.025336  0.071250 -0.063460 -0.141774  0.178497
                                 0.530529 -0.006719  0.406728  0.059662  0.063913 -0.006906 -0.057231 -0.000000  0.000000 -0.000000
                                 0.000000 -0.000000  0.000001 -0.000003  0.000004 -0.000002 -0.000097  0.000417 -0.000093 -0.005580
                                -0.012893 -0.002663  0.001174 -0.001435  0.000225 -0.000000 -0.000000  0.000001  0.000000 -0.000002
                                -0.000000  0.000007  0.000000 -0.000020 -0.000000  0.000039  0.000000 -0.000019 -0.000000  0.000074
                                 0.000000 -0.003444 -0.000000 -0.002693 -0.000000  0.000359  0.000000 -0.000560 -0.000000  0.000020
                                 0.000000 -0.000004 -0.000000  0.000018 -0.000000 -0.000089  0.000000 -0.000139  0.000000 -0.000091
                                -0.000000 -0.000108  0.000000  0.000003 -0.000000  0.000000 -0.000073 -0.000000 -0.000000  0.000139
                                 0.000000  0.000000  0.000086  0.000745  0.002221  0.003702  0.002715  0.000753  0.000009 -0.000023
                                -0.000151 -0.000958 -0.000842 -0.000018  0.000096  0.000000  0.000535 -0.000000

   2.2   2    -0.5846   -7.0309 -0.000000  0.000000 -0.000000  0.000000 -0.000000  0.000000 -0.000000  0.000000 -0.000000  0.000000
                                -0.000001  0.000004 -0.000011  0.000033 -0.000136  0.001602 -0.004387  0.004054  0.007636 -0.010951
                                -0.032458 -0.000356 -0.033502 -0.057508  0.033522  0.039451  0.051455 -0.000000  0.000000 -0.000001
                                 0.000004 -0.000015  0.000045 -0.000118  0.000284 -0.000621  0.001853 -0.005018  0.004753  0.032451
                                 0.066725  0.076507 -0.039475  0.072554 -0.031414 -0.000000  0.000000  0.000001 -0.000000 -0.000005
                                 0.000000  0.000018 -0.000000 -0.000048  0.000000  0.000134 -0.000000 -0.000479 -0.000000  0.001378
                                -0.000000  0.001416  0.000000  0.016627  0.000000  0.007074 -0.000000  0.004552  0.000000 -0.001893
                                 0.000000  0.000012  0.000000 -0.000066 -0.000000  0.000394  0.000000  0.006437 -0.000000 -0.005134
                                 0.000000  0.003420 -0.000000  0.000064 -0.000000 -0.000000 -0.000618  0.000000  0.000000  0.002317
                                -0.000000 -0.000000  0.009779  0.084186  0.276127  0.431951  0.357873  0.047765  0.005262 -0.002576
                                -0.002711 -0.011674 -0.025112 -0.000280  0.002410  0.000000  0.007317 -0.000000

   3.2   0    -0.1686   -3.9374  0.000000 -0.000000  0.000000 -0.000000  0.000000 -0.000000  0.000000 -0.000000  0.000001 -0.000003
                                 0.000008 -0.000023  0.000062 -0.000186  0.000709 -0.007253  0.018903 -0.017364 -0.027964  0.039773
                                 0.143404 -0.030068  0.158621  0.029928 -0.100437 -0.467478 -0.334836 -0.000000  0.000000 -0.000002
                                 0.000010 -0.000034  0.000104 -0.000278  0.000677 -0.001518  0.005065 -0.014597  0.013000  0.111484
                                 0.204286  0.247520  0.181503 -0.049308  0.149273  0.000000 -0.000000 -0.000000  0.000000  0.000000
                                -0.000000 -0.000001  0.000000  0.000002 -0.000000 -0.000020  0.000000  0.000197 -0.000000 -0.000680
                                 0.000000 -0.003408 -0.000000 -0.013662 -0.000000 -0.017306  0.000000 -0.003894  0.000000 -0.007122
                                 0.000000 -0.000017  0.000000  0.000088 -0.000000 -0.000444  0.000000 -0.007783 -0.000000 -0.005715
                                -0.000000 -0.000362 -0.000000 -0.000001  0.000000 -0.000000  0.000002 -0.000000  0.000000 -0.000121
                                 0.000000 -0.000000 -0.000526 -0.004517 -0.015294 -0.023438 -0.023521 -0.018991 -0.000357  0.000138
                                -0.000255 -0.002171  0.001193 -0.000035  0.000096 -0.000000  0.000876  0.000000

   4.2   0    -0.1046   -4.5054  0.000000 -0.000000  0.000000 -0.000000  0.000000 -0.000000  0.000000 -0.000000  0.000001 -0.000003
                                 0.000009 -0.000023  0.000061 -0.000164  0.000450 -0.001228 -0.000250  0.001202  0.016086 -0.025053
                                -0.021642 -0.057889 -0.010904 -5.526985 -0.024088  0.305809  5.966104 -0.000000  0.000001 -0.000003
                                 0.000014 -0.000050  0.000150 -0.000401  0.000977 -0.002195  0.007392 -0.021431  0.019201  0.165378
                                 0.311754  0.342521 -0.041102  0.227064 -0.070629  0.000000 -0.000000 -0.000002  0.000000  0.000006
                                -0.000000 -0.000021  0.000000  0.000056  0.000000 -0.000162 -0.000000  0.000641  0.000000 -0.001943
                                -0.000000 -0.002959  0.000000 -0.027985  0.000000 -0.079436 -0.000000 -0.050408 -0.000000 -0.074330
                                -0.000000 -0.000026  0.000000  0.000136 -0.000000 -0.000699  0.000000 -0.012828 -0.000000 -0.011831
                                -0.000000 -0.002548  0.000000 -0.000003  0.000000 -0.000000  0.000039 -0.000000  0.000000 -0.000337
                                 0.000000 -0.000000 -0.002805 -0.024136 -0.081188 -0.125082 -0.121167 -0.056350 -0.001786  0.000734
                                -0.001145 -0.006466 -0.002937 -0.000100 -0.000181 -0.000000  0.000852  0.000000

                                   1 2py     1 2py     1 2py     1 2py     1 2py     1 2py     1 2py     1 2py     1 2py     1 2py
                                   1 2py     1 2py     1 2py     1 2py     1 2py     1 2py     1 2py     1 2py     1 2py     1 2py
                                   1 2py     1 2py     1 2py     1 2py     1 2py     1 2py     1 2py     1 3d1-    1 3d1-    1 3d1-
                                   1 3d1-    1 3d1-    1 3d1-    1 3d1-    1 3d1-    1 3d1-    1 3d1-    1 3d1-    1 3d1-    1 3d1-
                                   1 3d1-    1 3d1-    1 3d1-    1 3d1-    1 3d1-    1 4f1-    1 4f3-    1 4f1-    1 4f3-    1 4f1-
                                   1 4f3-    1 4f1-    1 4f3-    1 4f1-    1 4f3-    1 4f1-    1 4f3-    1 4f1-    1 4f3-    1 4f1-
                                   1 4f3-    1 4f1-    1 4f3-    1 4f1-    1 4f3-    1 4f1-    1 4f3-    1 4f1-    1 4f3-    1 4f1-
                                   1 4f3-    1 5g1-    1 5g3-    1 5g1-    1 5g3-    1 5g1-    1 5g3-    1 5g1-    1 5g3-    1 5g1-
                                   1 5g3-    1 5g1-    1 5g3-    1 6h1-    1 6h3-    1 6h5-    1 6h1-    1 6h3-    1 6h5-    1 6h1-
                                   1 6h3-    1 6h5-    2 2py     2 2py     2 2py     2 2py     2 2py     2 2py     2 2py     2 2py
                                   2 3d1-    2 3d1-    2 3d1-    2 3d1-    2 4f1-    2 4f3-    2 4f1-    2 4f3-

   1.3   2    -1.6855   -9.6472  0.000000 -0.000000  0.000000 -0.000000  0.000000 -0.000000  0.000000 -0.000000  0.000002 -0.000005
                                 0.000015 -0.000042  0.000120 -0.000399  0.001862 -0.025336  0.071250 -0.063460 -0.141774  0.178497
                                 0.530529 -0.006719  0.406728  0.059662  0.063913 -0.006906 -0.057231 -0.000000  0.000000 -0.000000
                                 0.000000 -0.000000  0.000001 -0.000003  0.000004 -0.000002 -0.000097  0.000417 -0.000093 -0.005580
                                -0.012893 -0.002663  0.001174 -0.001435  0.000225 -0.000000 -0.000000  0.000001  0.000000 -0.000002
                                -0.000000  0.000007  0.000000 -0.000020 -0.000000  0.000039  0.000000 -0.000019 -0.000000  0.000074
                                 0.000000 -0.003444 -0.000000 -0.002693 -0.000000  0.000359  0.000000 -0.000560 -0.000000  0.000020
                                 0.000000 -0.000004 -0.000000  0.000018 -0.000000 -0.000089  0.000000 -0.000139  0.000000 -0.000091
                                -0.000000 -0.000108  0.000000  0.000003 -0.000000  0.000000 -0.000073 -0.000000 -0.000000  0.000139
                                 0.000000  0.000000  0.000086  0.000745  0.002221  0.003702  0.002715  0.000753  0.000009 -0.000023
                                -0.000151 -0.000958 -0.000842 -0.000018  0.000096  0.000000  0.000535 -0.000000

   2.3   2    -0.5846   -7.0309 -0.000000  0.000000 -0.000000  0.000000 -0.000000  0.000000 -0.000000  0.000000 -0.000000  0.000000
                                -0.000001  0.000004 -0.000011  0.000033 -0.000136  0.001602 -0.004387  0.004054  0.007636 -0.010951
                                -0.032458 -0.000356 -0.033502 -0.057508  0.033522  0.039451  0.051455 -0.000000  0.000000 -0.000001
                                 0.000004 -0.000015  0.000045 -0.000118  0.000284 -0.000621  0.001853 -0.005018  0.004753  0.032451
                                 0.066725  0.076507 -0.039475  0.072554 -0.031414 -0.000000  0.000000  0.000001 -0.000000 -0.000005
                                 0.000000  0.000018 -0.000000 -0.000048  0.000000  0.000134 -0.000000 -0.000479  0.000000  0.001378
                                -0.000000  0.001416  0.000000  0.016627  0.000000  0.007074  0.000000  0.004552 -0.000000 -0.001893
                                 0.000000  0.000012  0.000000 -0.000066 -0.000000  0.000394  0.000000  0.006437 -0.000000 -0.005134
                                -0.000000  0.003420  0.000000  0.000064 -0.000000 -0.000000 -0.000618  0.000000  0.000000  0.002317
                                -0.000000 -0.000000  0.009779  0.084186  0.276127  0.431951  0.357873  0.047765  0.005262 -0.002576
                                -0.002711 -0.011674 -0.025112 -0.000280  0.002410  0.000000  0.007317 -0.000000

   3.3   0    -0.1686   -3.9374  0.000000 -0.000000  0.000000 -0.000000  0.000000 -0.000000  0.000000 -0.000000  0.000001 -0.000003
                                 0.000008 -0.000023  0.000062 -0.000186  0.000709 -0.007253  0.018903 -0.017364 -0.027964  0.039773
                                 0.143404 -0.030068  0.158621  0.029928 -0.100437 -0.467478 -0.334836 -0.000000  0.000000 -0.000002
                                 0.000010 -0.000034  0.000104 -0.000278  0.000677 -0.001518  0.005065 -0.014597  0.013000  0.111484
                                 0.204286  0.247520  0.181503 -0.049308  0.149273  0.000000 -0.000000 -0.000000  0.000000  0.000000
                                -0.000000 -0.000001  0.000000  0.000002 -0.000000 -0.000020  0.000000  0.000197 -0.000000 -0.000680
                                 0.000000 -0.003408 -0.000000 -0.013662 -0.000000 -0.017306  0.000000 -0.003894  0.000000 -0.007122
                                 0.000000 -0.000017  0.000000  0.000088 -0.000000 -0.000444  0.000000 -0.007783 -0.000000 -0.005715
                                -0.000000 -0.000362 -0.000000 -0.000001  0.000000 -0.000000  0.000002 -0.000000  0.000000 -0.000121
                                 0.000000 -0.000000 -0.000526 -0.004517 -0.015294 -0.023438 -0.023521 -0.018991 -0.000357  0.000138
                                -0.000255 -0.002171  0.001193 -0.000035  0.000096 -0.000000  0.000876  0.000000

   4.3   0    -0.1046   -4.5054  0.000000 -0.000000  0.000000 -0.000000  0.000000 -0.000000  0.000000 -0.000000  0.000001 -0.000003
                                 0.000009 -0.000023  0.000061 -0.000164  0.000450 -0.001228 -0.000250  0.001202  0.016086 -0.025053
                                -0.021642 -0.057889 -0.010904 -5.526983 -0.024088  0.305809  5.966102 -0.000000  0.000001 -0.000003
                                 0.000014 -0.000050  0.000150 -0.000401  0.000977 -0.002195  0.007392 -0.021431  0.019201  0.165378
                                 0.311754  0.342520 -0.041102  0.227064 -0.070628  0.000000  0.000000 -0.000002 -0.000000  0.000006
                                 0.000000 -0.000021 -0.000000  0.000056  0.000000 -0.000162 -0.000000  0.000641  0.000000 -0.001943
                                -0.000000 -0.002959  0.000000 -0.027985  0.000000 -0.079436 -0.000000 -0.050408 -0.000000 -0.074330
                                -0.000000 -0.000026  0.000000  0.000136 -0.000000 -0.000699  0.000000 -0.012828 -0.000000 -0.011831
                                -0.000000 -0.002548  0.000000 -0.000003  0.000000 -0.000000  0.000039 -0.000000  0.000000 -0.000337
                                 0.000000 -0.000000 -0.002805 -0.024136 -0.081188 -0.125082 -0.121167 -0.056350 -0.001786  0.000734
                                -0.001145 -0.006466 -0.002937 -0.000100 -0.000181 -0.000000  0.000852  0.000000

                                   1 3d2-    1 3d2-    1 3d2-    1 3d2-    1 3d2-    1 3d2-    1 3d2-    1 3d2-    1 3d2-    1 3d2-
                                   1 3d2-    1 3d2-    1 3d2-    1 3d2-    1 3d2-    1 3d2-    1 3d2-    1 3d2-    1 4f2-    1 4f2-
                                   1 4f2-    1 4f2-    1 4f2-    1 4f2-    1 4f2-    1 4f2-    1 4f2-    1 4f2-    1 4f2-    1 4f2-
                                   1 4f2-    1 5g2-    1 5g4-    1 5g2-    1 5g4-    1 5g2-    1 5g4-    1 5g2-    1 5g4-    1 5g2-
                                   1 5g4-    1 5g2-    1 5g4-    1 6h4-    1 6h2-    1 6h4-    1 6h2-    1 6h4-    1 6h2-    2 3d2-
                                   2 3d2-    2 3d2-    2 3d2-    2 4f2-    2 4f2-

   1.4   0    -0.1606   -5.0580  0.000000 -0.000001  0.000004 -0.000017  0.000061 -0.000184  0.000491 -0.001196  0.002679 -0.008907
                                 0.025634 -0.022936 -0.194327 -0.367847 -0.421488 -0.137700 -0.050454 -0.115086 -0.000000  0.000001
                                -0.000003  0.000010 -0.000026  0.000079 -0.000338  0.001049  0.002128  0.017368  0.041102  0.017961
                                 0.019181  0.000020  0.000000 -0.000101  0.000000  0.000511 -0.000000  0.009125  0.000000  0.007658
                                 0.000000  0.000384  0.000000 -0.000000 -0.000004  0.000000  0.000033 -0.000000  0.000031 -0.000534
                                -0.002415 -0.003057 -0.000046  0.000195  0.001065

   2.4   0    -0.0437   -2.2106 -0.000000  0.000000 -0.000000  0.000001 -0.000002  0.000004 -0.000006 -0.000016  0.000147 -0.002003
                                 0.007892 -0.004391 -0.098464 -0.131535 -0.394405  2.310190 -4.718302  3.494406 -0.000000  0.000003
                                -0.000012  0.000039 -0.000107  0.000258 -0.000601  0.001373 -0.002380  0.012420 -0.034106  0.068872
                                -0.315394  0.000009  0.000000 -0.000048 -0.000000  0.000249 -0.000000  0.004466  0.000000 -0.001755
                                -0.000000  0.006305 -0.000000 -0.000000  0.000002 -0.000000 -0.000024 -0.000000  0.000136 -0.000090
                                -0.000181 -0.000413 -0.000004  0.000189 -0.000322

 HOMO      4.1    -0.505947 =     -13.7675eV
 LUMO      5.1    -0.251800 =      -6.8518eV
 LUMO-HOMO         0.254148 =       6.9157eV


 **********************************************************************************************************************************
 DATASETS  * FILE   NREC   LENGTH (MB)   RECORD NAMES
              1      19       22.47       500      610      700      900      950      970     1000      129      960     1100
                                          VAR    BASINP    GEOM    SYMINP    ZMAT    AOBASIS   BASIS     P2S    ABASIS      S
                                         1400     1410     1420     1200     1210     1080     1600     1650     1700
                                           T        V       ECP      H0       H01     AOSYM     SMH    MOLCAS    OPER

              2       4        4.02       700     1000      520     2202
                                         GEOM     BASIS   MCVARS     RHF

 PROGRAMS   *        TOTAL       RHF       INT
 CPU TIMES  *        96.77      9.69     85.27
 REAL TIME  *       111.69 SEC
 DISK USED  *         9.23 GB
 SF USED    *         0.24 MB
 GA USED    *         0.00 MB       (max)       0.00 MB       (current)
 **********************************************************************************************************************************
   -->
   <time start="05:35:02" end="05:36:51" cpu="96.77" system="13.83" real="111.69"/>
   <storage units="megabyte" memory="8001.84" sf="0.24" df="339.45" eaf="8885.86" ga="0.0"/>
  </jobstep><!--
  --><jobstep command="RHF-SCF" commandset="SCFPRO">
   <!--


 PROGRAM * RHF-SCF (OPEN SHELL)       Authors: W. Meyer, H.-J. Werner


 NUMBER OF ELECTRONS:       9+    8-    SPACE SYMMETRY=1    SPIN SYMMETRY: Doublet
 CONVERGENCE THRESHOLDS:    1.00E-05 (Density)    1.00E-07 (Energy)
 MAX. NUMBER OF ITERATIONS:      200
 INTERPOLATION TYPE:            DIIS
 INTERPOLATION STEPS:              2 (START)      1 (STEP)
 LEVEL SHIFTS:                 -0.60 (CLOSED) -0.30 (OPEN)

 Number of closed-shell orbitals:    8 (   4   2   2   0 )
 Number of open-shell orbitals:      1 (   1   0   0   0 )


 Molecular orbitals read from record     2202.2  Type=RHF/CANONICAL (state 1.1)

 Molecular orbital dump at record        3202.2

 ITERATION    DDIFF          GRAD             ENERGY        2-EL.EN.            DIPOLE MOMENTS         DIIS   ORB.
    1      0.000D+00      0.000D+00       -55.40839279    105.890432    0.00000    0.00000   -3.21615    0    start
    2      0.000D+00      0.251D-02       -55.41990586    104.783739    0.00000    0.00000   -3.04815    1    diag,B
    3      0.153D-02      0.123D-02       -55.42362478    104.784487    0.00000    0.00000   -3.13721    2    diag,B
    4      0.698D-03      0.715D-03       -55.42842703    104.466182    0.00000    0.00000   -3.05236    3    diag,B
    5      0.921D-03      0.535D-03       -55.43299330    104.250955    0.00000    0.00000   -2.88648    4    diag,B
    6      0.105D-02      0.524D-03       -55.43338994    104.235441    0.00000    0.00000   -2.86753    5    diag,B
    7      0.848D-04      0.530D-03       -55.42502206    104.579714    0.00000    0.00000   -3.41856    6    diag,B
    8      0.118D-02      0.484D-03       -55.42467132    104.617135    0.00000    0.00000   -3.47503    7    orth
    9      0.311D-03      0.439D-03       -55.42344964    104.786085    0.00000    0.00000   -3.79021    8    diag,B
   10      0.224D-02      0.266D-03       -55.42317138    104.878509    0.00000    0.00000   -3.93824    9    diag,B
   11      0.930D-03      0.235D-03       -55.42296763    104.909855    0.00000    0.00000   -4.02257    9    diag,B
   12      0.968D-03      0.282D-03       -55.42324377    104.886020    0.00000    0.00000   -3.94907    9    diag,B
   13      0.591D-03      0.187D-03       -55.42353091    104.845367    0.00000    0.00000   -3.88206    9    diag,B
   14      0.124D-02      0.162D-03       -55.42377348    104.781389    0.00000    0.00000   -3.79809    9    diag,B
   15      0.464D-03      0.242D-03       -55.42362594    104.827828    0.00000    0.00000   -3.86500    9    diag,B
   16      0.188D-03      0.164D-03       -55.42345705    104.880504    0.00000    0.00000   -3.94647    9    diag,B
   17      0.516D-03      0.104D-03       -55.42337733    104.912632    0.00000    0.00000   -3.98994    9    diag,B
   18      0.111D-02      0.574D-04       -55.42330779    104.928320    0.00000    0.00000   -4.02039    9    orth
   19      0.380D-03      0.516D-04       -55.42320828    104.942218    0.00000    0.00000   -4.05368    9    diag,B
   20      0.228D-03      0.593D-04       -55.42336626    104.912611    0.00000    0.00000   -3.99300    9    diag,B
   21      0.313D-03      0.501D-04       -55.42392966    104.766504    0.00000    0.00000   -3.77261    9    diag,B
   22      0.685D-03      0.176D-03       -55.42352511    104.859645    0.00000    0.00000   -3.91381    9    diag,B
   23      0.441D-03      0.916D-04       -55.42345821    104.876228    0.00000    0.00000   -3.94234    9    diag,B
   24      0.151D-03      0.861D-04       -55.42338530    104.896746    0.00000    0.00000   -3.97763    9    diag,B
   25      0.238D-03      0.789D-04       -55.42328019    104.922269    0.00000    0.00000   -4.02572    9    diag,B
   26      0.328D-03      0.799D-04       -55.42340740    104.892020    0.00000    0.00000   -3.96640    9    diag,B
   27      0.303D-03      0.765D-04       -55.42343670    104.883922    0.00000    0.00000   -3.95122    9    diag,B
   28      0.539D-04      0.794D-04       -55.42344807    104.880919    0.00000    0.00000   -3.94659    9    orth
   29      0.301D-04      0.802D-04       -55.42335902    104.906113    0.00000    0.00000   -3.99148    9    diag,B
   30      0.165D-03      0.718D-04       -55.42318502    104.935600    0.00000    0.00000   -4.05765    9    diag,B
   31      0.281D-03      0.953D-04       -55.42369063    104.816446    0.00000    0.00000   -3.84388    9    diag,B
   32      0.720D-03      0.120D-03       -55.42364206    104.828093    0.00000    0.00000   -3.86137    9    diag,B
   33      0.568D-04      0.111D-03       -55.42317736    104.934793    0.00000    0.00000   -4.05784    9    diag,B
   34      0.705D-03      0.107D-03       -55.42339474    104.898207    0.00000    0.00000   -3.97648    9    diag,B
   35      0.539D-03      0.677D-04       -55.42358213    104.844995    0.00000    0.00000   -3.88671    9    diag,B
   36      0.273D-03      0.930D-04       -55.42300134    104.942033    0.00000    0.00000   -4.09319    9    diag,B
   37      0.777D-03      0.150D-03       -55.42340641    104.894573    0.00000    0.00000   -3.96937    9    diag,B
   38      0.555D-03      0.677D-04       -55.42370115    104.815608    0.00000    0.00000   -3.83906    9    orth
   39      0.367D-03      0.115D-03       -55.42327991    104.922931    0.00000    0.00000   -4.02812    9    diag,B
   40      0.588D-03      0.787D-04       -55.42343770    104.883345    0.00000    0.00000   -3.95154    9    diag,B
   41      0.303D-03      0.780D-04       -55.42327261    104.927685    0.00000    0.00000   -4.03351    9    diag,B
   42      0.432D-03      0.689D-04       -55.42373806    104.806876    0.00000    0.00000   -3.82559    9    diag,B
   43      0.724D-03      0.125D-03       -55.42337672    104.899845    0.00000    0.00000   -3.98287    9    diag,B
   44      0.466D-03      0.753D-04       -55.42333429    104.911144    0.00000    0.00000   -4.00306    9    diag,B
   45      0.977D-04      0.745D-04       -55.42437158    104.692532    0.00000    0.00000   -3.65942    9    diag,B
   46      0.978D-03      0.243D-03       -55.42349084    104.866273    0.00000    0.00000   -3.92414    9    diag,B
   47      0.704D-03      0.903D-04       -55.42340340    104.892282    0.00000    0.00000   -3.96833    9    diag,B
   48      0.144D-03      0.779D-04       -55.42317595    104.936090    0.00000    0.00000   -4.06083    9    orth
   49      0.380D-03      0.994D-04       -55.42477062    104.637569    0.00000    0.00000   -3.58504    9    diag,B
   50      0.139D-02      0.302D-03       -55.42356862    104.844852    0.00000    0.00000   -3.88881    9    diag,B
   51      0.767D-03      0.103D-03       -55.42335095    104.907017    0.00000    0.00000   -3.99509    9    diag,B
   52      0.347D-03      0.753D-04       -55.42320192    104.933786    0.00000    0.00000   -4.05411    9    diag,B
   53      0.252D-03      0.934D-04       -55.42428800    104.703272    0.00000    0.00000   -3.67690    9    diag,B
   54      0.115D-02      0.230D-03       -55.42350551    104.862892    0.00000    0.00000   -3.91769    9    diag,B
   55      0.637D-03      0.900D-04       -55.42335388    104.906058    0.00000    0.00000   -3.99350    9    diag,B
   56      0.257D-03      0.759D-04       -55.42311752    104.939638    0.00000    0.00000   -4.07389    9    diag,B
   57      0.368D-03      0.114D-03       -55.42381576    104.788341    0.00000    0.00000   -3.79997    9    fixocc
   58      0.952D-03      0.142D-03       -55.42342077    104.888975    0.00000    0.00000   -3.96080    9    orth
   59      0.465D-03      0.736D-04       -55.42329003    104.920570    0.00000    0.00000   -4.02253    9    diag,B
   60      0.239D-03      0.794D-04       -55.42351532    104.865221    0.00000    0.00000   -3.91581    9    diag,B
   61      0.379D-03      0.790D-04       -55.42359351    104.839721    0.00000    0.00000   -3.88002    9    diag,B
   62      0.131D-03      0.998D-04       -55.42315367    104.936632    0.00000    0.00000   -4.06477    9    diag,B
   63      0.716D-03      0.109D-03       -55.42328368    104.924329    0.00000    0.00000   -4.02741    9    diag,B
   64      0.217D-03      0.735D-04       -55.42338988    104.903475    0.00000    0.00000   -3.98239    9    diag,B
   65      0.228D-03      0.600D-04       -55.42495376    104.615613    0.00000    0.00000   -3.55312    9    diag,B
   66      0.111D-02      0.327D-03       -55.42348356    104.867429    0.00000    0.00000   -3.92729    9    diag,B
   67      0.975D-03      0.957D-04       -55.42345052    104.878290    0.00000    0.00000   -3.94445    9    diag,B
   68      0.537D-04      0.856D-04       -55.42354195    104.856478    0.00000    0.00000   -3.90302    9    orth
   69      0.130D-03      0.831D-04       -55.42337804    104.902864    0.00000    0.00000   -3.98464    9    diag,B
   70      0.264D-03      0.698D-04       -55.42336560    104.905591    0.00000    0.00000   -3.99073    9    diag,B
   71      0.625D-04      0.696D-04       -55.42393052    104.767071    0.00000    0.00000   -3.76535    9    diag,B
   72      0.610D-03      0.161D-03       -55.42340285    104.893848    0.00000    0.00000   -3.97049    9    diag,B
   73      0.545D-03      0.761D-04       -55.42338972    104.897529    0.00000    0.00000   -3.97723    9    diag,B
   74      0.236D-04      0.752D-04       -55.42336830    104.904937    0.00000    0.00000   -3.98767    9    diag,B
   75      0.142D-03      0.633D-04       -55.42390570    104.772492    0.00000    0.00000   -3.77355    9    diag,B
   76      0.634D-03      0.158D-03       -55.42336988    104.902500    0.00000    0.00000   -3.98745    9    diag,B
   77      0.597D-03      0.771D-04       -55.42326365    104.926467    0.00000    0.00000   -4.03762    9    diag,B
   78      0.188D-03      0.852D-04       -55.42415613    104.727769    0.00000    0.00000   -3.70804    9    orth
   79      0.934D-03      0.205D-03       -55.42335425    104.908198    0.00000    0.00000   -3.99796    9    diag,B
   80      0.781D-03      0.732D-04       -55.42333724    104.912291    0.00000    0.00000   -4.00606    9    diag,B
   81      0.315D-04      0.743D-04       -55.42424173    104.717563    0.00000    0.00000   -3.69676    9    diag,B
   82      0.843D-03      0.213D-03       -55.42333453    104.911659    0.00000    0.00000   -4.00498    9    diag,B
   83      0.845D-03      0.782D-04       -55.42331928    104.914876    0.00000    0.00000   -4.01215    9    diag,B
   84      0.371D-04      0.807D-04       -55.42388541    104.778480    0.00000    0.00000   -3.78110    9    diag,B
   85      0.678D-03      0.152D-03       -55.42328878    104.922641    0.00000    0.00000   -4.02833    9    diag,B
   86      0.740D-03      0.789D-04       -55.42332721    104.915068    0.00000    0.00000   -4.01108    9    diag,B
   87      0.918D-04      0.724D-04       -55.42366376    104.825099    0.00000    0.00000   -3.85628    9    diag,B
   88      0.507D-03      0.109D-03       -55.42315604    104.938980    0.00000    0.00000   -4.06816    9    orth
   89      0.806D-03      0.106D-03       -55.42324382    104.931135    0.00000    0.00000   -4.04402    9    diag,B
   90      0.146D-03      0.821D-04       -55.42325187    104.931589    0.00000    0.00000   -4.04349    9    diag,B
   91      0.645D-04      0.730D-04       -55.42350052    104.872560    0.00000    0.00000   -3.93223    9    diag,B
   92      0.407D-03      0.693D-04       -55.42356612    104.852935    0.00000    0.00000   -3.89385    9    diag,B
   93      0.248D-03      0.931D-04       -55.42325449    104.928838    0.00000    0.00000   -4.04105    9    diag,B
   94      0.511D-03      0.798D-04       -55.42334213    104.913660    0.00000    0.00000   -4.00856    9    diag,B
   95      0.166D-03      0.636D-04       -55.42383874    104.791336    0.00000    0.00000   -3.80303    9    diag,B
   96      0.608D-03      0.137D-03       -55.42327200    104.924603    0.00000    0.00000   -4.03267    9    diag,B
   97      0.718D-03      0.837D-04       -55.42330017    104.919921    0.00000    0.00000   -4.02162    9    diag,B
   98      0.660D-04      0.772D-04       -55.42357414    104.848465    0.00000    0.00000   -3.89168    9    orth
   99      0.466D-03      0.905D-04       -55.42315840    104.940832    0.00000    0.00000   -4.07245    9    diag,B
  100      0.833D-03      0.102D-03       -55.42328485    104.926101    0.00000    0.00000   -4.03229    9    diag,B
  101      0.300D-03      0.699D-04       -55.42337260    104.906855    0.00000    0.00000   -3.99212    9    diag,B
  102      0.166D-03      0.597D-04       -55.42388486    104.778507    0.00000    0.00000   -3.78626    9    diag,B
  103      0.575D-03      0.149D-03       -55.42328693    104.922321    0.00000    0.00000   -4.02738    9    diag,B
  104      0.712D-03      0.803D-04       -55.42327278    104.924964    0.00000    0.00000   -4.03399    9    diag,B
  105      0.275D-04      0.819D-04       -55.42368524    104.823912    0.00000    0.00000   -3.85371    9    diag,B
  106      0.584D-03      0.109D-03       -55.42329716    104.921471    0.00000    0.00000   -4.02489    9    diag,B
  107      0.578D-03      0.734D-04       -55.42330550    104.919945    0.00000    0.00000   -4.02119    9    diag,B
  108      0.148D-04      0.721D-04       -55.42361177    104.842249    0.00000    0.00000   -3.88218    9    orth
  109      0.603D-03      0.981D-04       -55.42333541    104.914118    0.00000    0.00000   -4.00901    9    diag,B
  110      0.604D-03      0.662D-04       -55.42334440    104.912167    0.00000    0.00000   -4.00389    9    diag,B
  111      0.251D-04      0.652D-04       -55.42357518    104.852178    0.00000    0.00000   -3.89893    9    diag,B
  112      0.634D-03      0.920D-04       -55.42335005    104.910754    0.00000    0.00000   -4.00167    9    diag,B
  113      0.632D-03      0.648D-04       -55.42335458    104.909897    0.00000    0.00000   -3.99914    9    diag,B
  114      0.141D-04      0.641D-04       -55.42355586    104.857552    0.00000    0.00000   -3.90780    9    diag,B
  115      0.615D-03      0.884D-04       -55.42336111    104.908144    0.00000    0.00000   -3.99617    9    diag,B
  116      0.595D-03      0.640D-04       -55.42335824    104.909100    0.00000    0.00000   -3.99740    9    diag,B
  117      0.197D-04      0.636D-04       -55.42353183    104.864455    0.00000    0.00000   -3.91910    9    diag,B
  118      0.580D-03      0.835D-04       -55.42337696    104.904071    0.00000    0.00000   -3.98817    9    orth
  119      0.536D-03      0.638D-04       -55.42335596    104.909849    0.00000    0.00000   -3.99856    9    diag,B
  120      0.555D-04      0.632D-04       -55.42346062    104.885024    0.00000    0.00000   -3.95345    9    diag,B
  121      0.516D-03      0.715D-04       -55.42345339    104.882845    0.00000    0.00000   -3.94999    9    diag,B
  122      0.414D-03      0.691D-04       -55.42327367    104.926527    0.00000    0.00000   -4.03298    9    diag,B
  123      0.336D-03      0.712D-04       -55.42328960    104.925194    0.00000    0.00000   -4.03122    9    diag,B
  124      0.101D-03      0.711D-04       -55.42385121    104.785457    0.00000    0.00000   -3.79789    9    diag,B
  125      0.738D-03      0.144D-03       -55.42330225    104.919573    0.00000    0.00000   -4.02078    9    diag,B
  126      0.704D-03      0.759D-04       -55.42327461    104.924734    0.00000    0.00000   -4.03269    9    diag,B
  127      0.577D-04      0.810D-04       -55.42374046    104.807511    0.00000    0.00000   -3.82770    9    diag,B
  128      0.636D-03      0.122D-03       -55.42327510    104.926343    0.00000    0.00000   -4.03596    9    orth
  129      0.637D-03      0.778D-04       -55.42330969    104.919358    0.00000    0.00000   -4.01988    9    diag,B
  130      0.113D-03      0.716D-04       -55.42367587    104.821203    0.00000    0.00000   -3.84786    9    diag,B
  131      0.520D-03      0.112D-03       -55.42331376    104.920146    0.00000    0.00000   -4.02125    9    diag,B
  132      0.516D-03      0.686D-04       -55.42332214    104.916694    0.00000    0.00000   -4.01370    9    diag,B
  133      0.140D-03      0.691D-04       -55.42372278    104.813017    0.00000    0.00000   -3.83626    9    diag,B
  134      0.544D-03      0.117D-03       -55.42329720    104.922277    0.00000    0.00000   -4.02651    9    diag,B
  135      0.567D-03      0.747D-04       -55.42330726    104.919907    0.00000    0.00000   -4.02119    9    diag,B
  136      0.730D-04      0.726D-04       -55.42367161    104.824464    0.00000    0.00000   -3.85392    9    diag,B
  137      0.503D-03      0.106D-03       -55.42331062    104.920105    0.00000    0.00000   -4.02087    9    diag,B
  138      0.497D-03      0.714D-04       -55.42331212    104.919314    0.00000    0.00000   -4.01941    9    orth
  139      0.349D-04      0.711D-04       -55.42368631    104.822510    0.00000    0.00000   -3.85172    9    diag,B
  140      0.522D-03      0.108D-03       -55.42330959    104.919418    0.00000    0.00000   -4.01965    9    diag,B
  141      0.522D-03      0.728D-04       -55.42330068    104.921368    0.00000    0.00000   -4.02399    9    diag,B
  142      0.369D-04      0.743D-04       -55.42369821    104.817137    0.00000    0.00000   -3.84197    9    diag,B
  143      0.540D-03      0.114D-03       -55.42330613    104.921366    0.00000    0.00000   -4.02423    9    diag,B
  144      0.534D-03      0.716D-04       -55.42332951    104.915301    0.00000    0.00000   -4.01101    9    diag,B
  145      0.121D-03      0.687D-04       -55.42369818    104.817981    0.00000    0.00000   -3.84366    9    diag,B
  146      0.530D-03      0.114D-03       -55.42331569    104.918892    0.00000    0.00000   -4.01868    9    diag,B
  147      0.541D-03      0.701D-04       -55.42332736    104.915868    0.00000    0.00000   -4.01228    9    diag,B
  148      0.283D-04      0.691D-04       -55.42374035    104.808116    0.00000    0.00000   -3.82883    9    orth
  149      0.602D-03      0.123D-03       -55.42331671    104.918389    0.00000    0.00000   -4.01782    9    diag,B
  150      0.627D-03      0.706D-04       -55.42332509    104.916340    0.00000    0.00000   -4.01349    9    diag,B
  151      0.184D-04      0.698D-04       -55.42377722    104.799416    0.00000    0.00000   -3.81599    9    diag,B
  152      0.716D-03      0.131D-03       -55.42330987    104.919585    0.00000    0.00000   -4.02046    9    diag,B
  153      0.787D-03      0.720D-04       -55.42331681    104.918116    0.00000    0.00000   -4.01742    9    diag,B
  154      0.477D-04      0.713D-04       -55.42372620    104.812254    0.00000    0.00000   -3.83634    9    diag,B
  155      0.719D-03      0.117D-03       -55.42328916    104.923182    0.00000    0.00000   -4.02804    9    diag,B
  156      0.788D-03      0.758D-04       -55.42328359    104.924418    0.00000    0.00000   -4.03101    9    diag,B
  157      0.264D-04      0.771D-04       -55.42368880    104.820751    0.00000    0.00000   -3.84845    9    diag,B
  158      0.620D-03      0.109D-03       -55.42329360    104.923018    0.00000    0.00000   -4.02762    9    orth
  159      0.560D-03      0.750D-04       -55.42329494    104.922611    0.00000    0.00000   -4.02669    9    diag,B
  160      0.493D-04      0.745D-04       -55.42369647    104.819848    0.00000    0.00000   -3.84775    9    diag,B
  161      0.575D-03      0.110D-03       -55.42329785    104.921712    0.00000    0.00000   -4.02469    9    diag,B
  162      0.555D-03      0.750D-04       -55.42329166    104.922982    0.00000    0.00000   -4.02756    9    diag,B
  163      0.113D-04      0.760D-04       -55.42371747    104.812289    0.00000    0.00000   -3.83469    9    diag,B
  164      0.635D-03      0.118D-03       -55.42328841    104.924684    0.00000    0.00000   -4.03170    9    diag,B
  165      0.676D-03      0.747D-04       -55.42332371    104.916633    0.00000    0.00000   -4.01391    9    diag,B
  166      0.826D-04      0.694D-04       -55.42374592    104.804673    0.00000    0.00000   -3.82324    9    diag,B
  167      0.634D-03      0.127D-03       -55.42330967    104.920241    0.00000    0.00000   -4.02173    9    diag,B
  168      0.630D-03      0.703D-04       -55.42333396    104.914133    0.00000    0.00000   -4.00875    9    orth
  169      0.818D-04      0.685D-04       -55.42372174    104.812441    0.00000    0.00000   -3.83509    9    diag,B
  170      0.549D-03      0.118D-03       -55.42330701    104.920571    0.00000    0.00000   -4.02247    9    diag,B
  171      0.554D-03      0.718D-04       -55.42332081    104.917224    0.00000    0.00000   -4.01533    9    diag,B
  172      0.869D-04      0.703D-04       -55.42374026    104.808138    0.00000    0.00000   -3.82887    9    diag,B
  173      0.542D-03      0.122D-03       -55.42331562    104.918549    0.00000    0.00000   -4.01813    9    diag,B
  174      0.587D-03      0.713D-04       -55.42331790    104.917884    0.00000    0.00000   -4.01676    9    diag,B
  175      0.992D-04      0.708D-04       -55.42367570    104.824805    0.00000    0.00000   -3.85485    9    diag,B
  176      0.486D-03      0.106D-03       -55.42330850    104.919736    0.00000    0.00000   -4.02027    9    diag,B
  177      0.501D-03      0.725D-04       -55.42330025    104.921605    0.00000    0.00000   -4.02454    9    diag,B
  178      0.536D-04      0.740D-04       -55.42367309    104.824254    0.00000    0.00000   -3.85316    9    orth
  179      0.512D-03      0.108D-03       -55.42331402    104.919407    0.00000    0.00000   -4.01988    9    diag,B
  180      0.491D-03      0.705D-04       -55.42332451    104.916513    0.00000    0.00000   -4.01346    9    diag,B
  181      0.837D-04      0.692D-04       -55.42367680    104.823855    0.00000    0.00000   -3.85289    9    diag,B
  182      0.506D-03      0.109D-03       -55.42331946    104.917983    0.00000    0.00000   -4.01673    9    diag,B
  183      0.509D-03      0.699D-04       -55.42332437    104.916618    0.00000    0.00000   -4.01378    9    diag,B
  184      0.186D-04      0.693D-04       -55.42368465    104.821959    0.00000    0.00000   -3.85018    9    diag,B
  185      0.553D-03      0.110D-03       -55.42331871    104.918029    0.00000    0.00000   -4.01673    9    diag,B
  186      0.580D-03      0.702D-04       -55.42332054    104.917545    0.00000    0.00000   -4.01578    9    diag,B
  187      0.242D-04      0.700D-04       -55.42369543    104.819678    0.00000    0.00000   -3.84748    9    diag,B
  188      0.654D-03      0.111D-03       -55.42330838    104.919912    0.00000    0.00000   -4.02048    9    orth
  189      0.728D-03      0.726D-04       -55.42330173    104.921426    0.00000    0.00000   -4.02397    9    diag,B
  190      0.466D-04      0.739D-04       -55.42367197    104.825013    0.00000    0.00000   -3.85462    9    diag,B
  191      0.528D-03      0.106D-03       -55.42330858    104.920215    0.00000    0.00000   -4.02163    9    diag,B
  192      0.498D-03      0.719D-04       -55.42331611    104.918440    0.00000    0.00000   -4.01755    9    diag,B
  193      0.101D-03      0.706D-04       -55.42366523    104.827149    0.00000    0.00000   -3.85783    9    diag,B
  194      0.486D-03      0.106D-03       -55.42331934    104.917723    0.00000    0.00000   -4.01647    9    diag,B
  195      0.539D-03      0.699D-04       -55.42332465    104.916466    0.00000    0.00000   -4.01342    9    diag,B
  196      0.142D-03      0.690D-04       -55.42366358    104.828441    0.00000    0.00000   -3.86028    9    diag,B
  197      0.469D-03      0.105D-03       -55.42332146    104.916878    0.00000    0.00000   -4.01454    9    diag,B
  198      0.499D-03      0.701D-04       -55.42331906    104.917540    0.00000    0.00000   -4.01591    9    orth
  199      0.158D-04      0.703D-04       -55.42366805    104.832373    0.00000    0.00000   -3.86292    9    orth
  200      0.474D-03      0.936D-04       -55.42371601    104.840318    0.00000    0.00000   -3.85388    0    orth

 Final alpha occupancy:   5   2   2   0
 Final beta  occupancy:   4   2   2   0

 !RHF STATE 1.1 Energy                -55.423716010719
   --><property name="Energy" method="RHF" principal="true" stateSymmetry="1" stateNumber="1"
     value="-55.4237160107191"/><!--
 Nuclear energy                        15.18508518
 One-electron energy                 -123.02896006
 Two-electron energy                   52.42015886
 Virial quotient                       -2.29089674
 !RHF STATE 1.1 Dipole moment           0.00000000     0.00000000    -3.85387822
 Dipole moment /Debye                   0.00000000     0.00000000    -9.79493981
   --><property name="Dipole moment" method="RHF" principal="true" stateSymmetry="1"
     stateNumber="1" value="0.0 0.0 -3.85387822125715"/><!--

 ELECTRON ORBITALS
 =================


   Orb  Occ    Energy  Couls-En    Coefficients

                                   1 1s      1 1s      1 1s      1 1s      1 1s      1 1s      1 1s      1 1s      1 1s      1 1s
                                   1 1s      1 1s      1 1s      1 1s      1 1s      1 1s      1 1s      1 1s      1 1s      1 1s
                                   1 1s      1 1s      1 1s      1 1s      1 1s      1 1s      1 1s      1 1s      1 1s      1 1s
                                   1 1s      1 2pz     1 2pz     1 2pz     1 2pz     1 2pz     1 2pz     1 2pz     1 2pz     1 2pz
                                   1 2pz     1 2pz     1 2pz     1 2pz     1 2pz     1 2pz     1 2pz     1 2pz     1 2pz     1 2pz
                                   1 2pz     1 2pz     1 2pz     1 2pz     1 2pz     1 2pz     1 2pz     1 2pz     1 3d0     1 3d2+
                                   1 3d0     1 3d2+    1 3d0     1 3d2+    1 3d0     1 3d2+    1 3d0     1 3d2+    1 3d0     1 3d2+
                                   1 3d0     1 3d2+    1 3d0     1 3d2+    1 3d0     1 3d2+    1 3d0     1 3d2+    1 3d0     1 3d2+
                                   1 3d0     1 3d2+    1 3d0     1 3d2+    1 3d0     1 3d2+    1 3d0     1 3d2+    1 3d0     1 3d2+
                                   1 3d0     1 3d2+    1 3d0     1 3d2+    1 4f0     1 4f2+    1 4f0     1 4f2+    1 4f0     1 4f2+
                                   1 4f0     1 4f2+    1 4f0     1 4f2+    1 4f0     1 4f2+    1 4f0     1 4f2+    1 4f0     1 4f2+
                                   1 4f0     1 4f2+    1 4f0     1 4f2+    1 4f0     1 4f2+    1 4f0     1 4f2+    1 4f0     1 4f2+
                                   1 5g0     1 5g4+    1 5g2+    1 5g0     1 5g4+    1 5g2+    1 5g0     1 5g4+    1 5g2+    1 5g0
                                   1 5g4+    1 5g2+    1 5g0     1 5g4+    1 5g2+    1 5g0     1 5g4+    1 5g2+    1 6h2+    1 6h4+
                                   1 6h0     1 6h2+    1 6h4+    1 6h0     1 6h2+    1 6h4+    1 6h0     2 1s      2 1s      2 1s
                                   2 1s      2 1s      2 1s      2 1s      2 1s      2 1s      2 1s      2 1s      2 1s      2 1s
                                   2 2pz     2 2pz     2 2pz     2 2pz     2 2pz     2 2pz     2 2pz     2 2pz     2 3d0     2 3d2+
                                   2 3d0     2 3d2+    2 3d0     2 3d2+    2 3d0     2 3d2+    2 4f0     2 4f2+    2 4f0     2 4f2+


   1.1   2    -2.6536  -12.0069  0.000000 -0.000000  0.000000 -0.000000  0.000000 -0.000000  0.000001 -0.000002  0.000005 -0.000014
                                 0.000034 -0.000082  0.000192 -0.000433  0.000935 -0.001944  0.003725 -0.006070  0.007070 -0.038467
                                 0.215502 -0.252637 -0.454189  0.263431  0.707324  0.389750 -0.028301  0.039845 -0.031798  0.022786
                                -0.006803 -0.000000  0.000000 -0.000000  0.000000 -0.000000  0.000000 -0.000000  0.000000 -0.000000
                                 0.000000 -0.000001  0.000004 -0.000010  0.000030 -0.000099  0.000715 -0.001529  0.001223  0.000935
                                 0.000192 -0.004528 -0.002324 -0.009968 -0.016156 -0.003259 -0.001372  0.015754 -0.000000 -0.000000
                                 0.000000  0.000000 -0.000000 -0.000000  0.000000  0.000000 -0.000001 -0.000000  0.000003  0.000000
                                -0.000008 -0.000000  0.000018  0.000000 -0.000032 -0.000000  0.000006  0.000000  0.000112 -0.000000
                                 0.000264  0.000000 -0.003970 -0.000000 -0.004597 -0.000000 -0.000625  0.000000 -0.000207 -0.000000
                                -0.000866  0.000000  0.000660 -0.000000  0.000000  0.000000 -0.000000 -0.000000  0.000001  0.000000
                                -0.000002 -0.000000  0.000005  0.000000 -0.000014 -0.000000  0.000045  0.000000 -0.000114 -0.000000
                                -0.000731  0.000000 -0.000723  0.000000 -0.000024 -0.000000 -0.000130  0.000000  0.000148 -0.000000
                                -0.000000  0.000000 -0.000000  0.000001  0.000000  0.000000 -0.000007  0.000000 -0.000000 -0.000043
                                 0.000000 -0.000000  0.000017 -0.000000  0.000000  0.000064  0.000000 -0.000000 -0.000000 -0.000000
                                -0.000001  0.000000 -0.000000  0.000003 -0.000000 -0.000000  0.000016 -0.000000  0.000000 -0.000000
                                 0.000001 -0.000007  0.000223 -0.000334  0.000743  0.001296  0.002314  0.003655 -0.000267 -0.000363
                                -0.000030 -0.000264 -0.000618 -0.001203 -0.002242 -0.001455  0.000023  0.000009  0.000054 -0.000000
                                 0.000588 -0.000000  0.000920 -0.000000  0.000011 -0.000000 -0.000041  0.000000 -0.000323  0.000000

   2.1   2    -1.4222   -9.4645  0.000000 -0.000000  0.000000 -0.000000  0.000000 -0.000000  0.000000 -0.000000  0.000000 -0.000000
                                 0.000001 -0.000001  0.000004 -0.000008  0.000017 -0.000036  0.000069 -0.000114  0.000136 -0.000835
                                 0.005012 -0.005978 -0.012273  0.008099  0.029951 -0.001090 -0.016626  0.000122 -0.018386 -0.006552
                                 0.004326  0.000000 -0.000000  0.000000 -0.000000  0.000000 -0.000000  0.000000 -0.000000  0.000001
                                -0.000004  0.000013 -0.000037  0.000108 -0.000365  0.001751 -0.024514  0.069453 -0.061978 -0.140440
                                 0.177356  0.524909 -0.011065  0.398146 -0.007910  0.068525 -0.016295  0.008937 -0.000000  0.000000
                                 0.000000 -0.000000 -0.000000  0.000000  0.000001 -0.000000 -0.000002  0.000000  0.000007 -0.000000
                                -0.000017  0.000000  0.000037 -0.000000 -0.000066  0.000000  0.000001  0.000000  0.000277 -0.000000
                                 0.000334  0.000000 -0.007670  0.000000 -0.016425  0.000001 -0.006558 -0.000000 -0.002070  0.000000
                                -0.006008 -0.000000  0.003585  0.000000 -0.000000 -0.000000  0.000000  0.000000 -0.000001 -0.000000
                                 0.000003  0.000000 -0.000009 -0.000000  0.000015  0.000000  0.000047  0.000000 -0.000164 -0.000000
                                -0.003090 -0.000000 -0.003046 -0.000001 -0.001449 -0.000000 -0.001781  0.000000  0.000680 -0.000000
                                -0.000007  0.000000  0.000000  0.000032 -0.000000 -0.000000 -0.000120  0.000000  0.000000 -0.000391
                                -0.000000 -0.000000 -0.000763 -0.000000 -0.000000  0.000297  0.000000  0.000000 -0.000000  0.000000
                                 0.000006  0.000000 -0.000000 -0.000117 -0.000000  0.000000  0.000255 -0.000000  0.000000 -0.000002
                                 0.000015 -0.000128  0.004966 -0.009849  0.016742  0.048229  0.037789  0.024378 -0.004435 -0.007977
                                -0.000373 -0.003177 -0.009712 -0.016580 -0.016583 -0.007748 -0.000114  0.000100  0.000557  0.000000
[...]
                                 0.000007 -0.000000  0.000000 -0.000064  0.000000 -0.000000  0.000273 -0.000000  0.000000 -0.000003
                                 0.000016 -0.000097  0.001287  0.007076  0.005053 -0.014524  0.025564 -0.298035 -0.006956 -0.002855
                                -0.000543 -0.004604 -0.016370 -0.024541 -0.037375  0.016578 -0.000511  0.000140  0.000051 -0.000000
                                -0.003922 -0.000000  0.006650 -0.000001 -0.000058 -0.000000 -0.000154  0.000000  0.002142  0.000000

                                   1 2px     1 2px     1 2px     1 2px     1 2px     1 2px     1 2px     1 2px     1 2px     1 2px
                                   1 2px     1 2px     1 2px     1 2px     1 2px     1 2px     1 2px     1 2px     1 2px     1 2px
                                   1 2px     1 2px     1 2px     1 2px     1 2px     1 2px     1 2px     1 3d1+    1 3d1+    1 3d1+
                                   1 3d1+    1 3d1+    1 3d1+    1 3d1+    1 3d1+    1 3d1+    1 3d1+    1 3d1+    1 3d1+    1 3d1+
                                   1 3d1+    1 3d1+    1 3d1+    1 3d1+    1 3d1+    1 4f1+    1 4f3+    1 4f1+    1 4f3+    1 4f1+
                                   1 4f3+    1 4f1+    1 4f3+    1 4f1+    1 4f3+    1 4f1+    1 4f3+    1 4f1+    1 4f3+    1 4f1+
                                   1 4f3+    1 4f1+    1 4f3+    1 4f1+    1 4f3+    1 4f1+    1 4f3+    1 4f1+    1 4f3+    1 4f1+
                                   1 4f3+    1 5g1+    1 5g3+    1 5g1+    1 5g3+    1 5g1+    1 5g3+    1 5g1+    1 5g3+    1 5g1+
                                   1 5g3+    1 5g1+    1 5g3+    1 6h1+    1 6h3+    1 6h5+    1 6h1+    1 6h3+    1 6h5+    1 6h1+
                                   1 6h3+    1 6h5+    2 2px     2 2px     2 2px     2 2px     2 2px     2 2px     2 2px     2 2px
                                   2 3d1+    2 3d1+    2 3d1+    2 3d1+    2 4f1+    2 4f3+    2 4f1+    2 4f3+

   1.2   2    -1.4344   -9.3870  0.000000 -0.000000  0.000000 -0.000000  0.000000 -0.000000  0.000000 -0.000000  0.000002 -0.000005
                                 0.000015 -0.000041  0.000120 -0.000398  0.001857 -0.025232  0.070920 -0.063123 -0.141104  0.177323
                                 0.528048 -0.008767  0.406585  0.058393  0.070709 -0.005221 -0.056024 -0.000000  0.000000 -0.000000
                                 0.000000 -0.000001  0.000002 -0.000005  0.000010 -0.000016 -0.000039  0.000206  0.000222 -0.003783
                                -0.012229 -0.004718  0.002317 -0.002873  0.000655 -0.000000 -0.000000  0.000001  0.000000 -0.000002
                                -0.000000  0.000007  0.000000 -0.000021 -0.000000  0.000041  0.000000  0.000001 -0.000000 -0.000151
                                 0.000000 -0.003177  0.000000 -0.003575  0.000000 -0.000232  0.000000 -0.000200 -0.000000 -0.000077
                                 0.000000 -0.000008  0.000000  0.000038 -0.000000 -0.000160  0.000000 -0.000637  0.000000  0.000123
                                -0.000000 -0.000181  0.000000  0.000002  0.000000  0.000000 -0.000059  0.000000 -0.000000  0.000024
                                 0.000000  0.000000  0.000086  0.000746  0.002263  0.003747  0.003239  0.000890  0.000017 -0.000023
                                -0.000147 -0.000915 -0.001046 -0.000017  0.000081 -0.000000  0.000511 -0.000000

   2.2   2    -0.3145   -6.5868 -0.000000  0.000000 -0.000000  0.000000 -0.000000  0.000000 -0.000000  0.000000 -0.000000  0.000001
                                -0.000002  0.000004 -0.000012  0.000038 -0.000159  0.001884 -0.005170  0.004785  0.009012 -0.012932
                                -0.038623  0.000262 -0.039180 -0.106752  0.029931  0.064772  0.104958 -0.000000  0.000000 -0.000001
                                 0.000005 -0.000016  0.000049 -0.000130  0.000313 -0.000688  0.002117 -0.005831  0.005378  0.039660
                                 0.078789  0.090930 -0.007234  0.051171 -0.023971 -0.000000  0.000000  0.000001 -0.000000 -0.000004
                                 0.000000  0.000014 -0.000000 -0.000036  0.000000  0.000107 -0.000000 -0.000428  0.000000  0.001313
                                -0.000000  0.001907  0.000000  0.015495 -0.000000  0.011388 -0.000000  0.007235 -0.000000 -0.004454
                                -0.000000  0.000011 -0.000000 -0.000060  0.000000  0.000344 -0.000000  0.005720 -0.000000 -0.001682
                                -0.000000  0.001446 -0.000000  0.000057  0.000000  0.000000 -0.000537 -0.000000  0.000000  0.002040
                                 0.000000  0.000000  0.009073  0.077899  0.256418  0.401497  0.353241  0.096058  0.005133 -0.002387
                                -0.002531 -0.011090 -0.020596 -0.000266  0.000776 -0.000000  0.005493 -0.000000

   3.2   0    -0.0154   -2.9857 -0.000000  0.000000 -0.000000  0.000000 -0.000000  0.000000 -0.000000  0.000000 -0.000001  0.000004
                                -0.000011  0.000031 -0.000080  0.000210 -0.000529  0.000201  0.004765 -0.005785 -0.031418  0.047234
                                 0.066576  0.081846  0.049589 10.395475 -0.003845 -0.520023-10.846358 -0.000000  0.000000 -0.000001
                                 0.000006 -0.000020  0.000061 -0.000162  0.000390 -0.000857  0.002607 -0.007156  0.006763  0.048160
                                 0.092191  0.102661  0.476235 -0.676860  0.600725 -0.000000  0.000000  0.000000 -0.000000 -0.000001
                                 0.000000  0.000004 -0.000000 -0.000011  0.000000  0.000025 -0.000000 -0.000032  0.000000  0.000061
                                -0.000000 -0.001005 -0.000000 -0.001790 -0.000001 -0.002996 -0.000002  0.009874 -0.000000 -0.006940
                                -0.000001 -0.000010  0.000000  0.000051 -0.000000 -0.000277  0.000000 -0.004389  0.000000 -0.003269
                                 0.000000  0.000978 -0.000000 -0.000003  0.000000 -0.000000  0.000030 -0.000000  0.000000 -0.000174
                                 0.000000 -0.000000  0.000221  0.001907  0.006250  0.009842  0.007301 -0.026118  0.000117 -0.000058
                                -0.000088 -0.001360  0.001223 -0.000025  0.000064 -0.000000  0.000907  0.000000

   4.2   0     0.0531   -2.0984 -0.000000  0.000000 -0.000000  0.000000 -0.000000  0.000000 -0.000001  0.000004 -0.000014  0.000044
                                -0.000128  0.000351 -0.000934  0.002608 -0.008111  0.047847 -0.088984  0.071935 -0.031875  0.065086
                                -0.468189  0.755700 -0.689384 70.325938  0.526870 -0.912238-69.854268  0.000000 -0.000000  0.000001
                                -0.000003  0.000009 -0.000028  0.000077 -0.000199  0.000486 -0.002145  0.006901 -0.005154 -0.065644
                                -0.098422 -0.214061  0.582544 -1.287062  0.828371 -0.000000 -0.000000  0.000000  0.000000 -0.000002
                                -0.000000  0.000006  0.000000 -0.000015  0.000000  0.000044  0.000000 -0.000180 -0.000000  0.000520
                                 0.000000  0.001085  0.000000  0.008553  0.000000  0.015012  0.000001  0.045527 -0.000000  0.173468
                                 0.000002  0.000013 -0.000000 -0.000066  0.000000  0.000361 -0.000000  0.005561 -0.000000  0.005778
                                 0.000000  0.056035 -0.000001  0.000006 -0.000000  0.000000 -0.000060  0.000000 -0.000000  0.000331
                                -0.000000  0.000000  0.000656  0.005359  0.022378  0.029353  0.048103 -0.251299  0.001223 -0.000161
                                 0.000270  0.000280  0.003921 -0.000002 -0.000021 -0.000000 -0.000765 -0.000000

                                   1 2py     1 2py     1 2py     1 2py     1 2py     1 2py     1 2py     1 2py     1 2py     1 2py
                                   1 2py     1 2py     1 2py     1 2py     1 2py     1 2py     1 2py     1 2py     1 2py     1 2py
                                   1 2py     1 2py     1 2py     1 2py     1 2py     1 2py     1 2py     1 3d1-    1 3d1-    1 3d1-
                                   1 3d1-    1 3d1-    1 3d1-    1 3d1-    1 3d1-    1 3d1-    1 3d1-    1 3d1-    1 3d1-    1 3d1-
                                   1 3d1-    1 3d1-    1 3d1-    1 3d1-    1 3d1-    1 4f1-    1 4f3-    1 4f1-    1 4f3-    1 4f1-
                                   1 4f3-    1 4f1-    1 4f3-    1 4f1-    1 4f3-    1 4f1-    1 4f3-    1 4f1-    1 4f3-    1 4f1-
                                   1 4f3-    1 4f1-    1 4f3-    1 4f1-    1 4f3-    1 4f1-    1 4f3-    1 4f1-    1 4f3-    1 4f1-
                                   1 4f3-    1 5g1-    1 5g3-    1 5g1-    1 5g3-    1 5g1-    1 5g3-    1 5g1-    1 5g3-    1 5g1-
                                   1 5g3-    1 5g1-    1 5g3-    1 6h1-    1 6h3-    1 6h5-    1 6h1-    1 6h3-    1 6h5-    1 6h1-
                                   1 6h3-    1 6h5-    2 2py     2 2py     2 2py     2 2py     2 2py     2 2py     2 2py     2 2py
                                   2 3d1-    2 3d1-    2 3d1-    2 3d1-    2 4f1-    2 4f3-    2 4f1-    2 4f3-

   1.3   2    -1.4344   -9.3870  0.000000 -0.000000  0.000000 -0.000000  0.000000 -0.000000  0.000000 -0.000000  0.000002 -0.000005
                                 0.000015 -0.000041  0.000120 -0.000398  0.001857 -0.025232  0.070920 -0.063123 -0.141104  0.177323
                                 0.528048 -0.008766  0.406585  0.058393  0.070708 -0.005221 -0.056024 -0.000000  0.000000 -0.000000
                                 0.000000 -0.000001  0.000002 -0.000005  0.000010 -0.000016 -0.000039  0.000206  0.000222 -0.003784
                                -0.012230 -0.004717  0.002317 -0.002872  0.000655 -0.000000 -0.000000  0.000001  0.000000 -0.000002
                                -0.000000  0.000007  0.000000 -0.000021 -0.000000  0.000041  0.000000  0.000001 -0.000000 -0.000151
                                 0.000000 -0.003177  0.000000 -0.003574  0.000000 -0.000231  0.000000 -0.000200 -0.000000 -0.000077
                                 0.000000 -0.000008  0.000000  0.000038 -0.000000 -0.000160  0.000000 -0.000636  0.000000  0.000123
                                -0.000000 -0.000181  0.000000  0.000002  0.000000  0.000000 -0.000059  0.000000 -0.000000  0.000025
                                 0.000000  0.000000  0.000086  0.000747  0.002263  0.003747  0.003239  0.000890  0.000017 -0.000023
                                -0.000147 -0.000915 -0.001046 -0.000017  0.000081 -0.000000  0.000511 -0.000000

   2.3   2    -0.3145   -6.5866 -0.000000  0.000000 -0.000000  0.000000 -0.000000  0.000000 -0.000000  0.000000 -0.000000  0.000001
                                -0.000002  0.000004 -0.000012  0.000038 -0.000159  0.001885 -0.005171  0.004787  0.009014 -0.012935
                                -0.038633  0.000264 -0.039191 -0.106716  0.029938  0.064807  0.104940 -0.000000  0.000000 -0.000001
                                 0.000005 -0.000016  0.000049 -0.000130  0.000313 -0.000688  0.002117 -0.005833  0.005380  0.039680
                                 0.078826  0.090972 -0.007219  0.051176 -0.023962 -0.000000  0.000000  0.000001 -0.000000 -0.000004
                                 0.000000  0.000014 -0.000000 -0.000036  0.000000  0.000107 -0.000000 -0.000428  0.000000  0.001313
                                -0.000000  0.001908  0.000000  0.015496 -0.000000  0.011390 -0.000000  0.007236 -0.000000 -0.004453
                                -0.000000  0.000011 -0.000000 -0.000060  0.000000  0.000344 -0.000000  0.005719 -0.000000 -0.001681
                                -0.000000  0.001446 -0.000000  0.000057  0.000000 -0.000000 -0.000537 -0.000000  0.000000  0.002040
                                 0.000000 -0.000000  0.009073  0.077893  0.256397  0.401467  0.353223  0.096062  0.005133 -0.002387
                                -0.002531 -0.011091 -0.020597 -0.000266  0.000776 -0.000000  0.005493 -0.000000

   3.3   0    -0.0154   -2.9856 -0.000000  0.000000 -0.000000  0.000000 -0.000000  0.000000 -0.000000  0.000000 -0.000001  0.000004
                                -0.000011  0.000031 -0.000080  0.000210 -0.000529  0.000202  0.004763 -0.005783 -0.031418  0.047234
                                 0.066564  0.081859  0.049574 10.396463 -0.003831 -0.520020-10.847349 -0.000000  0.000000 -0.000001
                                 0.000006 -0.000020  0.000061 -0.000162  0.000390 -0.000857  0.002607 -0.007156  0.006763  0.048161
                                 0.092195  0.102659  0.476260 -0.676914  0.600766 -0.000000  0.000000  0.000000 -0.000000 -0.000001
                                 0.000000  0.000004 -0.000000 -0.000011  0.000000  0.000025 -0.000000 -0.000032  0.000000  0.000060
                                -0.000000 -0.001005 -0.000000 -0.001791 -0.000001 -0.002999 -0.000002  0.009874 -0.000000 -0.006942
                                -0.000001 -0.000010  0.000000  0.000051 -0.000000 -0.000277  0.000000 -0.004388  0.000000 -0.003269
                                 0.000000  0.000979 -0.000000 -0.000003  0.000000 -0.000000  0.000030 -0.000000  0.000000 -0.000174
                                 0.000000 -0.000000  0.000221  0.001907  0.006250  0.009841  0.007300 -0.026120  0.000117 -0.000058
                                -0.000088 -0.001360  0.001222 -0.000025  0.000064 -0.000000  0.000907  0.000000

   4.3   0     0.0531   -2.0985 -0.000000  0.000000 -0.000000  0.000000 -0.000000  0.000000 -0.000001  0.000004 -0.000014  0.000044
                                -0.000128  0.000351 -0.000934  0.002608 -0.008111  0.047847 -0.088984  0.071936 -0.031875  0.065085
                                -0.468191  0.755702 -0.689388 70.326069  0.526870 -0.912240-69.854379  0.000000 -0.000000  0.000001
                                -0.000003  0.000009 -0.000028  0.000077 -0.000199  0.000486 -0.002145  0.006901 -0.005154 -0.065645
                                -0.098424 -0.214062  0.582556 -1.287086  0.828384 -0.000000 -0.000000  0.000000  0.000000 -0.000002
                                -0.000000  0.000006  0.000000 -0.000015  0.000000  0.000044  0.000000 -0.000180 -0.000000  0.000520
                                 0.000000  0.001086  0.000000  0.008555  0.000000  0.015015  0.000001  0.045526 -0.000000  0.173474
                                 0.000002  0.000013 -0.000000 -0.000066  0.000000  0.000361 -0.000000  0.005561 -0.000000  0.005778
                                 0.000000  0.056034 -0.000001  0.000006 -0.000000  0.000000 -0.000060  0.000000 -0.000000  0.000331
                                -0.000000  0.000000  0.000656  0.005361  0.022386  0.029366  0.048115 -0.251297  0.001223 -0.000161
                                 0.000270  0.000280  0.003921 -0.000002 -0.000021 -0.000000 -0.000765 -0.000000

                                   1 3d2-    1 3d2-    1 3d2-    1 3d2-    1 3d2-    1 3d2-    1 3d2-    1 3d2-    1 3d2-    1 3d2-
                                   1 3d2-    1 3d2-    1 3d2-    1 3d2-    1 3d2-    1 3d2-    1 3d2-    1 3d2-    1 4f2-    1 4f2-
                                   1 4f2-    1 4f2-    1 4f2-    1 4f2-    1 4f2-    1 4f2-    1 4f2-    1 4f2-    1 4f2-    1 4f2-
                                   1 4f2-    1 5g2-    1 5g4-    1 5g2-    1 5g4-    1 5g2-    1 5g4-    1 5g2-    1 5g4-    1 5g2-
                                   1 5g4-    1 5g2-    1 5g4-    1 6h4-    1 6h2-    1 6h4-    1 6h2-    1 6h4-    1 6h2-    2 3d2-
                                   2 3d2-    2 3d2-    2 3d2-    2 4f2-    2 4f2-

   1.4   0     0.0340   -3.4740  0.000000 -0.000001  0.000004 -0.000016  0.000055 -0.000166  0.000440 -0.001054  0.002298 -0.006783
                                 0.018309 -0.017851 -0.116798 -0.250563 -0.175236 -1.350284  2.393388 -1.848388  0.000000 -0.000001
                                 0.000003 -0.000010  0.000029 -0.000057  0.000023  0.000114  0.002273  0.008479  0.060392 -0.025248
                                 0.162776  0.000015 -0.000000 -0.000079  0.000000  0.000439 -0.000000  0.007272 -0.000000  0.008440
                                -0.000000  0.003469  0.000000 -0.000000  0.000001  0.000000 -0.000020 -0.000000  0.000190 -0.000423
                                -0.002076 -0.002559 -0.000039  0.000089  0.000994

   2.4   0     0.0815   -2.7415 -0.000000  0.000000 -0.000001  0.000002 -0.000008  0.000023 -0.000054  0.000081  0.000006 -0.002506
                                 0.010653 -0.004809 -0.143232 -0.174338 -0.617068  3.549464 -7.363436  4.619675 -0.000001  0.000006
                                -0.000025  0.000082 -0.000225  0.000546 -0.001289  0.002922 -0.004908  0.025628 -0.049540  0.222085
                                -0.376463  0.000015 -0.000000 -0.000076  0.000000  0.000426 -0.000000  0.007642 -0.000000  0.005147
                                -0.000000  0.009580 -0.000001 -0.000000  0.000003  0.000000 -0.000040 -0.000000  0.000265 -0.000413
                                -0.000937 -0.003901 -0.000019  0.000330 -0.000442

 HOMO      5.1    -0.282998 =      -7.7008eV
 LUMO      3.2    -0.015449 =      -0.4204eV
 LUMO-HOMO         0.267550 =       7.2804eV

 No convergence



 **********************************************************************************************************************************
 DATASETS  * FILE   NREC   LENGTH (MB)   RECORD NAMES
              1      19       22.47       500      610      700      900      950      970     1000      129      960     1100
                                          VAR    BASINP    GEOM    SYMINP    ZMAT    AOBASIS   BASIS     P2S    ABASIS      S
                                         1400     1410     1420     1200     1210     1080     1600     1650     1700
                                           T        V       ECP      H0       H01     AOSYM     SMH    MOLCAS    OPER

              2       5        9.36       700     1000      520     2202     3202
                                         GEOM     BASIS   MCVARS     RHF      RHF

 PROGRAMS   *        TOTAL       RHF       RHF       INT
 CPU TIMES  *       204.60    107.82      9.69     85.27
 REAL TIME  *       226.07 SEC
 DISK USED  *         9.33 GB
 SF USED    *         0.24 MB
 GA USED    *         0.00 MB       (max)       0.00 MB       (current)
 **********************************************************************************************************************************
   -->
   <time start="05:36:51" end="05:38:46" cpu="107.83" system="6.46" real="114.38"/>
   <storage units="megabyte" memory="8001.84" sf="0.24" df="445.09" eaf="8885.86" ga="0.0"/>
  </jobstep><!--
 SETTING SCF            =       -55.42371601  AU
 SETTING _CC_NORM_MAX   =         2.00000000
  --><jobstep command="RCCSD(T)" commandset="CCSD">
   <!--


 PROGRAM * CCSD (Restricted open-shell coupled cluster)     Authors: C. Hampel, H.-J. Werner, 1991, M. Deegan, P.J. Knowles, 1992


 Convergence thresholds:  THRVAR = 1.00D-08  THRDEN = 1.00D-06

 CCSD(T)     terms to be evaluated (factor= 1.000)


 Number of closed-shell orbitals:   8 (   4   2   2   0 )
 Number of active  orbitals:        1 (   1   0   0   0 )
 Number of external orbitals:     442 ( 175 106 106  55 )

 Memory could be reduced to 357.68 Mwords without degradation in triples

 Number of N-1 electron functions:              17
 Number of N-2 electron functions:             136
 Number of singly external CSFs:              2432
 Number of doubly external CSFs:           5288016
 Total number of CSFs:                     5290448

 Molecular orbitals read from record     3202.2  Type=RHF/CANONICAL (state 1.1)

 ?Error: RHF not converged. This error exit can be avoided using the IGNORE_ERROR option on the ORBITAL directive
   --><error/><!--
  --></jobstep><!--
  -->
  <input>
  <!--
 --></job><!--
--></molpro>
