<?xml version="1.0"?>
<molpro xmlns="http://www.molpro.net/schema/molpro-output"
  xmlns:xsd="http://www.w3.org/1999/XMLSchema"
  xmlns:cml="http://www.xml-cml.org/schema"
  xmlns:stm="http://www.xml-cml.org/schema"
  xmlns:xhtml="http://www.w3.org/1999/xhtml">
 <!--

 Nodes     nprocs
 nid00855    11
 Number of processes for MPI-2 version of Molpro:   nprocs(total)=   12   nprocs(compute)=   11   nprocs(helper)=    1

 Using customized tuning parameters: mindgm=7; mindgv=16; mindgc=1; mindgr=1; noblas=0; minvec=7
 default implementation of scratch files=sf

 --><job>
  <!--

 Variables initialized (889), CPU time= 0.04 sec
 Commands  initialized (702), CPU time= 0.01 sec, 572 directives.
 Default parameters read. Elapsed time= 0.18 sec

 Checking input...
 Passed
1


                                         ***  PROGRAM SYSTEM MOLPRO  ***
                                       Copyright, TTI GmbH Stuttgart, 2015
                                    Version 2015.1 linked Dec 29 2018 15:55:43


 **********************************************************************************************************************************
 LABEL *   Calculation for Y atom, singlet and triplet
  64 bit mpp version                                                                     DATE: 22-Oct-22          TIME: 08:58:47
 **********************************************************************************************************************************

 SHA1:             19cd028119e0e09f93f0674bd8af7968d9b3eff6
 **********************************************************************************************************************************
  -->
  <!--

 THRESHOLDS:

 ZERO    =  1.00D-12  ONEINT  =  1.00D-12  TWOINT  =  1.00D-15  PREFAC  =  1.00D-14  LOCALI  =  1.00D-09  EORDER  =  1.00D-04
 ENERGY  =  0.00D+00  ETEST   =  0.00D+00  EDENS   =  0.00D+00  THRDEDEF=  1.00D-06  GRADIENT=  1.00D-02  STEP    =  1.00D-03
 ORBITAL =  1.00D-05  CIVEC   =  1.00D-05  COEFF   =  1.00D-04  PRINTCI =  5.00D-02  PUNCHCI =  9.90D+01  OPTGRAD =  3.00D-04
 OPTENERG=  1.00D-06  OPTSTEP =  3.00D-04  THRGRAD =  1.00D-10  COMPRESS=  1.00D-11  VARMIN  =  1.00D-07  VARMAX  =  1.00D-03
 THRDOUB =  0.00D+00  THRDIV  =  1.00D-05  THRRED  =  1.00D-07  THRPSP  =  1.00D+00  THRDC   =  1.00D-10  THRCS   =  1.00D-10
 THRNRM  =  1.00D-08  THREQ   =  0.00D+00  THRDE   =  1.00D+00  THRREF  =  1.00D-05  SPARFAC =  1.00D+00  THRDLP  =  1.00D-07
 THRDIA  =  1.00D-10  THRDLS  =  1.00D-07  THRGPS  =  0.00D+00  THRKEX  =  0.00D+00  THRDIS  =  2.00D-01  THRVAR  =  1.00D-10
 THRLOC  =  1.00D-06  THRGAP  =  1.00D-06  THRLOCT = -1.00D+00  THRGAPT = -1.00D+00  THRORB  =  1.00D-06  THRMLTP =  0.00D+00
 THRCPQCI=  1.00D-10  KEXTA   =  0.00D+00  THRCOARS=  0.00D+00  SYMTOL  =  1.00D-06  GRADTOL =  1.00D-06  THROVL  =  1.00D-08
 THRORTH =  1.00D-08  GRID    =  1.00D-06  GRIDMAX =  1.00D-03  DTMAX   =  0.00D+00  THROCCDE=  1.00D-01  THROCCDE=  1.00D-01



 THRESHOLDS:

 ZERO    =  1.00D-12  ONEINT  =  1.00D-12  TWOINT  =  1.00D-15  PREFAC  =  1.00D-14  LOCALI  =  1.00D-09  EORDER  =  1.00D-04
 ENERGY  =  0.00D+00  ETEST   =  0.00D+00  EDENS   =  0.00D+00  THRDEDEF=  1.00D-06  GRADIENT=  1.00D-02  STEP    =  1.00D-03
 ORBITAL =  1.00D-05  CIVEC   =  1.00D-05  COEFF   =  1.00D-04  PRINTCI =  5.00D-02  PUNCHCI =  9.90D+01  OPTGRAD =  3.00D-04
 OPTENERG=  1.00D-06  OPTSTEP =  3.00D-04  THRGRAD =  1.00D-10  COMPRESS=  1.00D-11  VARMIN  =  1.00D-07  VARMAX  =  1.00D-03
 THRDOUB =  0.00D+00  THRDIV  =  1.00D-05  THRRED  =  1.00D-07  THRPSP  =  1.00D+00  THRDC   =  1.00D-10  THRCS   =  1.00D-10
 THRNRM  =  1.00D-08  THREQ   =  0.00D+00  THRDE   =  1.00D+00  THRREF  =  1.00D-05  SPARFAC =  1.00D+00  THRDLP  =  1.00D-07
 THRDIA  =  1.00D-10  THRDLS  =  1.00D-07  THRGPS  =  0.00D+00  THRKEX  =  0.00D+00  THRDIS  =  2.00D-01  THRVAR  =  1.00D-10
 THRLOC  =  1.00D-06  THRGAP  =  1.00D-06  THRLOCT = -1.00D+00  THRGAPT = -1.00D+00  THRORB  =  1.00D-06  THRMLTP =  0.00D+00
 THRCPQCI=  1.00D-10  KEXTA   =  0.00D+00  THRCOARS=  0.00D+00  SYMTOL  =  1.00D-06  GRADTOL =  1.00D-06  THROVL  =  1.00D-15
 THRORTH =  1.00D-08  GRID    =  1.00D-06  GRIDMAX =  1.00D-03  DTMAX   =  0.00D+00  THROCCDE=  1.00D-01  THROCCDE=  1.00D-01



 Variable memory set to 1000000000 words,  buffer space   230000 words

 SETTING BASIS          =    USERDEF
 SETTING TA_CCSD        =       -57.48166149
 SETTING O_CCSD         =       -15.86622096
 SETTING NE             =        19.00000000
 SETTING SYMM           =         1.00000000
 SETTING SS             =         1.00000000
 SETTING A1             =         5.00000000
 SETTING B1             =         2.00000000
 SETTING B2             =         2.00000000
 SETTING A2             =         1.00000000

Geometry recognized as XYZ

  --><jobstep command="RHF-SCF" commandset="SCFPRO">
   <!--


 Recomputing integrals since basis changed


 Using spherical harmonics



 PROGRAM * SEWARD (Integral evaluation for generally contracted gaussian basis sets)     Author: Roland Lindh, 1990

 Geometry written to block  1 of record 700


 Point group  C2v


   --><cml:molecule>
    <cml:symmetry pointGroup="C2v"/>
    <cml:atomArray>
     <cml:atom id="a1" elementType="Ta" x3="0.0" y3="0.0" z3="0.0"/>
     <cml:atom id="a2" elementType="O" x3="0.0" y3="0.0" z3="2.5"/>
    </cml:atomArray>
    <cml:bondArray>
     <cml:bond atomRefs2="a1 a2"/>
    </cml:bondArray>
   </cml:molecule><!--

 ATOMIC COORDINATES

 NR  ATOM    CHARGE       X              Y              Z

   1  TA     13.00    0.000000000    0.000000000    0.000000000
   2  O       6.00    0.000000000    0.000000000    4.724315311

 Bond lengths in Bohr (Angstrom)

 1-2  4.724315311
     ( 2.500000000)

 NUCLEAR CHARGE:                   19
 NUMBER OF PRIMITIVE AOS:         536
 NUMBER OF SYMMETRY AOS:          441
 NUMBER OF CONTRACTIONS:          441   ( 182A1  + 105B1  + 105B2  +  49A2  )
 NUMBER OF CORE ORBITALS:           4   (   2A1  +   1B1  +   1B2  +   0A2  )
 NUMBER OF VALENCE ORBITALS:       10   (   5A1  +   2B1  +   2B2  +   1A2  )


 NUCLEAR REPULSION ENERGY   16.51032898

 EXTRA SYMMETRY OF AOS IN SYMMETRY 1:   1 1 1 1 1 1 1 1 1 1   1 1 1 1 1 1 1 1 1 1   1 1 1 1 1 1 1 1 1 1   1 1 1 1 1 1 1 1 1 1
                                        1 1 1 1 1 1 1 1 1 1   1 1 1 1 1 1 1 1 1 1   1 1 1 1 1 1 1 2 1 2   1 2 1 2 1 2 1 2 1 2
                                        1 2 1 2 1 2 1 2 1 2   1 2 1 2 1 2 1 2 1 2   1 2 1 2 1 2 1 2 1 2   1 2 1 2 1 2 1 2 1 2
                                        1 2 1 2 1 2 1 2 1 2   1 2 1 2 1 2 1 2 1 2   1 3 2 1 3 2 1 3 2 1   1 1 1 1 1 1 1 1 1 1
                                        1 1 1 1 1 1 1 1 1 1   1 2 1 2 1 2 1 2 1 2   1 2
 EXTRA SYMMETRY OF AOS IN SYMMETRY 2:   1 1 1 1 1 1 1 1 1 1   1 1 1 1 1 1 1 1 1 1   1 1 1 1 1 1 1 1 1 1   1 1 1 1 1 1 1 1 1 1
                                        1 1 1 1 1 1 1 1 1 1   1 1 1 1 2 1 2 1 2 1   2 1 2 1 2 1 2 1 2 1   2 1 2 1 2 1 2 1 2 1
                                        2 1 2 1 2 1 2 1 2 1   1 1 1 1 1 1 1 1 1 1   1 1 2 1 2
 EXTRA SYMMETRY OF AOS IN SYMMETRY 3:   1 1 1 1 1 1 1 1 1 1   1 1 1 1 1 1 1 1 1 1   1 1 1 1 1 1 1 1 1 1   1 1 1 1 1 1 1 1 1 1
                                        1 1 1 1 1 1 1 1 1 1   1 1 1 1 2 1 2 1 2 1   2 1 2 1 2 1 2 1 2 1   2 1 2 1 2 1 2 1 2 1
                                        2 1 2 1 2 1 2 1 2 1   1 1 1 1 1 1 1 1 1 1   1 1 2 1 2
 EXTRA SYMMETRY OF AOS IN SYMMETRY 4:   1 1 1 1 1 1 1 1 1 1   1 1 1 1 1 1 1 1 1 1   1 1 1 1 1 1 1 1 1 1   1 1 1 1 1 1 1 1 2 1
                                        2 1 2 1 1 1 1 1 1

 Eigenvalues of metric

         1 0.413E-06 0.676E-06 0.107E-04 0.133E-04 0.139E-04 0.220E-04 0.455E-04 0.706E-04
         2 0.467E-06 0.113E-04 0.138E-04 0.967E-04 0.100E-03 0.132E-03 0.141E-03 0.442E-03
         3 0.467E-06 0.113E-04 0.138E-04 0.967E-04 0.100E-03 0.132E-03 0.141E-03 0.442E-03
         4 0.139E-04 0.100E-03 0.143E-03 0.607E-03 0.146E-02 0.227E-02 0.654E-02 0.734E-02


 Contracted 2-electron integrals neglected if value below      1.0D-15
 AO integral compression algorithm  1   Integral accuracy      1.0D-15

     3783.262 MB (compressed) written to integral file ( 33.8%)

     Node minimum: 188.482 MB, node maximum: 765.460 MB


 NUMBER OF SORTED TWO-ELECTRON INTEGRALS:  110583552.     BUFFER LENGTH:  32768
 NUMBER OF SEGMENTS:   4  SEGMENT LENGTH:   31981665      RECORD LENGTH: 524288

 Memory used in sort:      32.54 MW

 SORT1 READ  1401473000. AND WROTE    37552369. INTEGRALS IN    110 RECORDS. CPU TIME:    21.89 SEC, REAL TIME:    29.43 SEC
 SORT2 READ   413876460. AND WROTE  1216411966. INTEGRALS IN   7909 RECORDS. CPU TIME:     1.84 SEC, REAL TIME:     3.85 SEC

 Node minimum:   110449701.  Node maximum:   110660215. integrals

 OPERATOR DM      FOR CENTER  0  COORDINATES:    0.000000    0.000000    0.000000


 **********************************************************************************************************************************
 DATASETS  * FILE   NREC   LENGTH (MB)   RECORD NAMES
              1      19       22.35       500      610      700      900      950      970     1000      129      960     1100
                                          VAR    BASINP    GEOM    SYMINP    ZMAT    AOBASIS   BASIS     P2S    ABASIS      S
                                         1400     1410     1420     1200     1210     1080     1600     1650     1700
                                           T        V       ECP      H0       H01     AOSYM     SMH    MOLCAS    OPER

 PROGRAMS   *        TOTAL       INT
 CPU TIMES  *       160.67    160.26
 REAL TIME  *       171.98 SEC
 DISK USED  *         8.82 GB
 GA USED    *         0.00 MB       (max)       0.00 MB       (current)
 **********************************************************************************************************************************


 PROGRAM * RHF-SCF (OPEN SHELL)       Authors: W. Meyer, H.-J. Werner


 NUMBER OF ELECTRONS:      10+    9-    SPACE SYMMETRY=1    SPIN SYMMETRY: Doublet
 CONVERGENCE THRESHOLDS:    1.00E-05 (Density)    1.00E-07 (Energy)
 MAX. NUMBER OF ITERATIONS:      200
 INTERPOLATION TYPE:            DIIS
 INTERPOLATION STEPS:              2 (START)      1 (STEP)
 LEVEL SHIFTS:                 -0.60 (CLOSED) -0.30 (OPEN)

 Number of closed-shell orbitals:    9 (   4   2   2   1 )
 Number of open-shell orbitals:      1 (   1   0   0   0 )


 Orbital guess generated from atomic densities. Full valence occupancy:    7   3   3   1

 Molecular orbital dump at record        2100.2

 ITERATION    DDIFF          GRAD             ENERGY        2-EL.EN.            DIPOLE MOMENTS         DIIS   ORB.
    1      0.000D+00      0.000D+00       -72.15800949    131.764756    0.00000    0.00000   -8.17709    0    start
    2      0.000D+00      0.152D-01       -72.51809305    129.428622    0.00000    0.00000   -3.04989    1    diag,B
    3      0.217D-01      0.101D-01       -72.61019063    130.750469    0.00000    0.00000   -4.12039    2    diag,B
    4      0.681D-02      0.195D-02       -72.62266643    131.123457    0.00000    0.00000   -3.63135    3    diag,B
    5      0.415D-02      0.998D-03       -72.62805548    131.245672    0.00000    0.00000   -3.41720    4    diag,B
    6      0.218D-02      0.628D-03       -72.63325921    131.201964    0.00000    0.00000   -3.14973    5    diag,B
    7      0.149D-02      0.535D-03       -72.63916713    131.043799    0.00000    0.00000   -2.86900    6    diag,B
    8      0.144D-02      0.525D-03       -72.64185835    130.957253    0.00000    0.00000   -2.76357    7    diag,B
    9      0.560D-03      0.531D-03       -72.63831203    131.114379    0.00000    0.00000   -2.89910    8    diag,B
   10      0.889D-03      0.477D-03       -72.63546527    131.474397    0.00000    0.00000   -3.02239    9    orth
   11      0.279D-02      0.342D-03       -72.63517367    131.674964    0.00000    0.00000   -3.02365    9    diag,B
   12      0.117D-02      0.290D-03       -72.63506152    131.869215    0.00000    0.00000   -3.08716    9    diag,B
   13      0.977D-03      0.218D-03       -72.63489449    132.126201    0.00000    0.00000   -3.09484    9    diag,B
   14      0.120D-02      0.250D-03       -72.63474173    132.164880    0.00000    0.00000   -3.10970    9    diag,B
   15      0.290D-03      0.264D-03       -72.63509970    132.088781    0.00000    0.00000   -3.08791    9    diag,B
   16      0.487D-03      0.215D-03       -72.63568431    132.055871    0.00000    0.00000   -3.01933    9    diag,B
   17      0.411D-03      0.181D-03       -72.63630332    131.990971    0.00000    0.00000   -2.94471    9    diag,B
   18      0.405D-03      0.152D-03       -72.63665462    131.939460    0.00000    0.00000   -2.89226    9    diag,B
   19      0.413D-03      0.137D-03       -72.63735248    131.794032    0.00000    0.00000   -2.76912    9    fixocc
   20      0.896D-03      0.119D-03       -72.63841586    131.571188    0.00000    0.00000   -2.60358    9    orth
   21      0.114D-02      0.147D-03       -72.63853292    131.550344    0.00000    0.00000   -2.59175    9    diag,B
   22      0.910D-04      0.153D-03       -72.63806068    131.652714    0.00000    0.00000   -2.65560    9    diag,B
   23      0.382D-03      0.120D-03       -72.63783955    131.732985    0.00000    0.00000   -2.68562    9    diag,B
   24      0.557D-03      0.999D-04       -72.63694001    132.114675    0.00000    0.00000   -2.88280    9    diag,B
   25      0.193D-02      0.839D-04       -72.63690926    132.116313    0.00000    0.00000   -2.88614    9    diag,B
   26      0.173D-03      0.834D-04       -72.63646683    132.223879    0.00000    0.00000   -2.91301    9    diag,B
   27      0.693D-03      0.127D-03       -72.63714015    132.059524    0.00000    0.00000   -2.85375    9    diag,B
   28      0.937D-03      0.648D-04       -72.63693538    132.146353    0.00000    0.00000   -2.87092    9    diag,B
   29      0.416D-03      0.875D-04       -72.63724103    132.055657    0.00000    0.00000   -2.82135    9    diag,B
   30      0.420D-03      0.671D-04       -72.63739703    131.997092    0.00000    0.00000   -2.78698    9    orth
   31      0.324D-03      0.533D-04       -72.63744001    131.978711    0.00000    0.00000   -2.77424    9    diag,B
   32      0.983D-04      0.487D-04       -72.63777275    131.826637    0.00000    0.00000   -2.68682    9    diag,B
   33      0.736D-03      0.553D-04       -72.63766947    131.871703    0.00000    0.00000   -2.71032    9    diag,B
   34      0.215D-03      0.527D-04       -72.63765975    131.876094    0.00000    0.00000   -2.71128    9    diag,B
   35      0.453D-04      0.537D-04       -72.63762228    131.893048    0.00000    0.00000   -2.72157    9    diag,B
   36      0.126D-03      0.529D-04       -72.63756509    131.919618    0.00000    0.00000   -2.73174    9    diag,B
   37      0.111D-03      0.485D-04       -72.63749139    131.954859    0.00000    0.00000   -2.75181    9    diag,B
   38      0.227D-03      0.450D-04       -72.63621979    132.282700    0.00000    0.00000   -2.89624    9    diag,B
   39      0.181D-02      0.137D-03       -72.63767859    131.869471    0.00000    0.00000   -2.70893    9    diag,B
   40      0.218D-02      0.477D-04       -72.63778254    131.824162    0.00000    0.00000   -2.68291    9    orth
   41      0.226D-03      0.527D-04       -72.63684660    132.172297    0.00000    0.00000   -2.85549    9    diag,B
   42      0.167D-02      0.815D-04       -72.63783918    131.801231    0.00000    0.00000   -2.66828    9    diag,B
   43      0.184D-02      0.569D-04       -72.63754846    131.928570    0.00000    0.00000   -2.74236    9    diag,B
   44      0.464D-03      0.493D-04       -72.63629404    132.269188    0.00000    0.00000   -2.89578    9    diag,B
   45      0.208D-02      0.149D-03       -72.63788734    131.782757    0.00000    0.00000   -2.65793    9    diag,B
   46      0.257D-02      0.592D-04       -72.63764945    131.881778    0.00000    0.00000   -2.71440    9    diag,B
   47      0.493D-03      0.490D-04       -72.63651195    132.235256    0.00000    0.00000   -2.88152    9    diag,B
   48      0.184D-02      0.129D-03       -72.63786761    131.789787    0.00000    0.00000   -2.66077    9    diag,B
   49      0.236D-02      0.581D-04       -72.63746591    131.965927    0.00000    0.00000   -2.75870    9    diag,B
   50      0.983D-03      0.512D-04       -72.63642059    132.248928    0.00000    0.00000   -2.88287    9    orth
   51      0.152D-02      0.143D-03       -72.63777892    131.824886    0.00000    0.00000   -2.67868    9    diag,B
   52      0.223D-02      0.540D-04       -72.63768553    131.865338    0.00000    0.00000   -2.70359    9    diag,B
   53      0.224D-03      0.506D-04       -72.63716931    132.083351    0.00000    0.00000   -2.82654    9    diag,B
   54      0.102D-02      0.603D-04       -72.63780114    131.812352    0.00000    0.00000   -2.66202    9    diag,B
   55      0.126D-02      0.539D-04       -72.63756736    131.919018    0.00000    0.00000   -2.73097    9    diag,B
   56      0.485D-03      0.536D-04       -72.63706112    132.115903    0.00000    0.00000   -2.84613    9    diag,B
   57      0.949D-03      0.671D-04       -72.63781751    131.804438    0.00000    0.00000   -2.65275    9    diag,B
   58      0.149D-02      0.577D-04       -72.63755833    131.922761    0.00000    0.00000   -2.73157    9    diag,B
   59      0.536D-03      0.560D-04       -72.63715458    132.086763    0.00000    0.00000   -2.83680    9    diag,B
   60      0.863D-03      0.577D-04       -72.63771842    131.844815    0.00000    0.00000   -2.68085    9    orth
   61      0.115D-02      0.471D-04       -72.63739563    131.997142    0.00000    0.00000   -2.76404    9    diag,B
   62      0.575D-03      0.503D-04       -72.63740730    131.992124    0.00000    0.00000   -2.78599    9    diag,B
   63      0.168D-03      0.397D-04       -72.63745576    131.968463    0.00000    0.00000   -2.78314    9    diag,B
   64      0.133D-03      0.382D-04       -72.63723730    132.058188    0.00000    0.00000   -2.82818    9    diag,B
   65      0.382D-03      0.476D-04       -72.63772749    131.845348    0.00000    0.00000   -2.69864    9    diag,B
   66      0.959D-03      0.486D-04       -72.63722454    132.063950    0.00000    0.00000   -2.81192    9    diag,B
   67      0.102D-02      0.656D-04       -72.63773068    131.844592    0.00000    0.00000   -2.69245    9    diag,B
   68      0.112D-02      0.516D-04       -72.63799461    131.743185    0.00000    0.00000   -2.63245    9    diag,B
   69      0.384D-03      0.675D-04       -72.63732185    132.025826    0.00000    0.00000   -2.78250    9    diag,B
   70      0.136D-02      0.635D-04       -72.63702302    132.125558    0.00000    0.00000   -2.83133    9    orth
   71      0.464D-03      0.878D-04       -72.63774866    131.836617    0.00000    0.00000   -2.68393    9    diag,B
   72      0.144D-02      0.534D-04       -72.63842752    131.625824    0.00000    0.00000   -2.55529    9    diag,B
   73      0.964D-03      0.102D-03       -72.63758946    131.905203    0.00000    0.00000   -2.71854    9    diag,B
   74      0.141D-02      0.557D-04       -72.63732816    132.019987    0.00000    0.00000   -2.77637    9    diag,B
   75      0.557D-03      0.661D-04       -72.63800502    131.738461    0.00000    0.00000   -2.62726    9    diag,B
   76      0.142D-02      0.668D-04       -72.63695220    132.142936    0.00000    0.00000   -2.84211    9    diag,B
   77      0.207D-02      0.956D-04       -72.63759801    131.905097    0.00000    0.00000   -2.72841    9    diag,B
   78      0.128D-02      0.509D-04       -72.63819989    131.682980    0.00000    0.00000   -2.59542    9    diag,B
   79      0.104D-02      0.833D-04       -72.63737339    132.004038    0.00000    0.00000   -2.77470    9    diag,B
   80      0.158D-02      0.601D-04       -72.63724372    132.053818    0.00000    0.00000   -2.79666    9    orth
   81      0.194D-03      0.700D-04       -72.63782158    131.805498    0.00000    0.00000   -2.67227    9    diag,B
   82      0.123D-02      0.539D-04       -72.63739374    131.996501    0.00000    0.00000   -2.77642    9    diag,B
   83      0.930D-03      0.543D-04       -72.63753182    131.935454    0.00000    0.00000   -2.74640    9    diag,B
   84      0.264D-03      0.478D-04       -72.63787645    131.784717    0.00000    0.00000   -2.66156    9    diag,B
   85      0.636D-03      0.575D-04       -72.63749999    131.950187    0.00000    0.00000   -2.75053    9    diag,B
   86      0.720D-03      0.511D-04       -72.63747820    131.959330    0.00000    0.00000   -2.75917    9    diag,B
   87      0.862D-04      0.480D-04       -72.63774160    131.837414    0.00000    0.00000   -2.69320    9    diag,B
   88      0.467D-03      0.505D-04       -72.63767886    131.865167    0.00000    0.00000   -2.70873    9    diag,B
   89      0.224D-03      0.469D-04       -72.63784598    131.795060    0.00000    0.00000   -2.66852    9    diag,B
   90      0.400D-03      0.542D-04       -72.63721760    132.064771    0.00000    0.00000   -2.80942    9    orth
   91      0.137D-02      0.666D-04       -72.63765509    131.877274    0.00000    0.00000   -2.71132    9    diag,B
   92      0.954D-03      0.505D-04       -72.63880729    131.548664    0.00000    0.00000   -2.50330    9    diag,B
   93      0.152D-02      0.133D-03       -72.63753504    131.929264    0.00000    0.00000   -2.73095    9    diag,B
   94      0.162D-02      0.592D-04       -72.63757769    131.909252    0.00000    0.00000   -2.71981    9    diag,B
   95      0.240D-03      0.584D-04       -72.63768860    131.860329    0.00000    0.00000   -2.70126    9    diag,B
   96      0.289D-03      0.491D-04       -72.63772914    131.843498    0.00000    0.00000   -2.69758    9    diag,B
   97      0.112D-03      0.489D-04       -72.63782412    131.803909    0.00000    0.00000   -2.67408    9    diag,B
   98      0.245D-03      0.528D-04       -72.63727655    132.042816    0.00000    0.00000   -2.79760    9    diag,B
   99      0.126D-02      0.606D-04       -72.63782245    131.804772    0.00000    0.00000   -2.66946    9    diag,B
  100      0.117D-02      0.576D-04       -72.63796935    131.750142    0.00000    0.00000   -2.63482    9    orth
  101      0.247D-03      0.691D-04       -72.63748217    131.956084    0.00000    0.00000   -2.75180    9    diag,B
  102      0.884D-03      0.525D-04       -72.63763194    131.886526    0.00000    0.00000   -2.71645    9    diag,B
  103      0.309D-03      0.491D-04       -72.63776999    131.825831    0.00000    0.00000   -2.68490    9    diag,B
  104      0.288D-03      0.504D-04       -72.63734634    132.015002    0.00000    0.00000   -2.78654    9    diag,B
  105      0.862D-03      0.568D-04       -72.63750321    131.946958    0.00000    0.00000   -2.75433    9    diag,B
  106      0.247D-03      0.482D-04       -72.63767935    131.865598    0.00000    0.00000   -2.71175    9    diag,B
  107      0.350D-03      0.478D-04       -72.63760953    131.897482    0.00000    0.00000   -2.72924    9    diag,B
  108      0.216D-03      0.453D-04       -72.63796205    131.752152    0.00000    0.00000   -2.63770    9    diag,B
  109      0.732D-03      0.639D-04       -72.63741751    131.984236    0.00000    0.00000   -2.76621    9    diag,B
  110      0.115D-02      0.576D-04       -72.63753524    131.931151    0.00000    0.00000   -2.73826    9    orth
  111      0.251D-03      0.537D-04       -72.63784423    131.796036    0.00000    0.00000   -2.66776    9    diag,B
  112      0.684D-03      0.560D-04       -72.63718558    132.073982    0.00000    0.00000   -2.80634    9    diag,B
  113      0.143D-02      0.710D-04       -72.63806231    131.719748    0.00000    0.00000   -2.61371    9    diag,B
  114      0.179D-02      0.756D-04       -72.63778114    131.820319    0.00000    0.00000   -2.67190    9    diag,B
  115      0.459D-03      0.589D-04       -72.63750967    131.941440    0.00000    0.00000   -2.73567    9    diag,B
  116      0.552D-03      0.559D-04       -72.63772735    131.843819    0.00000    0.00000   -2.69140    9    diag,B
  117      0.395D-03      0.535D-04       -72.63793457    131.761370    0.00000    0.00000   -2.64420    9    diag,B
  118      0.589D-03      0.634D-04       -72.63747391    131.959650    0.00000    0.00000   -2.75272    9    diag,B
  119      0.996D-03      0.538D-04       -72.63732634    132.022939    0.00000    0.00000   -2.78463    9    diag,B
  120      0.257D-03      0.606D-04       -72.63736448    132.007798    0.00000    0.00000   -2.78145    9    orth
  121      0.992D-04      0.533D-04       -72.63829696    131.653938    0.00000    0.00000   -2.57933    9    diag,B
  122      0.166D-02      0.908D-04       -72.63763513    131.884151    0.00000    0.00000   -2.70653    9    diag,B
  123      0.105D-02      0.537D-04       -72.63738652    131.995721    0.00000    0.00000   -2.76113    9    diag,B
  124      0.512D-03      0.585D-04       -72.63803807    131.726923    0.00000    0.00000   -2.62429    9    diag,B
  125      0.132D-02      0.689D-04       -72.63721413    132.063039    0.00000    0.00000   -2.79673    9    diag,B
  126      0.169D-02      0.701D-04       -72.63759887    131.901977    0.00000    0.00000   -2.72137    9    diag,B
  127      0.781D-03      0.527D-04       -72.63858439    131.590604    0.00000    0.00000   -2.53889    9    diag,B
  128      0.144D-02      0.115D-03       -72.63747786    131.955273    0.00000    0.00000   -2.74071    9    diag,B
  129      0.171D-02      0.570D-04       -72.63743141    131.975632    0.00000    0.00000   -2.74894    9    diag,B
  130      0.888D-04      0.580D-04       -72.63773754    131.838583    0.00000    0.00000   -2.68670    9    orth
  131      0.522D-03      0.512D-04       -72.63773320    131.840666    0.00000    0.00000   -2.69086    9    diag,B
  132      0.305D-03      0.508D-04       -72.63790779    131.771767    0.00000    0.00000   -2.65577    9    diag,B
  133      0.338D-03      0.611D-04       -72.63748966    131.951687    0.00000    0.00000   -2.74172    9    diag,B
  134      0.818D-03      0.503D-04       -72.63737366    132.002210    0.00000    0.00000   -2.76557    9    diag,B
  135      0.294D-03      0.553D-04       -72.63773958    131.837784    0.00000    0.00000   -2.68320    9    diag,B
  136      0.828D-03      0.513D-04       -72.63791048    131.770205    0.00000    0.00000   -2.64565    9    diag,B
  137      0.314D-03      0.594D-04       -72.63757283    131.913612    0.00000    0.00000   -2.72379    9    diag,B
  138      0.710D-03      0.494D-04       -72.63728372    132.038334    0.00000    0.00000   -2.79122    9    diag,B
  139      0.615D-03      0.631D-04       -72.63806843    131.716835    0.00000    0.00000   -2.60616    9    diag,B
  140      0.156D-02      0.731D-04       -72.63767486    131.866460    0.00000    0.00000   -2.70893    9    orth
  141      0.641D-03      0.548D-04       -72.63764192    131.881417    0.00000    0.00000   -2.71651    9    diag,B
  142      0.200D-03      0.535D-04       -72.63800222    131.738666    0.00000    0.00000   -2.63470    9    diag,B
  143      0.664D-03      0.675D-04       -72.63749695    131.948309    0.00000    0.00000   -2.73820    9    diag,B
  144      0.101D-02      0.517D-04       -72.63732103    132.023159    0.00000    0.00000   -2.77334    9    diag,B
  145      0.361D-03      0.597D-04       -72.63796033    131.752552    0.00000    0.00000   -2.62932    9    diag,B
  146      0.132D-02      0.652D-04       -72.63742734    131.979765    0.00000    0.00000   -2.76099    9    diag,B
  147      0.105D-02      0.536D-04       -72.63766950    131.869510    0.00000    0.00000   -2.70821    9    diag,B
  148      0.425D-03      0.528D-04       -72.63781755    131.805677    0.00000    0.00000   -2.66714    9    diag,B
  149      0.512D-03      0.553D-04       -72.63777104    131.825016    0.00000    0.00000   -2.68733    9    diag,B
  150      0.317D-03      0.565D-04       -72.63768802    131.861125    0.00000    0.00000   -2.70733    9    orth
  151      0.254D-03      0.513D-04       -72.63791699    131.767887    0.00000    0.00000   -2.63980    9    diag,B
  152      0.544D-03      0.610D-04       -72.63764823    131.879291    0.00000    0.00000   -2.71099    9    diag,B
  153      0.541D-03      0.520D-04       -72.63771544    131.848807    0.00000    0.00000   -2.70260    9    diag,B
  154      0.159D-03      0.535D-04       -72.63795445    131.754526    0.00000    0.00000   -2.63413    9    diag,B
  155      0.432D-03      0.642D-04       -72.63756141    131.919440    0.00000    0.00000   -2.73022    9    diag,B
  156      0.687D-03      0.510D-04       -72.63764725    131.879756    0.00000    0.00000   -2.71577    9    diag,B
  157      0.145D-03      0.507D-04       -72.63790957    131.770909    0.00000    0.00000   -2.64871    9    diag,B
  158      0.503D-03      0.606D-04       -72.63752438    131.936206    0.00000    0.00000   -2.74327    9    diag,B
  159      0.679D-03      0.532D-04       -72.63749705    131.948816    0.00000    0.00000   -2.75043    9    diag,B
  160      0.298D-03      0.531D-04       -72.63762718    131.888476    0.00000    0.00000   -2.72191    9    orth
  161      0.321D-03      0.493D-04       -72.63768818    131.861133    0.00000    0.00000   -2.70817    9    diag,B
  162      0.152D-03      0.494D-04       -72.63776408    131.828511    0.00000    0.00000   -2.68062    9    diag,B
  163      0.148D-03      0.522D-04       -72.63788931    131.778284    0.00000    0.00000   -2.65369    9    diag,B
  164      0.224D-03      0.604D-04       -72.63775819    131.830372    0.00000    0.00000   -2.68827    9    diag,B
  165      0.229D-03      0.533D-04       -72.63758129    131.910235    0.00000    0.00000   -2.72521    9    diag,B
  166      0.352D-03      0.492D-04       -72.63768915    131.861048    0.00000    0.00000   -2.69793    9    diag,B
  167      0.225D-03      0.492D-04       -72.63806559    131.718612    0.00000    0.00000   -2.61390    9    diag,B
  168      0.698D-03      0.705D-04       -72.63755441    131.921865    0.00000    0.00000   -2.72700    9    diag,B
  169      0.107D-02      0.518D-04       -72.63729945    132.032102    0.00000    0.00000   -2.78564    9    diag,B
  170      0.444D-03      0.648D-04       -72.63753969    131.928396    0.00000    0.00000   -2.73243    9    orth
  171      0.471D-03      0.474D-04       -72.63761797    131.891370    0.00000    0.00000   -2.70638    9    diag,B
  172      0.201D-03      0.465D-04       -72.63758280    131.908578    0.00000    0.00000   -2.71905    9    diag,B
  173      0.120D-03      0.459D-04       -72.63688166    132.161330    0.00000    0.00000   -2.86021    9    diag,B
  174      0.127D-02      0.755D-04       -72.63800310    131.738618    0.00000    0.00000   -2.61742    9    diag,B
  175      0.210D-02      0.689D-04       -72.63790279    131.773244    0.00000    0.00000   -2.63785    9    diag,B
  176      0.132D-03      0.630D-04       -72.63699222    132.131187    0.00000    0.00000   -2.83032    9    diag,B
  177      0.202D-02      0.803D-04       -72.63817886    131.686408    0.00000    0.00000   -2.58517    9    diag,B
  178      0.238D-02      0.821D-04       -72.63792842    131.764460    0.00000    0.00000   -2.63286    9    diag,B
  179      0.492D-03      0.635D-04       -72.63715099    132.084612    0.00000    0.00000   -2.80879    9    diag,B
  180      0.155D-02      0.683D-04       -72.63796263    131.752153    0.00000    0.00000   -2.62314    9    orth
  181      0.172D-02      0.652D-04       -72.63788534    131.779825    0.00000    0.00000   -2.63997    9    diag,B
  182      0.110D-03      0.618D-04       -72.63681709    132.173824    0.00000    0.00000   -2.85031    9    diag,B
  183      0.210D-02      0.975D-04       -72.63806283    131.719965    0.00000    0.00000   -2.60393    9    diag,B
  184      0.228D-02      0.727D-04       -72.63795608    131.754656    0.00000    0.00000   -2.62521    9    diag,B
  185      0.195D-03      0.655D-04       -72.63693501    132.146468    0.00000    0.00000   -2.84009    9    diag,B
  186      0.189D-02      0.846D-04       -72.63793545    131.762097    0.00000    0.00000   -2.63066    9    diag,B
  187      0.191D-02      0.634D-04       -72.63803940    131.727581    0.00000    0.00000   -2.60990    9    diag,B
  188      0.133D-03      0.712D-04       -72.63690127    132.154612    0.00000    0.00000   -2.84388    9    diag,B
  189      0.207D-02      0.867D-04       -72.63793248    131.763484    0.00000    0.00000   -2.63281    9    diag,B
  190      0.195D-02      0.628D-04       -72.63800397    131.739228    0.00000    0.00000   -2.61816    9    orth
  191      0.188D-03      0.685D-04       -72.63689133    132.157389    0.00000    0.00000   -2.84581    9    diag,B
  192      0.213D-02      0.852D-04       -72.63805866    131.721679    0.00000    0.00000   -2.60706    9    diag,B
  193      0.217D-02      0.718D-04       -72.63785877    131.790172    0.00000    0.00000   -2.64709    9    diag,B
  194      0.357D-03      0.588D-04       -72.63701127    132.123187    0.00000    0.00000   -2.81535    9    diag,B
  195      0.155D-02      0.842D-04       -72.63784518    131.797528    0.00000    0.00000   -2.66294    9    diag,B
  196      0.163D-02      0.504D-04       -72.63748311    131.956369    0.00000    0.00000   -2.74406    9    diag,B
  197      0.873D-03      0.444D-04       -72.63550910    132.356492    0.00000    0.00000   -2.90984    9    diag,B
  198      0.228D-02      0.205D-03       -72.63779395    131.818186    0.00000    0.00000   -2.66771    9    diag,B
  199      0.296D-02      0.513D-04       -72.63742913    131.983713    0.00000    0.00000   -2.75623    9    orth
  200      0.784D-03      0.472D-04       -72.63746335    131.962237    0.00000    0.00000   -2.75463    0    orth

 Final alpha occupancy:   5   2   2   1
 Final beta  occupancy:   4   2   2   1

 !RHF STATE 1.1 Energy                -72.637463354825
   --><property name="Energy" method="RHF" principal="true" stateSymmetry="1" stateNumber="1"
     value="-72.6374633548246"/><!--
 Nuclear energy                        16.51032898
 One-electron energy                 -155.12891083
 Two-electron energy                   65.98111849
 Virial quotient                       -2.46431413
 !RHF STATE 1.1 Dipole moment           0.00000000     0.00000000    -2.75462781
 Dipole moment /Debye                   0.00000000     0.00000000    -7.00110696
   --><property name="Dipole moment" method="RHF" principal="true" stateSymmetry="1"
     stateNumber="1" value="0.0 0.0 -2.7546278135149"/><!--

 ELECTRON ORBITALS
 =================


   Orb  Occ    Energy  Couls-En    Coefficients

                                   1 1s      1 1s      1 1s      1 1s      1 1s      1 1s      1 1s      1 1s      1 1s      1 1s
                                   1 1s      1 1s      1 1s      1 1s      1 1s      1 1s      1 1s      1 1s      1 1s      1 1s
                                   1 1s      1 1s      1 1s      1 1s      1 1s      1 1s      1 1s      1 1s      1 1s      1 1s
                                   1 1s      1 1s      1 1s      1 1s      1 1s      1 2pz     1 2pz     1 2pz     1 2pz     1 2pz
                                   1 2pz     1 2pz     1 2pz     1 2pz     1 2pz     1 2pz     1 2pz     1 2pz     1 2pz     1 2pz
                                   1 2pz     1 2pz     1 2pz     1 2pz     1 2pz     1 2pz     1 2pz     1 2pz     1 2pz     1 2pz
                                   1 2pz     1 2pz     1 2pz     1 2pz     1 2pz     1 2pz     1 3d0     1 3d2+    1 3d0     1 3d2+
                                   1 3d0     1 3d2+    1 3d0     1 3d2+    1 3d0     1 3d2+    1 3d0     1 3d2+    1 3d0     1 3d2+
                                   1 3d0     1 3d2+    1 3d0     1 3d2+    1 3d0     1 3d2+    1 3d0     1 3d2+    1 3d0     1 3d2+
                                   1 3d0     1 3d2+    1 3d0     1 3d2+    1 3d0     1 3d2+    1 3d0     1 3d2+    1 3d0     1 3d2+
                                   1 3d0     1 3d2+    1 3d0     1 3d2+    1 3d0     1 3d2+    1 3d0     1 3d2+    1 3d0     1 3d2+
                                   1 4f0     1 4f2+    1 4f0     1 4f2+    1 4f0     1 4f2+    1 4f0     1 4f2+    1 4f0     1 4f2+
                                   1 4f0     1 4f2+    1 4f0     1 4f2+    1 4f0     1 4f2+    1 4f0     1 4f2+    1 4f0     1 4f2+
                                   1 4f0     1 4f2+    1 4f0     1 4f2+    1 4f0     1 4f2+    1 4f0     1 4f2+    1 4f0     1 4f2+
                                   1 5g0     1 5g4+    1 5g2+    1 5g0     1 5g4+    1 5g2+    1 5g0     1 5g4+    1 5g2+    2 1s
                                   2 1s      2 1s      2 1s      2 1s      2 1s      2 1s      2 1s      2 1s      2 1s      2 1s
                                   2 1s      2 1s      2 2pz     2 2pz     2 2pz     2 2pz     2 2pz     2 2pz     2 2pz     2 2pz
                                   2 3d0     2 3d2+    2 3d0     2 3d2+    2 3d0     2 3d2+    2 3d0     2 3d2+    2 4f0     2 4f2+
                                   2 4f0     2 4f2+

   1.1   2    -3.2709  -14.6030  0.000000 -0.000000  0.000000 -0.000000  0.000000 -0.000000  0.000000 -0.000000  0.000000 -0.000001
                                 0.000002 -0.000005  0.000012 -0.000029  0.000072 -0.000177  0.000434 -0.001056  0.002552 -0.006011
                                 0.013969 -0.030327  0.064501 -0.127956  0.232642 -0.086331  2.459420  0.191587  0.277271  0.070584
                                -0.030208  0.010556 -2.804484  0.584437 -0.002679 -0.000000  0.000000 -0.000000  0.000000 -0.000000
                                 0.000000 -0.000000  0.000000 -0.000000  0.000000 -0.000000  0.000001 -0.000002  0.000005 -0.000013
                                 0.000029 -0.000064  0.000141 -0.000305  0.000808 -0.002361  0.013263  0.015435 -0.122203 -0.015045
                                 0.007429 -0.003303 -0.000111 -0.019383  0.117727  0.000172  0.000000 -0.000000 -0.000000 -0.000000
                                 0.000000  0.000000 -0.000000 -0.000000  0.000001  0.000000 -0.000002 -0.000000  0.000007  0.000000
                                -0.000017 -0.000000  0.000038  0.000000 -0.000080 -0.000000  0.000163  0.000000 -0.000408 -0.000000
                                 0.001329  0.000000  0.008115  0.000000 -0.001350 -0.000000 -0.016306 -0.000000  0.002017  0.000000
                                 0.001062 -0.000000 -0.001816  0.000000 -0.007818 -0.000000  0.017354 -0.000000  0.000630  0.000000
                                -0.000000 -0.000000  0.000000  0.000000 -0.000001 -0.000000  0.000003  0.000000 -0.000009 -0.000000
                                 0.000021  0.000000 -0.000051  0.000000  0.000137 -0.000000 -0.001063  0.000000 -0.003824  0.000000
                                -0.004365  0.000000  0.002131 -0.000000  0.003909 -0.000000  0.004069 -0.000000 -0.000604 -0.000000
                                 0.000021 -0.000089  0.000000  0.000897 -0.001822 -0.000000  0.001214 -0.000650  0.000000  0.000000
                                -0.000000  0.000001 -0.000004  0.000023 -0.000322 -0.001470 -0.001162  0.002653 -0.002995  0.001886
                                 0.001500  0.000689 -0.000007 -0.000064 -0.000080 -0.000429  0.003435 -0.001065  0.000019  0.000002
                                 0.000044  0.000000 -0.000069 -0.000000 -0.001729  0.000000  0.000001 -0.000000  0.000018  0.000000
                                 0.000023 -0.000000

   2.1   2    -1.8465  -11.6153  0.000000 -0.000000  0.000000 -0.000000  0.000000 -0.000000  0.000000 -0.000000  0.000000 -0.000000
                                 0.000000 -0.000000  0.000000 -0.000000  0.000001 -0.000002  0.000006 -0.000015  0.000036 -0.000085
                                 0.000198 -0.000431  0.000926 -0.001880  0.003674 -0.003384  0.022849  0.008827 -0.011375 -0.004481
                                -0.005607 -0.001831 -0.028072  0.018782  0.000365 -0.000000  0.000000 -0.000000  0.000000 -0.000000
                                 0.000000 -0.000000  0.000000 -0.000000  0.000001 -0.000002  0.000006 -0.000015  0.000031 -0.000062
                                 0.000089 -0.000114 -0.000948  0.003335 -0.030518  0.118847 -0.748750  0.006390  1.515713  0.354238
                                 0.032996 -0.003818  0.000030  0.630676 -0.899622  0.000092 -0.000000 -0.000000  0.000000  0.000000
                                -0.000000 -0.000000  0.000000  0.000000 -0.000000 -0.000000  0.000001  0.000000 -0.000004  0.000000
                                 0.000011 -0.000000 -0.000025  0.000000  0.000055 -0.000000 -0.000107  0.000000  0.000295 -0.000000
                                -0.000612  0.000000 -0.003017  0.000001  0.000023 -0.000000 -0.001339 -0.000000 -0.003655  0.000000
                                -0.002650 -0.000000 -0.000564  0.000000  0.003092 -0.000001 -0.006944  0.000000  0.000123 -0.000000
                                 0.000000 -0.000000 -0.000000  0.000000  0.000000 -0.000000 -0.000001  0.000000  0.000004 -0.000000
                                -0.000008  0.000000  0.000029 -0.000000 -0.000051  0.000000  0.000639 -0.000001  0.004875 -0.000000
                                 0.006364  0.000000  0.000342  0.000001 -0.000267  0.000000 -0.000500 -0.000000 -0.000153  0.000000
                                -0.000183  0.000011 -0.000000 -0.000203 -0.000000 -0.000000 -0.000574  0.000013 -0.000000 -0.000000
                                 0.000000 -0.000001  0.000004 -0.000032  0.001114 -0.001734  0.003750  0.008487  0.009747  0.006224
                                -0.001270 -0.001822 -0.000144 -0.001243 -0.003521 -0.006245 -0.008509 -0.002202  0.000007  0.000039
                                 0.000178  0.000000  0.001713 -0.000000  0.002368  0.000000  0.000022  0.000000 -0.000160 -0.000000
                                -0.000831  0.000000

   3.1   2    -1.1386   -8.6844 -0.000000  0.000000 -0.000000  0.000000 -0.000000  0.000000 -0.000000  0.000000 -0.000000  0.000000
                                -0.000000  0.000000 -0.000000  0.000000 -0.000001  0.000002 -0.000006  0.000014 -0.000034  0.000080
                                -0.000191  0.000424 -0.000952  0.001982 -0.003729 -0.002912 -0.130020  0.034204  0.038663  0.025276
                                -0.013168  0.001559  0.127093 -0.092392 -0.000389  0.000000 -0.000000  0.000000 -0.000000  0.000000
                                -0.000000  0.000000 -0.000000  0.000000 -0.000000  0.000001 -0.000002  0.000005 -0.000013  0.000030
                                -0.000064  0.000136 -0.000225  0.000410  0.000271 -0.002587  0.018886 -0.035335  0.265400  0.013182
                                -0.007011 -0.011421  0.000216  0.002654 -0.303867 -0.000023 -0.000000  0.000000  0.000000 -0.000000
                                -0.000000  0.000000  0.000000 -0.000000 -0.000001  0.000000  0.000003 -0.000000 -0.000008  0.000000
                                 0.000019 -0.000000 -0.000043  0.000000  0.000088 -0.000000 -0.000201  0.000000  0.000377 -0.000001
                                -0.002251  0.000002 -0.012897  0.000010  0.012699 -0.000003  0.035265 -0.000007  0.009156 -0.000001
                                -0.009196  0.000000 -0.000322  0.000000  0.011449 -0.000010 -0.027588  0.000006  0.000084 -0.000001
                                 0.000000 -0.000000 -0.000000  0.000000  0.000001 -0.000000 -0.000004  0.000000  0.000010 -0.000000
                                -0.000026  0.000000  0.000066 -0.000000 -0.000193  0.000001  0.001708 -0.000004  0.006884  0.000001
                                 0.012762  0.000004 -0.003599  0.000004 -0.009277 -0.000003 -0.007839 -0.000006 -0.002079  0.000002
                                -0.000011 -0.000033 -0.000000  0.001601  0.000002 -0.000001 -0.001754  0.000003 -0.000003 -0.000000
                                 0.000003 -0.000025  0.000160 -0.001404  0.054181 -0.103999  0.189011  0.556288  0.400757  0.036977
                                -0.051391 -0.087767  0.000004  0.000329 -0.001212  0.000193 -0.028992 -0.005819 -0.000359 -0.000005
                                -0.000959  0.000000  0.001078 -0.000000  0.007775  0.000004 -0.000388  0.000000  0.000246 -0.000000
                                -0.002989  0.000000

   4.1   2    -0.3122   -6.4207 -0.000000  0.000000 -0.000000  0.000000 -0.000000  0.000000 -0.000000  0.000000 -0.000000  0.000000
                                -0.000000  0.000001 -0.000003  0.000008 -0.000019  0.000047 -0.000114  0.000278 -0.000674  0.001592
                                -0.003731  0.008183 -0.017834  0.037038 -0.075787  0.080227 -0.534656 -0.156049 -0.296637  0.278532
                                 0.488032  0.113352  0.613318 -0.122803  0.002216  0.000000 -0.000000  0.000000 -0.000000  0.000000
                                -0.000000  0.000000 -0.000000  0.000000 -0.000000  0.000001 -0.000002  0.000006 -0.000014  0.000034
                                -0.000075  0.000160 -0.000302  0.000610 -0.000673  0.000784 -0.001465 -0.045489  0.397137  0.028901
                                 0.005971 -0.052753 -0.018032  0.024586 -0.423991  0.002778  0.000000 -0.000000 -0.000000  0.000000
                                 0.000000 -0.000000 -0.000000 -0.000000  0.000001 -0.000000 -0.000004  0.000000  0.000011 -0.000000
                                -0.000031  0.000000  0.000068 -0.000000 -0.000180  0.000000  0.000220 -0.000000 -0.001487  0.000001
                                -0.003501 -0.000002 -0.020138 -0.000011  0.062041  0.000001  0.118241  0.000008  0.119838  0.000004
                                 0.056117 -0.000005  0.005640 -0.000003  0.014065  0.000011 -0.025417 -0.000003  0.000908  0.000002
                                 0.000000  0.000000 -0.000000 -0.000000  0.000001  0.000000 -0.000002 -0.000000  0.000006  0.000000
                                -0.000014 -0.000000  0.000039  0.000000 -0.000100 -0.000001  0.001314  0.000004  0.007942 -0.000009
                                 0.016180 -0.000017 -0.002964 -0.000002 -0.010516  0.000015 -0.003844  0.000020 -0.003960 -0.000007
                                 0.000707 -0.000663  0.000000  0.003968 -0.000380  0.000002  0.002059  0.000056  0.000009  0.000000
                                -0.000000  0.000003 -0.000018  0.000164 -0.006911  0.014786 -0.025116 -0.090033 -0.075425 -0.017632
                                 0.005713  0.011214 -0.004945 -0.042181 -0.137649 -0.223386 -0.211835 -0.052311 -0.002739  0.001304
                                 0.002124 -0.000000  0.010409  0.000001  0.018151 -0.000011  0.000277  0.000000 -0.002158  0.000000
                                -0.005661 -0.000001

   5.1   +    -0.3246   -6.6230 -0.000000  0.000000 -0.000000  0.000000 -0.000000  0.000000 -0.000000  0.000000 -0.000000  0.000000
                                -0.000000  0.000001 -0.000002  0.000006 -0.000014  0.000033 -0.000082  0.000199 -0.000482  0.001138
                                -0.002662  0.005832 -0.012664  0.026273 -0.054093  0.066074 -0.242250 -0.159598 -0.261368  0.170354
                                 0.428774  0.116460  0.307471  0.002143 -0.002287 -0.000000  0.000000 -0.000000  0.000000 -0.000000
                                 0.000000 -0.000000  0.000000 -0.000000  0.000000 -0.000001  0.000002 -0.000004  0.000010 -0.000023
                                 0.000049 -0.000102  0.000131 -0.000210 -0.001237  0.006156 -0.048898  0.013785 -0.030109  0.027415
                                -0.066483 -0.099524 -0.014727  0.037281  0.088444 -0.000704 -0.000000  0.000000  0.000000 -0.000000
                                -0.000000 -0.000000  0.000001  0.000000 -0.000005  0.000000  0.000016 -0.000000 -0.000048  0.000000
                                 0.000130 -0.000000 -0.000290  0.000000  0.000713 -0.000000 -0.001068  0.000000  0.005186 -0.000000
                                 0.005172  0.000001  0.027230  0.000005 -0.157956  0.000001 -0.282443 -0.000002 -0.286014  0.000001
                                -0.169747  0.000006 -0.032263  0.000005 -0.013051 -0.000006  0.020737  0.000003  0.000150  0.000004
                                -0.000000 -0.000000  0.000000  0.000000 -0.000001 -0.000000  0.000004  0.000000 -0.000012 -0.000000
                                 0.000029  0.000000 -0.000074 -0.000000  0.000236  0.000001 -0.002006 -0.000001 -0.008479  0.000007
                                -0.011917  0.000011  0.004547 -0.000001  0.013008 -0.000010  0.009348 -0.000013  0.007660 -0.000002
                                -0.001424 -0.000980 -0.000000 -0.004353 -0.001154 -0.000001 -0.001289 -0.001810 -0.000005 -0.000000
                                 0.000000 -0.000001  0.000008 -0.000065  0.002319 -0.003464  0.008765  0.027910  0.029959  0.011961
                                -0.002832 -0.003903  0.002947  0.025184  0.081744  0.133543  0.119676  0.027276  0.001530 -0.000779
                                -0.001598  0.000000 -0.007967 -0.000001 -0.011034  0.000008 -0.000180 -0.000000  0.001588 -0.000000
                                 0.004134  0.000000

   6.1   0    -0.0281   -4.8027 -0.000000  0.000000 -0.000000  0.000000 -0.000000  0.000000 -0.000000  0.000000 -0.000000  0.000000
                                -0.000000  0.000000 -0.000000  0.000000 -0.000000  0.000001 -0.000003  0.000007 -0.000017  0.000040
                                -0.000094  0.000205 -0.000441  0.000905 -0.001816  0.002061 -0.008314 -0.005875  0.003183 -0.079848
                                 0.092204 -0.005862  0.010571 -0.001476  0.333061 -0.000000  0.000000 -0.000000  0.000000 -0.000000
                                 0.000000 -0.000000  0.000000 -0.000000  0.000000 -0.000001  0.000004 -0.000010  0.000024 -0.000056
                                 0.000118 -0.000245  0.000298 -0.000445 -0.003422  0.016547 -0.128459  0.028095  0.019367  0.064757
                                -0.097210 -0.272399 -0.233843  0.100700  0.128449 -0.119033  0.000000  0.000000 -0.000000 -0.000000
                                 0.000000  0.000000 -0.000001 -0.000000  0.000004  0.000000 -0.000013 -0.000000  0.000037  0.000000
                                -0.000099 -0.000000  0.000222  0.000000 -0.000527 -0.000000  0.000858  0.000000 -0.003588 -0.000001
                                -0.001010  0.000002 -0.004372  0.000010  0.085293 -0.000004  0.149964 -0.000023  0.161344  0.000014
                                 0.154419 -0.000008  0.096423  0.000041 -0.002995 -0.000010  0.008415  0.000027  0.097974 -0.000016
                                 0.000000  0.000000 -0.000000 -0.000000  0.000000  0.000000 -0.000000 -0.000000  0.000001  0.000000
                                -0.000003 -0.000000  0.000003  0.000000 -0.000050 -0.000000 -0.000224  0.000002 -0.002693  0.000008
                                -0.013868  0.000008  0.000742 -0.000005  0.002399 -0.000009 -0.012641 -0.000006 -0.028367  0.000006
                                 0.001148  0.000219  0.000000 -0.000324  0.000234 -0.000000  0.000087  0.000896 -0.000000  0.000000
                                -0.000000  0.000001 -0.000005  0.000028 -0.000178 -0.003286 -0.001014  0.014325 -0.004697  0.009530
                                 0.002478  0.000563  0.004277  0.036430  0.121462  0.194234  0.206109  0.081853  0.002719 -0.001123
                                -0.000202  0.000000 -0.001802 -0.000000 -0.008490  0.000001 -0.000065 -0.000000  0.001470  0.000000
                                 0.003756 -0.000000

   7.1   0     0.0197   -2.0814  0.000000 -0.000000  0.000000 -0.000000  0.000000 -0.000000  0.000000 -0.000000  0.000000 -0.000000
                                 0.000000 -0.000001  0.000002 -0.000004  0.000011 -0.000027  0.000067 -0.000162  0.000391 -0.000921
                                 0.002110 -0.004576  0.009621 -0.019662  0.042047 -0.103619 -0.675823  0.483413  0.676380 -0.365322
                                 0.623271 -1.929882  0.560749 -0.784506  1.663230 -0.000000  0.000000 -0.000000  0.000000 -0.000000
                                 0.000000 -0.000000  0.000000 -0.000000  0.000001 -0.000004  0.000012 -0.000031  0.000079 -0.000190
                                 0.000433 -0.000940  0.002061 -0.004379  0.011591 -0.034702  0.227301  0.277373 -2.557451 -0.239683
                                 0.235271 -0.176774  0.592968 -0.353076  2.498366 -1.036362 -0.000000 -0.000000  0.000000  0.000000
                                -0.000000 -0.000000  0.000000  0.000000 -0.000001 -0.000000  0.000002  0.000000 -0.000007 -0.000000
                                 0.000020  0.000000 -0.000045 -0.000000  0.000118  0.000001 -0.000148 -0.000001  0.000978  0.000006
                                 0.002073  0.000014  0.011452  0.000079 -0.040486 -0.000260 -0.089440 -0.000526 -0.059946 -0.000434
                                -0.041620 -0.000502 -0.158475 -0.000337 -0.007725 -0.000055  0.025447  0.000129  0.158497 -0.000820
                                -0.000000  0.000000  0.000001 -0.000000 -0.000003  0.000000  0.000010 -0.000000 -0.000028  0.000000
                                 0.000072 -0.000000 -0.000179  0.000000  0.000559 -0.000001 -0.004071  0.000010 -0.013232  0.000027
                                -0.015442  0.000026  0.008158 -0.000019  0.018229 -0.000029  0.028174  0.000003 -0.002928  0.000072
                                -0.000589  0.000095 -0.000001 -0.000037 -0.000058 -0.000000  0.002394 -0.000268  0.000007 -0.000000
                                 0.000000 -0.000000  0.000002 -0.000017  0.000691 -0.001435  0.002231  0.009139  0.008262  0.120292
                                -0.000587 -0.001120 -0.001847 -0.015765 -0.052211 -0.084959 -0.072734 -0.134569 -0.001099  0.000486
                                 0.000019 -0.000001 -0.000420 -0.000004 -0.010287 -0.000001  0.000006 -0.000000 -0.000738  0.000000
                                 0.000111  0.000001

                                   1 2px     1 2px     1 2px     1 2px     1 2px     1 2px     1 2px     1 2px     1 2px     1 2px
                                   1 2px     1 2px     1 2px     1 2px     1 2px     1 2px     1 2px     1 2px     1 2px     1 2px
                                   1 2px     1 2px     1 2px     1 2px     1 2px     1 2px     1 2px     1 2px     1 2px     1 2px
                                   1 2px     1 3d1+    1 3d1+    1 3d1+    1 3d1+    1 3d1+    1 3d1+    1 3d1+    1 3d1+    1 3d1+
                                   1 3d1+    1 3d1+    1 3d1+    1 3d1+    1 3d1+    1 3d1+    1 3d1+    1 3d1+    1 3d1+    1 3d1+
                                   1 3d1+    1 3d1+    1 3d1+    1 4f1+    1 4f3+    1 4f1+    1 4f3+    1 4f1+    1 4f3+    1 4f1+
                                   1 4f3+    1 4f1+    1 4f3+    1 4f1+    1 4f3+    1 4f1+    1 4f3+    1 4f1+    1 4f3+    1 4f1+
                                   1 4f3+    1 4f1+    1 4f3+    1 4f1+    1 4f3+    1 4f1+    1 4f3+    1 4f1+    1 4f3+    1 4f1+
                                   1 4f3+    1 4f1+    1 4f3+    1 5g1+    1 5g3+    1 5g1+    1 5g3+    1 5g1+    1 5g3+    2 2px
                                   2 2px     2 2px     2 2px     2 2px     2 2px     2 2px     2 2px     2 3d1+    2 3d1+    2 3d1+
                                   2 3d1+    2 4f1+    2 4f3+    2 4f1+    2 4f3+

   1.2   2    -1.8432  -11.5395 -0.000000  0.000000 -0.000000  0.000000 -0.000000  0.000000 -0.000000  0.000000 -0.000000  0.000001
                                -0.000002  0.000006 -0.000016  0.000033 -0.000067  0.000100 -0.000137 -0.000897  0.003221 -0.030205
                                 0.117873 -0.743619  0.012630  1.442331  0.352482  0.041172 -0.000216  0.000547  0.623638 -0.830656
                                -0.000131 -0.000000  0.000000 -0.000000  0.000000 -0.000000  0.000000 -0.000000  0.000001 -0.000001
                                 0.000003 -0.000004  0.000025  0.000105  0.001062 -0.001041 -0.006038 -0.003398 -0.000901 -0.000106
                                -0.000773  0.002115 -0.000010  0.000000  0.000000 -0.000000 -0.000000  0.000001  0.000001 -0.000002
                                -0.000002  0.000005  0.000006 -0.000014 -0.000020  0.000041  0.000046 -0.000125 -0.000180  0.000208
                                 0.000225  0.001754 -0.000401 -0.000618 -0.003321 -0.000185 -0.001890 -0.002111 -0.005847 -0.002631
                                -0.005219 -0.000507 -0.000878 -0.000084  0.000016 -0.000375  0.000133  0.000034  0.000237  0.000027
                                 0.000235  0.000709  0.001147  0.001005  0.000148  0.000004 -0.000007 -0.000035 -0.000310 -0.000349
                                -0.000006  0.000014 -0.000002  0.000262  0.000003

   2.2   2    -0.4191   -7.1322  0.000000 -0.000000  0.000000 -0.000000  0.000000 -0.000000  0.000000 -0.000000  0.000000 -0.000000
                                 0.000000 -0.000001  0.000002 -0.000004  0.000009 -0.000018  0.000037 -0.000044  0.000062  0.000559
                                -0.002661  0.020382 -0.003453 -0.027271 -0.014371  0.020502  0.021794 -0.003383 -0.016286  0.006533
                                -0.000143  0.000000 -0.000000  0.000000 -0.000000  0.000001 -0.000002  0.000007 -0.000018  0.000041
                                -0.000096  0.000160 -0.000623 -0.000018 -0.000133  0.012148  0.011550  0.035510  0.025218  0.005552
                                -0.001058  0.011151 -0.003711  0.000000  0.000000 -0.000000 -0.000000  0.000001  0.000000 -0.000002
                                -0.000000  0.000005  0.000000 -0.000012 -0.000001  0.000033  0.000001 -0.000081 -0.000005  0.000829
                                 0.000053  0.002668  0.000113  0.002261  0.000025 -0.001475 -0.000093 -0.001449 -0.000250  0.009951
                                -0.000372  0.004957 -0.000258  0.000069 -0.000035  0.001951 -0.000096  0.003443 -0.000067  0.010095
                                 0.086924  0.285959  0.445321  0.363035  0.065090  0.005546 -0.002657 -0.001710 -0.005984 -0.014179
                                -0.000184  0.002803 -0.000004  0.006922  0.000017

   3.2   0    -0.0005   -3.2487 -0.000000  0.000000 -0.000000  0.000000 -0.000000  0.000000 -0.000000  0.000000 -0.000000  0.000000
                                -0.000001  0.000004 -0.000011  0.000026 -0.000060  0.000128 -0.000270  0.000394 -0.000684 -0.001992
                                 0.011223 -0.092259  0.034886 -0.041576  0.052569 -0.068068 -0.301216 -0.186250  0.064323  0.154686
                                -0.513312  0.000000 -0.000000  0.000000 -0.000000  0.000001 -0.000002  0.000006 -0.000018  0.000038
                                -0.000114  0.000093 -0.001132 -0.004172 -0.023432  0.062133  0.130441  0.089472  0.129836  0.099779
                                 0.017403 -0.042035  0.201946  0.000000 -0.000000 -0.000000  0.000000  0.000000 -0.000000 -0.000001
                                 0.000001  0.000003 -0.000002 -0.000006  0.000005  0.000018 -0.000010 -0.000045  0.000046  0.000293
                                -0.000381  0.001461 -0.000773  0.001170  0.000239 -0.000323  0.000809 -0.000312  0.002519 -0.000235
                                 0.004441 -0.000225  0.004168  0.000450 -0.000116  0.000450 -0.000254  0.000365 -0.000616  0.000144
                                 0.001177  0.004960  0.006487  0.008874 -0.015490  0.000274 -0.000035 -0.000074 -0.000461  0.001279
                                -0.000009  0.000206  0.000002 -0.000096 -0.000002

   4.2   0     0.0342   -2.6634  0.000000 -0.000000  0.000000 -0.000000  0.000000 -0.000000  0.000000 -0.000000  0.000001 -0.000002
                                 0.000006 -0.000017  0.000044 -0.000112  0.000269 -0.000612  0.001328 -0.002889  0.006120 -0.015811
                                 0.046761 -0.304572 -0.384159  3.460768  0.304950 -0.279034  0.221929 -1.144779  0.480575 -3.383408
                                 1.395126  0.000000 -0.000000  0.000000 -0.000001  0.000005 -0.000017  0.000050 -0.000130  0.000294
                                -0.000669  0.001197 -0.004076  0.003165  0.017629  0.054929  0.059234  0.165889  0.113328  0.227135
                                -0.022415  0.066921 -0.085237 -0.000000  0.000000  0.000001 -0.000000 -0.000003  0.000000  0.000009
                                -0.000000 -0.000025  0.000000  0.000063 -0.000001 -0.000156  0.000003  0.000456 -0.000001 -0.003457
                                -0.000009 -0.009856  0.000260 -0.010409  0.000917  0.006811  0.000040  0.011537  0.000633  0.002259
                                 0.002005 -0.017556  0.003262  0.000672 -0.000148  0.000661 -0.000287  0.000806 -0.000613 -0.000511
                                -0.004345 -0.015524 -0.022705 -0.026746 -0.032222 -0.000489  0.000132 -0.000120 -0.002274  0.003589
                                -0.000036 -0.000032  0.000004  0.000258 -0.000014

                                   1 2py     1 2py     1 2py     1 2py     1 2py     1 2py     1 2py     1 2py     1 2py     1 2py
                                   1 2py     1 2py     1 2py     1 2py     1 2py     1 2py     1 2py     1 2py     1 2py     1 2py
                                   1 2py     1 2py     1 2py     1 2py     1 2py     1 2py     1 2py     1 2py     1 2py     1 2py
                                   1 2py     1 3d1-    1 3d1-    1 3d1-    1 3d1-    1 3d1-    1 3d1-    1 3d1-    1 3d1-    1 3d1-
                                   1 3d1-    1 3d1-    1 3d1-    1 3d1-    1 3d1-    1 3d1-    1 3d1-    1 3d1-    1 3d1-    1 3d1-
                                   1 3d1-    1 3d1-    1 3d1-    1 4f1-    1 4f3-    1 4f1-    1 4f3-    1 4f1-    1 4f3-    1 4f1-
                                   1 4f3-    1 4f1-    1 4f3-    1 4f1-    1 4f3-    1 4f1-    1 4f3-    1 4f1-    1 4f3-    1 4f1-
                                   1 4f3-    1 4f1-    1 4f3-    1 4f1-    1 4f3-    1 4f1-    1 4f3-    1 4f1-    1 4f3-    1 4f1-
                                   1 4f3-    1 4f1-    1 4f3-    1 5g1-    1 5g3-    1 5g1-    1 5g3-    1 5g1-    1 5g3-    2 2py
                                   2 2py     2 2py     2 2py     2 2py     2 2py     2 2py     2 2py     2 3d1-    2 3d1-    2 3d1-
                                   2 3d1-    2 4f1-    2 4f3-    2 4f1-    2 4f3-

   1.3   2    -1.8432  -11.5395 -0.000000  0.000000 -0.000000  0.000000 -0.000000  0.000000 -0.000000  0.000000 -0.000000  0.000001
                                -0.000002  0.000006 -0.000016  0.000033 -0.000067  0.000100 -0.000137 -0.000897  0.003221 -0.030205
                                 0.117872 -0.743616  0.012637  1.442280  0.352480  0.041172 -0.000216  0.000546  0.623631 -0.830607
                                -0.000131 -0.000000  0.000000 -0.000000  0.000000 -0.000000  0.000000 -0.000000  0.000001 -0.000001
                                 0.000003 -0.000004  0.000026  0.000104  0.001058 -0.001039 -0.006035 -0.003399 -0.000900 -0.000106
                                -0.000770  0.002111 -0.000010  0.000000 -0.000000 -0.000000  0.000000  0.000001 -0.000001 -0.000002
                                 0.000002  0.000005 -0.000006 -0.000014  0.000020  0.000041 -0.000046 -0.000125  0.000180  0.000209
                                -0.000225  0.001757  0.000401 -0.000616  0.003321 -0.000187  0.001890 -0.002114  0.005846 -0.002631
                                 0.005218 -0.000507  0.000878 -0.000084 -0.000016 -0.000375 -0.000133  0.000034 -0.000237  0.000027
                                 0.000235  0.000708  0.001146  0.001004  0.000148  0.000004 -0.000007 -0.000035 -0.000310 -0.000350
                                -0.000006  0.000014  0.000002  0.000262 -0.000003

   2.3   2    -0.4191   -7.1322  0.000000 -0.000000  0.000000 -0.000000  0.000000 -0.000000  0.000000 -0.000000  0.000000 -0.000000
                                 0.000000 -0.000001  0.000002 -0.000004  0.000009 -0.000018  0.000037 -0.000044  0.000062  0.000559
                                -0.002661  0.020381 -0.003453 -0.027272 -0.014371  0.020502  0.021794 -0.003382 -0.016286  0.006533
                                -0.000143  0.000000 -0.000000  0.000000 -0.000000  0.000001 -0.000002  0.000007 -0.000018  0.000041
                                -0.000096  0.000160 -0.000623 -0.000018 -0.000133  0.012148  0.011550  0.035510  0.025218  0.005552
                                -0.001058  0.011151 -0.003711  0.000000 -0.000000 -0.000000  0.000000  0.000001 -0.000000 -0.000002
                                 0.000000  0.000005 -0.000000 -0.000012  0.000001  0.000033 -0.000001 -0.000081  0.000005  0.000829
                                -0.000053  0.002668 -0.000113  0.002261 -0.000025 -0.001475  0.000093 -0.001449  0.000250  0.009951
                                 0.000371  0.004957  0.000258  0.000069  0.000035  0.001951  0.000096  0.003443  0.000067  0.010095
                                 0.086924  0.285959  0.445321  0.363035  0.065089  0.005546 -0.002657 -0.001710 -0.005984 -0.014179
                                -0.000184  0.002803  0.000004  0.006922 -0.000017

   3.3   0    -0.0005   -3.2487 -0.000000  0.000000 -0.000000  0.000000 -0.000000  0.000000 -0.000000  0.000000 -0.000000  0.000000
                                -0.000001  0.000004 -0.000011  0.000026 -0.000060  0.000128 -0.000270  0.000394 -0.000684 -0.001992
                                 0.011223 -0.092256  0.034888 -0.041596  0.052567 -0.068066 -0.301215 -0.186243  0.064320  0.154704
                                -0.513321  0.000000 -0.000000  0.000000 -0.000000  0.000001 -0.000002  0.000006 -0.000018  0.000038
                                -0.000114  0.000093 -0.001132 -0.004172 -0.023432  0.062133  0.130441  0.089472  0.129836  0.099777
                                 0.017403 -0.042036  0.201949  0.000000  0.000000 -0.000000 -0.000000  0.000000  0.000000 -0.000001
                                -0.000001  0.000003  0.000002 -0.000006 -0.000005  0.000018  0.000010 -0.000045 -0.000046  0.000293
                                 0.000381  0.001461  0.000773  0.001170 -0.000239 -0.000323 -0.000809 -0.000312 -0.002518 -0.000236
                                -0.004441 -0.000225 -0.004168  0.000450  0.000116  0.000450  0.000254  0.000365  0.000616  0.000144
                                 0.001177  0.004960  0.006487  0.008875 -0.015490  0.000274 -0.000035 -0.000074 -0.000461  0.001279
                                -0.000009  0.000206 -0.000002 -0.000096  0.000002

   4.3   0     0.0342   -2.6634  0.000000 -0.000000  0.000000 -0.000000  0.000000 -0.000000  0.000000 -0.000000  0.000001 -0.000002
                                 0.000006 -0.000017  0.000044 -0.000112  0.000269 -0.000612  0.001328 -0.002889  0.006120 -0.015810
                                 0.046761 -0.304571 -0.384158  3.460758  0.304950 -0.279033  0.221927 -1.144777  0.480573 -3.383398
                                 1.395121  0.000000 -0.000000  0.000000 -0.000001  0.000005 -0.000017  0.000050 -0.000130  0.000294
                                -0.000669  0.001197 -0.004076  0.003165  0.017629  0.054930  0.059236  0.165891  0.113330  0.227136
                                -0.022415  0.066921 -0.085235 -0.000000 -0.000000  0.000001  0.000000 -0.000003 -0.000000  0.000009
                                 0.000000 -0.000025 -0.000000  0.000063  0.000001 -0.000156 -0.000003  0.000456  0.000002 -0.003457
                                 0.000009 -0.009856 -0.000261 -0.010409 -0.000918  0.006811 -0.000039  0.011537 -0.000632  0.002259
                                -0.002004 -0.017556 -0.003262  0.000672  0.000148  0.000661  0.000287  0.000806  0.000613 -0.000511
                                -0.004345 -0.015524 -0.022705 -0.026747 -0.032223 -0.000489  0.000132 -0.000120 -0.002274  0.003589
                                -0.000036 -0.000032 -0.000004  0.000258  0.000014

                                   1 3d2-    1 3d2-    1 3d2-    1 3d2-    1 3d2-    1 3d2-    1 3d2-    1 3d2-    1 3d2-    1 3d2-
                                   1 3d2-    1 3d2-    1 3d2-    1 3d2-    1 3d2-    1 3d2-    1 3d2-    1 3d2-    1 3d2-    1 3d2-
                                   1 3d2-    1 3d2-    1 4f2-    1 4f2-    1 4f2-    1 4f2-    1 4f2-    1 4f2-    1 4f2-    1 4f2-
                                   1 4f2-    1 4f2-    1 4f2-    1 4f2-    1 4f2-    1 4f2-    1 4f2-    1 5g2-    1 5g4-    1 5g2-
                                   1 5g4-    1 5g2-    1 5g4-    2 3d2-    2 3d2-    2 3d2-    2 3d2-    2 4f2-    2 4f2-

   1.4   2    -0.3230   -7.1643  0.000000 -0.000000  0.000000 -0.000002  0.000007 -0.000026  0.000076 -0.000203  0.000456 -0.001102
                                 0.001725 -0.007760 -0.004871 -0.023381  0.209943  0.374958  0.383112  0.236187  0.047842  0.005631
                                -0.011274 -0.001310  0.000000 -0.000000  0.000001 -0.000005  0.000013 -0.000034  0.000083 -0.000274
                                 0.001890  0.006089  0.003946 -0.003907 -0.009429 -0.016460 -0.014060  0.000553 -0.000000  0.001557
                                -0.000000 -0.001805 -0.000000  0.000188  0.001326 -0.000165  0.000024 -0.000192 -0.000124

   2.4   0     0.0571   -1.8420 -0.000000  0.000000 -0.000001  0.000004 -0.000016  0.000053 -0.000154  0.000393 -0.000894  0.001907
                                -0.003946  0.009544 -0.031425 -0.175964  0.094578  0.411458 -0.180160  0.183548 -0.460340  0.164795
                                -0.449458  1.258059 -0.000000  0.000002 -0.000009  0.000031 -0.000089  0.000224 -0.000558  0.001658
                                -0.012278 -0.037078 -0.036329  0.024098  0.043707  0.026358 -0.028330 -0.000062 -0.000000 -0.000046
                                 0.000000  0.000156 -0.000000  0.000115  0.000639  0.000793  0.000012 -0.000032  0.000296

   3.4   0     0.1871   -2.5947  0.000000 -0.000000  0.000002 -0.000011  0.000042 -0.000141  0.000409 -0.001036  0.002361 -0.004963
                                 0.010592 -0.023545  0.095082  0.530043 -0.402874 -1.466654  0.325412 -0.733013  1.915905 -0.487096
                                 1.358491 -0.974913 -0.000001  0.000007 -0.000031  0.000105 -0.000297  0.000750 -0.001870  0.005565
                                -0.041496 -0.126722 -0.128081  0.081636  0.150179  0.093358 -0.137685 -0.000160 -0.000000 -0.000591
                                 0.000000  0.001977 -0.000000 -0.000128  0.004740 -0.007427  0.000083  0.000388 -0.002129

 HOMO      1.4    -0.322952 =      -8.7880eV
 LUMO      6.1    -0.028091 =      -0.7644eV
 LUMO-HOMO         0.294861 =       8.0236eV

 No convergence



 **********************************************************************************************************************************
 DATASETS  * FILE   NREC   LENGTH (MB)   RECORD NAMES
              1      19       22.43       500      610      700      900      950      970     1000      129      960     1100
                                          VAR    BASINP    GEOM    SYMINP    ZMAT    AOBASIS   BASIS     P2S    ABASIS      S
                                         1400     1410     1420     1200     1210     1080     1600     1650     1700
                                           T        V       ECP      H0       H01     AOSYM     SMH    MOLCAS    OPER

              2       4        4.45       700     1000      520     2100
                                         GEOM     BASIS   MCVARS     RHF

 PROGRAMS   *        TOTAL       RHF       INT
 CPU TIMES  *       263.81    103.09    160.26
 REAL TIME  *       282.48 SEC
 DISK USED  *         9.21 GB
 SF USED    *         0.23 MB
 GA USED    *         0.00 MB       (max)       0.00 MB       (current)
 **********************************************************************************************************************************
   -->
   <time start="08:58:47" end="09:03:29" cpu="263.81" system="16.24" real="282.48"/>
   <storage units="megabyte" memory="8001.84" sf="0.23" df="388.75" eaf="8819.79" ga="0.0"/>
  </jobstep><!--
 SETTING SCF            =       -72.63746335  AU
 SETTING _CC_NORM_MAX   =         2.00000000
  --><jobstep command="RCCSD(T)" commandset="CCSD">
   <!--


 PROGRAM * CCSD (Restricted open-shell coupled cluster)     Authors: C. Hampel, H.-J. Werner, 1991, M. Deegan, P.J. Knowles, 1992


 Convergence thresholds:  THRVAR = 1.00D-08  THRDEN = 1.00D-06

 CCSD(T)     terms to be evaluated (factor= 1.000)


 Number of closed-shell orbitals:   9 (   4   2   2   1 )
 Number of active  orbitals:        1 (   1   0   0   0 )
 Number of external orbitals:     431 ( 177 103 103  48 )

 Memory could be reduced to 358.30 Mwords without degradation in triples

 Number of N-1 electron functions:              19
 Number of N-2 electron functions:             171
 Number of singly external CSFs:              2522
 Number of doubly external CSFs:           6198213
 Total number of CSFs:                     6200735

 Molecular orbitals read from record     2100.2  Type=RHF/CANONICAL (state 1.1)

 ?Error: RHF not converged. This error exit can be avoided using the IGNORE_ERROR option on the ORBITAL directive
   --><error/><!--
  --></jobstep><!--
  -->
  <input>
  <!--
 --></job><!--
--></molpro>
