
 Primary working directories    : /global/cscratch1/sd/haihan
 Secondary working directories  : /global/cscratch1/sd/haihan
 Wavefunction directory         : /global/homes/h/haihan/Research/ECP/f_group_element_ecps/Nb/Molpro/molecules/NbH/AE/wfu/
 Main file repository           : /global/cscratch1/sd/haihan/

 SHA1      : 19cd028119e0e09f93f0674bd8af7968d9b3eff6
 NAME      : 2015.1.36
 ARCHNAME  : linux/x86_64
 FC        : /opt/cray/pe/craype/2.5.14/bin/ftn
 BLASLIB   : -L/opt/intel/compilers_and_libraries_2018.1.163/linux/mkl/lib/intel64 -Wl,-_start-group -lmkl_intel_ilp64 -lmkl_intel_thread -lmkl_core -Wl,-_end-group -liomp5
 id        : lbl

 Nodes     nprocs
 nid01414    11
 Number of processes for MPI-2 version of Molpro:   nprocs(total)=   12   nprocs(compute)=   11   nprocs(helper)=    1

 Using customized tuning parameters: mindgm=7; mindgv=16; mindgc=1; mindgr=1; noblas=0; minvec=7
 default implementation of scratch files=sf  

 ***,Calculation for all-electron YH molecule, SCF and CCSD(T)
 memory,1,g
 gthresh,twoint=1.0E-15
 gthresh,throvl=1.0E-15
 
 set,dkroll=1,dkho=10,dkhp=4
 basis={
 Including file /global/u2/h/haihan/Research/ECP/f_group_element_ecps/Nb/Molpro/molecules/NbH/AE/r_1.40/../generate/Nb-aug-cc-pwCVTZ.basis
 Including file /global/u2/h/haihan/Research/ECP/f_group_element_ecps/Nb/Molpro/molecules/NbH/AE/r_1.40/../generate/H-aug-cc-pVTZ.basis
 }
 
 Nb_ccsd=-3818.57030200
 H_ccsd=-0.49982785
 
                                                                                 !These are the wf cards parameters
 ne = 42
 symm = 1
 ss= 4
 
                                                                                 !There are irrep cards paramters
 A1=11
 B1=5
 B2=5
 A2=2
 
 
 geometry={
     2
     NbH molecule
     Nb 0.0 0.0 0.0
     H 0.0 0.0 1.40
 }
 {rhf,nitord=20;
  maxit,200;
  wf,ne,symm,ss
  occ,A1,B1,B2,A2
  closed,A1-1,B1-1,B2-1,A2-1
  print,orbitals=2
 }
 scf=energy
 _CC_NORM_MAX=2.0
 {rccsd(t),shifts=0.5,shiftp=0.5,thrdis=1.0;diis,1,1,15,1;maxit,200;core}
 ccsd=energy
 bind=ccsd-Nb_ccsd-H_ccsd
 
 
 table,1.40,scf,ccsd,bind
 save
 type,csv
 

 Variables initialized (889), CPU time= 0.01 sec
 Commands  initialized (702), CPU time= 0.00 sec, 572 directives.
 Default parameters read. Elapsed time= 0.16 sec

 Checking input...
 Passed
1


                                         ***  PROGRAM SYSTEM MOLPRO  ***
                                       Copyright, TTI GmbH Stuttgart, 2015
                                    Version 2015.1 linked Dec 29 2018 15:55:43


 **********************************************************************************************************************************
 LABEL *   Calculation for all-electron YH molecule, SCF and CCSD(T)                     
  64 bit mpp version                                                                     DATE: 05-Oct-22          TIME: 01:28:10  
 **********************************************************************************************************************************

 SHA1:             19cd028119e0e09f93f0674bd8af7968d9b3eff6
 **********************************************************************************************************************************

 THRESHOLDS:

 ZERO    =  1.00D-12  ONEINT  =  1.00D-12  TWOINT  =  1.00D-15  PREFAC  =  1.00D-14  LOCALI  =  1.00D-09  EORDER  =  1.00D-04
 ENERGY  =  0.00D+00  ETEST   =  0.00D+00  EDENS   =  0.00D+00  THRDEDEF=  1.00D-06  GRADIENT=  1.00D-02  STEP    =  1.00D-03
 ORBITAL =  1.00D-05  CIVEC   =  1.00D-05  COEFF   =  1.00D-04  PRINTCI =  5.00D-02  PUNCHCI =  9.90D+01  OPTGRAD =  3.00D-04
 OPTENERG=  1.00D-06  OPTSTEP =  3.00D-04  THRGRAD =  1.00D-10  COMPRESS=  1.00D-11  VARMIN  =  1.00D-07  VARMAX  =  1.00D-03
 THRDOUB =  0.00D+00  THRDIV  =  1.00D-05  THRRED  =  1.00D-07  THRPSP  =  1.00D+00  THRDC   =  1.00D-10  THRCS   =  1.00D-10
 THRNRM  =  1.00D-08  THREQ   =  0.00D+00  THRDE   =  1.00D+00  THRREF  =  1.00D-05  SPARFAC =  1.00D+00  THRDLP  =  1.00D-07
 THRDIA  =  1.00D-10  THRDLS  =  1.00D-07  THRGPS  =  0.00D+00  THRKEX  =  0.00D+00  THRDIS  =  2.00D-01  THRVAR  =  1.00D-10
 THRLOC  =  1.00D-06  THRGAP  =  1.00D-06  THRLOCT = -1.00D+00  THRGAPT = -1.00D+00  THRORB  =  1.00D-06  THRMLTP =  0.00D+00
 THRCPQCI=  1.00D-10  KEXTA   =  0.00D+00  THRCOARS=  0.00D+00  SYMTOL  =  1.00D-06  GRADTOL =  1.00D-06  THROVL  =  1.00D-08
 THRORTH =  1.00D-08  GRID    =  1.00D-06  GRIDMAX =  1.00D-03  DTMAX   =  0.00D+00  THROCCDE=  1.00D-01  THROCCDE=  1.00D-01



 THRESHOLDS:

 ZERO    =  1.00D-12  ONEINT  =  1.00D-12  TWOINT  =  1.00D-15  PREFAC  =  1.00D-14  LOCALI  =  1.00D-09  EORDER  =  1.00D-04
 ENERGY  =  0.00D+00  ETEST   =  0.00D+00  EDENS   =  0.00D+00  THRDEDEF=  1.00D-06  GRADIENT=  1.00D-02  STEP    =  1.00D-03
 ORBITAL =  1.00D-05  CIVEC   =  1.00D-05  COEFF   =  1.00D-04  PRINTCI =  5.00D-02  PUNCHCI =  9.90D+01  OPTGRAD =  3.00D-04
 OPTENERG=  1.00D-06  OPTSTEP =  3.00D-04  THRGRAD =  1.00D-10  COMPRESS=  1.00D-11  VARMIN  =  1.00D-07  VARMAX  =  1.00D-03
 THRDOUB =  0.00D+00  THRDIV  =  1.00D-05  THRRED  =  1.00D-07  THRPSP  =  1.00D+00  THRDC   =  1.00D-10  THRCS   =  1.00D-10
 THRNRM  =  1.00D-08  THREQ   =  0.00D+00  THRDE   =  1.00D+00  THRREF  =  1.00D-05  SPARFAC =  1.00D+00  THRDLP  =  1.00D-07
 THRDIA  =  1.00D-10  THRDLS  =  1.00D-07  THRGPS  =  0.00D+00  THRKEX  =  0.00D+00  THRDIS  =  2.00D-01  THRVAR  =  1.00D-10
 THRLOC  =  1.00D-06  THRGAP  =  1.00D-06  THRLOCT = -1.00D+00  THRGAPT = -1.00D+00  THRORB  =  1.00D-06  THRMLTP =  0.00D+00
 THRCPQCI=  1.00D-10  KEXTA   =  0.00D+00  THRCOARS=  0.00D+00  SYMTOL  =  1.00D-06  GRADTOL =  1.00D-06  THROVL  =  1.00D-15
 THRORTH =  1.00D-08  GRID    =  1.00D-06  GRIDMAX =  1.00D-03  DTMAX   =  0.00D+00  THROCCDE=  1.00D-01  THROCCDE=  1.00D-01


 SETTING DKROLL         =         1.00000000                                  
 SETTING DKHO           =        10.00000000                                  
 SETTING DKHP           =         4.00000000                                  

 Variable memory set to 1000000000 words,  buffer space   230000 words

 SETTING BASIS          =    USERDEF
 SETTING NB_CCSD        =     -3818.57030200                                  
 SETTING H_CCSD         =        -0.49982785                                  
 SETTING NE             =        42.00000000                                  
 SETTING SYMM           =         1.00000000                                  
 SETTING SS             =         4.00000000                                  
 SETTING A1             =        11.00000000                                  
 SETTING B1             =         5.00000000                                  
 SETTING B2             =         5.00000000                                  
 SETTING A2             =         2.00000000                                  

Geometry recognized as XYZ



 Recomputing integrals since basis changed


 Using spherical harmonics



 PROGRAM * SEWARD (Integral evaluation for generally contracted gaussian basis sets)     Author: Roland Lindh, 1990

 Geometry written to block  1 of record 700


 Point group  C2v 



 ATOMIC COORDINATES

 NR  ATOM    CHARGE       X              Y              Z

   1  NB     41.00    0.000000000    0.000000000    0.000000000
   2  H       1.00    0.000000000    0.000000000    2.645616574

 Bond lengths in Bohr (Angstrom)

 1-2  2.645616574
     ( 1.400000000)

 NUCLEAR CHARGE:                   42
 NUMBER OF PRIMITIVE AOS:         550
 NUMBER OF SYMMETRY AOS:          417
 NUMBER OF CONTRACTIONS:          417   ( 168A1  +  98B1  +  98B2  +  53A2  )
 NUMBER OF CORE ORBITALS:          18   (   9A1  +   4B1  +   4B2  +   1A2  )
 NUMBER OF VALENCE ORBITALS:        7   (   4A1  +   1B1  +   1B2  +   1A2  )


 NUCLEAR REPULSION ENERGY   15.49733261

 One-electron integrals computed with SEWARD

 10nd-order Douglas-Kroll-Hess method activated. McWeeny DKH parametrization is used.

 Computing Douglas-Kroll / X2C integrals

 AO integral compression algorithm  1   Integral accuracy      1.0D-15

     3013.870 MB (compressed) written to integral file ( 43.8%)

     Node minimum: 107.217 MB, node maximum: 529.793 MB


 NUMBER OF SORTED TWO-ELECTRON INTEGRALS:   88060577.     BUFFER LENGTH:  32768
 NUMBER OF SEGMENTS:   3  SEGMENT LENGTH:   31988502      RECORD LENGTH: 524288

 Memory used in sort:      32.55 MW

 SORT1 READ   859012552. AND WROTE    29869918. INTEGRALS IN     86 RECORDS. CPU TIME:    14.27 SEC, REAL TIME:    18.04 SEC
 SORT2 READ   326352848. AND WROTE   968253495. INTEGRALS IN  11671 RECORDS. CPU TIME:     1.42 SEC, REAL TIME:     2.69 SEC

 Node minimum:    88001977.  Node maximum:    88124873. integrals

 OPERATOR DM      FOR CENTER  0  COORDINATES:    0.000000    0.000000    0.000000

 EXTRA SYMMETRY OF AOS IN SYMMETRY 1:   1 1 1 1 1 1 1 1 1 1   1 1 1 1 1 1 1 1 1 1   1 1 1 1 1 1 1 1 1 1   1 1 1 1 1 1 1 1 1 1
                                        1 1 1 1 1 1 1 1 1 1   1 1 1 1 1 1 1 1 1 1   1 1 1 1 1 1 2 1 2 1   2 1 2 1 2 1 2 1 2 1
                                        2 1 2 1 2 1 2 1 2 1   2 1 2 1 2 1 2 1 2 1   2 1 2 1 2 1 2 1 2 1   2 1 2 1 2 1 2 1 2 1
                                        2 1 2 1 3 2 1 3 2 1   3 2 1 3 2 1 3 2 2 3   1 2 3 1 2 3 1 4 3 2   1 4 3 2 1 1 1 1 1 1
                                        1 1 1 1 1 2 1 2
 EXTRA SYMMETRY OF AOS IN SYMMETRY 2:   1 1 1 1 1 1 1 1 1 1   1 1 1 1 1 1 1 1 1 1   1 1 1 1 1 1 1 1 1 1   1 1 1 1 1 1 1 1 1 1
                                        1 1 1 1 1 1 1 1 1 1   1 1 1 1 1 1 1 2 1 2   1 2 1 2 1 2 1 2 1 2   1 2 1 2 1 2 1 2 1 2
                                        3 1 2 3 1 2 3 3 2 1   3 2 1 1 1 1 1 1
 EXTRA SYMMETRY OF AOS IN SYMMETRY 3:   1 1 1 1 1 1 1 1 1 1   1 1 1 1 1 1 1 1 1 1   1 1 1 1 1 1 1 1 1 1   1 1 1 1 1 1 1 1 1 1
                                        1 1 1 1 1 1 1 1 1 1   1 1 1 1 1 1 1 2 1 2   1 2 1 2 1 2 1 2 1 2   1 2 1 2 1 2 1 2 1 2
                                        3 1 2 3 1 2 3 3 2 1   3 2 1 1 1 1 1 1
 EXTRA SYMMETRY OF AOS IN SYMMETRY 4:   1 1 1 1 1 1 1 1 1 1   1 1 1 1 1 1 1 1 1 1   1 1 1 1 1 1 1 1 1 1   2 1 2 1 2 1 2 1 2 2
                                        1 2 1 2 1 1 3 2 1 3   2 1 1

 Eigenvalues of metric

         1 0.327E-06 0.217E-05 0.534E-05 0.674E-05 0.113E-04 0.129E-04 0.257E-04 0.280E-04
         2 0.338E-06 0.217E-05 0.602E-05 0.126E-04 0.263E-04 0.399E-04 0.494E-04 0.355E-03
         3 0.338E-06 0.217E-05 0.602E-05 0.126E-04 0.263E-04 0.399E-04 0.494E-04 0.355E-03
         4 0.399E-04 0.664E-03 0.112E-02 0.208E-02 0.393E-02 0.740E-02 0.137E-01 0.245E-01


 **********************************************************************************************************************************
 DATASETS  * FILE   NREC   LENGTH (MB)   RECORD NAMES
              1      22       23.36       500      610      700      900      950      970     1000      129      960     1700   
                                          VAR    BASINP    GEOM    SYMINP    ZMAT    AOBASIS   BASIS     P2S    ABASIS    OPER   
                                         1101     1401     1411     1412     1650     1100     1400     1410     1200     1210   
                                          SR      EKINR    POTR     PVPR    MOLCAS      S      EKIN      POT      H0       H01  
                                         1080     1600   
                                         AOSYM     SMH  

 PROGRAMS   *        TOTAL       INT
 CPU TIMES  *       165.84    165.69
 REAL TIME  *       173.68 SEC
 DISK USED  *         7.08 GB      
 GA USED    *         0.00 MB       (max)       0.00 MB       (current)
 **********************************************************************************************************************************


 PROGRAM * RHF-SCF (OPEN SHELL)       Authors: W. Meyer, H.-J. Werner


 NUMBER OF ELECTRONS:      23+   19-    SPACE SYMMETRY=1    SPIN SYMMETRY: Quintet 
 CONVERGENCE THRESHOLDS:    1.00E-05 (Density)    1.00E-07 (Energy)
 MAX. NUMBER OF ITERATIONS:      200
 INTERPOLATION TYPE:            DIIS
 INTERPOLATION STEPS:              2 (START)      1 (STEP)
 LEVEL SHIFTS:                 -0.60 (CLOSED) -0.30 (OPEN) 

 Number of closed-shell orbitals:   19 (  10   4   4   1 )
 Number of open-shell orbitals:      4 (   1   1   1   1 )


 Orbital guess generated from atomic densities. Full valence occupancy:   13   5   5   2

 Molecular orbital dump at record        2100.2

 ITERATION    DDIFF          GRAD             ENERGY        2-EL.EN.            DIPOLE MOMENTS         DIIS   ORB.
    1      0.000D+00      0.000D+00     -3814.57148810   2771.824664    0.00000    0.00000   -7.75673    0    start
    2      0.000D+00      0.136D-01     -3816.94541060   3026.253431    0.00000    0.00000   -0.42778    1    diag,B
    3      0.823D+00      0.199D-01     -3817.49946764   2986.190704    0.00000    0.00000   -0.82098    2    diag,B
    4      0.367D-02      0.840D-02     -3817.67753198   2965.998879    0.00000    0.00000   -1.03290    3    diag,B
    5      0.187D-02      0.398D-02     -3817.73874379   2951.398472    0.00000    0.00000   -1.17534    4    diag,B
    6      0.191D-02      0.111D-02     -3817.74876884   2945.089170    0.00000    0.00000   -1.22234    5    diag,B
    7      0.950D-03      0.211D-03     -3817.74985302   2943.791658    0.00000    0.00000   -1.21328    6    diag,B
    8      0.553D-03      0.128D-03     -3817.75007304   2943.624406    0.00000    0.00000   -1.19408    7    diag,B
    9      0.293D-03      0.747D-04     -3817.75014750   2943.658077    0.00000    0.00000   -1.17508    8    diag,B
   10      0.190D-03      0.382D-04     -3817.75018395   2943.727278    0.00000    0.00000   -1.15633    9    orth
   11      0.122D-03      0.148D-04     -3817.75019554   2943.744453    0.00000    0.00000   -1.14375    9    diag,B
   12      0.877D-04      0.703D-05     -3817.75019759   2943.735816    0.00000    0.00000   -1.13954    9    diag,B
   13      0.452D-04      0.321D-05     -3817.75019806   2943.736447    0.00000    0.00000   -1.13731    9    diag,B
   14      0.271D-04      0.121D-05     -3817.75019812   2943.734751    0.00000    0.00000   -1.13667    9    diag,B
   15      0.176D-04      0.452D-06     -3817.75019813   2943.734958    0.00000    0.00000   -1.13639    9    diag,B
   16      0.138D-04      0.201D-06     -3817.75019813   2943.734700    0.00000    0.00000   -1.13633    9    diag,B
   17      0.455D-05      0.106D-06     -3817.75019813   2943.734650    0.00000    0.00000   -1.13632    0    orth

 Final alpha occupancy:  11   5   5   2
 Final beta  occupancy:  10   4   4   1

 !RHF STATE 1.1 Energy              -3817.750198129091
 Nuclear energy                        15.49733261
 One-electron energy                -5305.11485578
 Two-electron energy                 1471.86732505
 Virial quotient                       -0.90722928
 !RHF STATE 1.1 Dipole moment           0.00000000     0.00000000    -1.13631544
 Dipole moment /Debye                   0.00000000     0.00000000    -2.88803659

 ELECTRON ORBITALS
 =================


   Orb  Occ    Energy  Couls-En    Coefficients

                                   1 1s      1 1s      1 1s      1 1s      1 1s      1 1s      1 1s      1 1s      1 1s      1 1s   
                                   1 1s      1 1s      1 1s      1 1s      1 1s      1 1s      1 1s      1 1s      1 1s      1 1s   
                                   1 1s      1 1s      1 1s      1 1s      1 1s      1 1s      1 1s      1 1s      1 1s      1 1s   
                                   1 1s      1 1s      1 2pz     1 2pz     1 2pz     1 2pz     1 2pz     1 2pz     1 2pz     1 2pz  
                                   1 2pz     1 2pz     1 2pz     1 2pz     1 2pz     1 2pz     1 2pz     1 2pz     1 2pz     1 2pz  
                                   1 2pz     1 2pz     1 2pz     1 2pz     1 2pz     1 2pz     1 2pz     1 2pz     1 2pz     1 2pz  
                                   1 2pz     1 2pz     1 2pz     1 2pz     1 2pz     1 3d0     1 3d2+    1 3d0     1 3d2+    1 3d0  
                                   1 3d2+    1 3d0     1 3d2+    1 3d0     1 3d2+    1 3d0     1 3d2+    1 3d0     1 3d2+    1 3d0  
                                   1 3d2+    1 3d0     1 3d2+    1 3d0     1 3d2+    1 3d0     1 3d2+    1 3d0     1 3d2+    1 3d0  
                                   1 3d2+    1 3d0     1 3d2+    1 3d0     1 3d2+    1 3d0     1 3d2+    1 3d0     1 3d2+    1 3d0  
                                   1 3d2+    1 3d0     1 3d2+    1 3d0     1 3d2+    1 3d0     1 3d2+    1 3d0     1 3d2+    1 3d0  
                                   1 3d2+    1 4f0     1 4f2+    1 4f0     1 4f2+    1 4f0     1 4f2+    1 4f0     1 4f2+    1 4f0  
                                   1 4f2+    1 4f0     1 4f2+    1 5g0     1 5g4+    1 5g2+    1 5g0     1 5g4+    1 5g2+    1 5g0  
                                   1 5g4+    1 5g2+    1 5g0     1 5g4+    1 5g2+    1 5g0     1 5g4+    1 5g2+    1 6h2+    1 6h4+ 
                                   1 6h0     1 6h2+    1 6h4+    1 6h0     1 6h2+    1 6h4+    1 6h0     1 7i6+    1 7i4+    1 7i2+ 
                                   1 7i0     1 7i6+    1 7i4+    1 7i2+    1 7i0     2 1s      2 1s      2 1s      2 1s      2 1s   
                                   2 1s      2 2pz     2 2pz     2 2pz     2 3d0     2 3d2+    2 3d0     2 3d2+ 

   1.1   2  -701.3622-1561.7509  0.000042  0.000115  0.000295  0.000468  0.000891  0.001786  0.003710  0.007904  0.017860  0.041501
                                 0.001176  0.099562  0.228267  0.385127  0.362554 -0.047577  0.073108 -0.011098  0.021898 -0.024483
                                 0.011001 -0.009826  0.011564 -0.006715  0.008142 -0.007625  0.001973  0.000599 -0.000589 -0.000076
                                 0.000022 -0.000006 -0.000000 -0.000000 -0.000000  0.000000 -0.000000  0.000000 -0.000001  0.000001
                                -0.000001  0.000006 -0.000008  0.000003 -0.000006  0.000018 -0.000036  0.000032 -0.000023  0.000046
                                -0.000297  0.000675 -0.001187  0.001231 -0.000688  0.000876 -0.001181  0.000683 -0.000250  0.000350
                                 0.000611 -0.000261 -0.000014  0.000002 -0.000000 -0.000000 -0.000000  0.000000  0.000000 -0.000001
                                -0.000000  0.000001  0.000000 -0.000001 -0.000000  0.000000 -0.000000 -0.000000 -0.000000  0.000001
                                -0.000000 -0.000002  0.000000  0.000002 -0.000000 -0.000004  0.000000  0.000006 -0.000000 -0.000010
                                 0.000000  0.000021 -0.000000 -0.000047  0.000000  0.000074 -0.000000 -0.000043  0.000000  0.000241
                                 0.000000  0.000103 -0.000000 -0.000070  0.000000 -0.000018 -0.000000  0.000000  0.000000  0.000000
                                -0.000000  0.000004 -0.000000 -0.000008  0.000000  0.000007 -0.000000  0.000046  0.000000  0.000053
                                -0.000000 -0.000022  0.000000 -0.000003 -0.000000 -0.000000  0.000010  0.000000  0.000000  0.000009
                                -0.000000 -0.000000  0.000010  0.000000  0.000000 -0.000004 -0.000000 -0.000000  0.000000 -0.000000
                                -0.000002  0.000000  0.000000  0.000004  0.000000 -0.000000  0.000007  0.000000 -0.000000 -0.000000
                                -0.000001 -0.000000  0.000000 -0.000000  0.000005 -0.000000  0.000003 -0.000023 -0.000075 -0.001364
                                 0.000572  0.000015  0.000020  0.000298 -0.000002  0.000000  0.000002 -0.000000

   2.1   2  -100.7445 -315.0714 -0.000014 -0.000038 -0.000098 -0.000156 -0.000294 -0.000598 -0.001228 -0.002688 -0.005960 -0.015075
                                 0.001569 -0.038170 -0.087732 -0.193965 -0.178896 -0.067982  0.232160  0.724319  0.273418 -0.030818
                                -0.001352  0.020370 -0.027486  0.017381 -0.023125  0.021887 -0.005805 -0.001832  0.001811  0.000229
                                -0.000065  0.000017  0.000000  0.000000  0.000000 -0.000000  0.000000 -0.000000  0.000001 -0.000001
                                 0.000001 -0.000007  0.000009 -0.000004  0.000008 -0.000024  0.000050 -0.000047  0.000036 -0.000091
                                 0.000636 -0.001511  0.002803 -0.003013  0.001770 -0.002436  0.003396 -0.002022  0.000747 -0.001035
                                -0.001845  0.000799  0.000044 -0.000007  0.000001  0.000000  0.000000 -0.000000 -0.000000  0.000000
                                 0.000000 -0.000000 -0.000000  0.000000  0.000000  0.000001  0.000000  0.000002 -0.000000  0.000010
                                 0.000000  0.000027  0.000000  0.000005  0.000000  0.000008  0.000000 -0.000010  0.000000  0.000023
                                 0.000000 -0.000052  0.000000  0.000132  0.000000 -0.000229  0.000000  0.000147  0.000000 -0.000727
                                 0.000000 -0.000311  0.000000  0.000211  0.000000  0.000056  0.000000 -0.000001  0.000000 -0.000000
                                -0.000000 -0.000010 -0.000000  0.000028 -0.000000 -0.000026 -0.000000 -0.000131 -0.000000 -0.000159
                                 0.000000  0.000067 -0.000000  0.000012  0.000000  0.000000 -0.000038 -0.000000 -0.000000 -0.000018
                                 0.000000  0.000000 -0.000030 -0.000000 -0.000000  0.000011  0.000000  0.000000 -0.000000  0.000000
                                 0.000007 -0.000000 -0.000000 -0.000014  0.000000  0.000000 -0.000018  0.000000  0.000000  0.000000
                                 0.000003  0.000000 -0.000000 -0.000000 -0.000016  0.000001 -0.000010  0.000071  0.000215  0.004103
                                -0.001752 -0.000049 -0.000064 -0.000896  0.000011  0.000000 -0.000005 -0.000000

   3.1   2   -89.7416 -300.0037 -0.000000 -0.000000 -0.000000 -0.000000 -0.000000 -0.000000 -0.000000 -0.000000 -0.000000 -0.000000
                                 0.000000 -0.000001 -0.000001 -0.000003  0.000001 -0.000005  0.000008  0.000020 -0.000021  0.000009
                                -0.000017  0.000026 -0.000035  0.000032 -0.000097  0.000089  0.000016  0.000036 -0.000060 -0.000011
                                 0.000003 -0.000001  0.000015  0.000056  0.000199  0.000055  0.000667  0.000582  0.000980  0.002015
                                 0.007616  0.018570  0.000712  0.050136  0.118912  0.237818 -0.002921  0.348761  0.291742  0.103395
                                 0.013314 -0.006011  0.011320 -0.009719  0.004187 -0.002848  0.002790 -0.001204  0.000260 -0.000064
                                 0.000055 -0.000029 -0.000002  0.000000  0.000000  0.000000  0.000000  0.000000 -0.000000  0.000000
                                 0.000000 -0.000000 -0.000000  0.000000  0.000000  0.000000 -0.000000  0.000000 -0.000000  0.000006
                                -0.000000  0.000010 -0.000000 -0.000003 -0.000000 -0.000002 -0.000000  0.000000 -0.000000  0.000006
                                -0.000000 -0.000003  0.000000  0.000005  0.000000 -0.000006  0.000000  0.000034  0.000000  0.000001
                                 0.000000  0.000016  0.000000 -0.000007  0.000000 -0.000003  0.000000  0.000000  0.000000 -0.000000
                                -0.000000  0.000006 -0.000000  0.000000  0.000000  0.000005  0.000000  0.000017  0.000000  0.000006
                                -0.000000 -0.000001  0.000000  0.000001  0.000000 -0.000000 -0.000002  0.000000  0.000000  0.000006
                                 0.000000 -0.000000  0.000003  0.000000  0.000000  0.000000  0.000000 -0.000000  0.000000  0.000000
                                 0.000000 -0.000000 -0.000000 -0.000000  0.000000  0.000000  0.000001 -0.000000  0.000000  0.000000
                                 0.000000  0.000000 -0.000000 -0.000000 -0.000000 -0.000000  0.000000  0.000000 -0.000066 -0.000032
                                 0.000066  0.000001  0.000018 -0.000013 -0.000002  0.000000  0.000004 -0.000000

   4.1   2   -17.9172 -105.8571  0.000006  0.000016  0.000041  0.000065  0.000124  0.000251  0.000516  0.001131  0.002505  0.006391
                                -0.000736  0.016288  0.037646  0.086225  0.081833  0.037232 -0.139081 -0.606685 -0.320935  0.339912
                                 0.762088  0.541469 -0.318943  0.170328 -0.186979  0.175351 -0.045040 -0.013605  0.013517  0.001803
                                -0.000519  0.000137 -0.000000 -0.000000 -0.000000 -0.000000 -0.000000 -0.000001  0.000002 -0.000003
                                 0.000002 -0.000029  0.000031 -0.000028 -0.000009 -0.000150  0.000199 -0.000283  0.000090 -0.000272
                                 0.003432 -0.007725  0.015160 -0.016767  0.010453 -0.015165  0.021357 -0.012959  0.005395 -0.007669
                                -0.014081  0.006054  0.000317 -0.000043  0.000006  0.000000 -0.000000 -0.000000  0.000000  0.000002
                                -0.000000 -0.000003  0.000000  0.000002 -0.000000 -0.000002 -0.000000  0.000005 -0.000000 -0.000006
                                -0.000000  0.000003 -0.000000  0.000022 -0.000000  0.000126 -0.000000  0.000219  0.000000  0.000425
                                -0.000000 -0.000456 -0.000000  0.000918 -0.000000 -0.001386 -0.000000  0.001006 -0.000000 -0.005448
                                -0.000000 -0.002408 -0.000000  0.001620 -0.000000  0.000409 -0.000000 -0.000001  0.000000 -0.000002
                                 0.000000  0.000204 -0.000000 -0.000126  0.000000 -0.000009 -0.000000 -0.000969  0.000000 -0.001218
                                 0.000000  0.000511 -0.000000  0.000066  0.000000  0.000000 -0.000190 -0.000000 -0.000000 -0.000169
                                 0.000000  0.000000 -0.000218 -0.000000 -0.000000  0.000083  0.000000  0.000000  0.000000  0.000000
                                 0.000026 -0.000000 -0.000000 -0.000049  0.000000 -0.000000 -0.000131  0.000000 -0.000000  0.000000
                                 0.000020  0.000000 -0.000000 -0.000000 -0.000094  0.000002 -0.000029  0.000427  0.001328  0.031115
                                -0.013225 -0.000266 -0.000281 -0.006768  0.000010  0.000000 -0.000085 -0.000000

   5.1   2   -14.2189  -99.0433 -0.000000 -0.000000 -0.000000 -0.000000 -0.000000 -0.000000 -0.000000 -0.000000 -0.000001 -0.000002
                                 0.000000 -0.000006 -0.000015 -0.000033 -0.000036 -0.000007  0.000049  0.000207  0.000023  0.000204
                                -0.000451 -0.000434  0.000455 -0.000382 -0.001519  0.001681  0.001421  0.001106 -0.001668 -0.000176
                                 0.000040 -0.000010 -0.000006 -0.000024 -0.000086 -0.000024 -0.000288 -0.000256 -0.000417 -0.000888
                                -0.003324 -0.008289 -0.000214 -0.022620 -0.055091 -0.115836  0.002927 -0.180385 -0.122268  0.158056
                                 0.461027 -0.007555  0.444859 -0.045753  0.138864 -0.016442  0.025666 -0.011082  0.003593  0.000008
                                 0.000983 -0.000690 -0.000057  0.000013 -0.000003 -0.000000  0.000000 -0.000000 -0.000000 -0.000001
                                 0.000000  0.000000 -0.000000 -0.000001  0.000000 -0.000003  0.000000 -0.000009  0.000000 -0.000028
                                 0.000000 -0.000072  0.000000 -0.000102  0.000000 -0.000113  0.000000  0.000035 -0.000000  0.000261
                                -0.000000 -0.000082  0.000000 -0.000041  0.000000  0.000243  0.000000  0.000852  0.000000  0.000114
                                 0.000000  0.000267  0.000000 -0.000184  0.000000 -0.000054 -0.000000  0.000001  0.000000  0.000000
                                -0.000000  0.000713  0.000000 -0.000595 -0.000000  0.000250 -0.000000  0.000425 -0.000000  0.000063
                                 0.000000 -0.000035 -0.000000  0.000040 -0.000000 -0.000000 -0.000017 -0.000000  0.000000  0.000190
                                -0.000000 -0.000000  0.000047 -0.000000  0.000000 -0.000007 -0.000000 -0.000000  0.000000  0.000000
                                 0.000023 -0.000000 -0.000000  0.000005  0.000000  0.000000  0.000050  0.000000  0.000000 -0.000000
                                 0.000002 -0.000000 -0.000000  0.000000  0.000019 -0.000001  0.000024  0.000009 -0.002044 -0.001479
                                 0.001618  0.000047  0.000761  0.000236 -0.000083 -0.000000 -0.000036  0.000000

   6.1   2    -8.1476  -88.4011 -0.000000 -0.000000 -0.000000 -0.000000 -0.000000 -0.000000 -0.000001 -0.000001 -0.000003 -0.000007
                                 0.000001 -0.000018 -0.000042 -0.000097 -0.000090 -0.000048  0.000174  0.000787  0.000383 -0.000607
                                -0.001815  0.000778  0.000392  0.000383 -0.001239  0.000379  0.002505  0.000633 -0.000665 -0.000021
                                -0.000000  0.000001  0.000000  0.000000  0.000000  0.000000  0.000000  0.000000  0.000001  0.000000
                                 0.000002  0.000001  0.000004  0.000008  0.000029  0.000045  0.000025  0.000064  0.000059 -0.000228
                                 0.000112 -0.001232  0.002258 -0.002546  0.002434 -0.002793  0.004239 -0.002880  0.001131  0.001417
                                 0.000322 -0.000235 -0.000022  0.000007 -0.000002  0.000101 -0.000000  0.000017 -0.000000  0.001144
                                -0.000000 -0.000755  0.000000  0.002169 -0.000000  0.006185 -0.000000  0.020197 -0.000000  0.055337
                                -0.000000  0.131353 -0.000000  0.237747 -0.000000  0.316477 -0.000000  0.293082 -0.000000  0.155010
                                -0.000000  0.039146 -0.000000  0.004455 -0.000000  0.000051 -0.000000  0.001326 -0.000000  0.000055
                                -0.000000  0.000118 -0.000000 -0.000107 -0.000000  0.000001  0.000000 -0.000005 -0.000000  0.000002
                                 0.000000  0.000222  0.000000 -0.000138 -0.000000 -0.000001  0.000000  0.000551 -0.000000 -0.000022
                                -0.000000 -0.000011  0.000000  0.000262 -0.000000 -0.000000 -0.000398  0.000000  0.000000  0.000427
                                -0.000000 -0.000000 -0.000011  0.000000  0.000000 -0.000007 -0.000000 -0.000000 -0.000000 -0.000000
                                 0.000090  0.000000  0.000000 -0.000053 -0.000000  0.000000  0.000061 -0.000000  0.000000  0.000000
                                 0.000038  0.000000 -0.000000 -0.000000 -0.000015  0.000005  0.000012  0.000207 -0.002237 -0.001412
                                 0.000546 -0.000113  0.000615  0.000459 -0.000002 -0.000000  0.000032  0.000000

   7.1   2    -8.1423  -88.4182 -0.000000 -0.000000  0.000000 -0.000000 -0.000000 -0.000000 -0.000000 -0.000000 -0.000000 -0.000000
                                 0.000000 -0.000000 -0.000000 -0.000000  0.000000 -0.000000  0.000000 -0.000000  0.000000 -0.000000
                                 0.000000 -0.000000  0.000000 -0.000000  0.000000 -0.000000  0.000000  0.000000 -0.000000 -0.000000
                                 0.000000 -0.000000 -0.000000  0.000000 -0.000000 -0.000000 -0.000000  0.000000 -0.000000  0.000000
                                -0.000000  0.000000 -0.000000  0.000000 -0.000000  0.000000 -0.000000 -0.000000  0.000000 -0.000000
                                 0.000000 -0.000000 -0.000000  0.000000 -0.000000  0.000000 -0.000000  0.000000 -0.000000  0.000000
                                 0.000000 -0.000000 -0.000000 -0.000000  0.000000  0.000000  0.000101 -0.000000  0.000016  0.000000
                                 0.001145 -0.000000 -0.000757  0.000000  0.002171  0.000000  0.006191  0.000000  0.020220  0.000000
                                 0.055398  0.000000  0.131505  0.000000  0.237977  0.000000  0.316752  0.000000  0.292978  0.000000
                                 0.154349  0.000000  0.039097  0.000000  0.004300  0.000000  0.000320  0.000000  0.000065  0.000000
                                 0.000009  0.000000  0.000009 -0.000000 -0.000002 -0.000000  0.000001  0.000000 -0.000000 -0.000000
                                 0.000000  0.000000 -0.000194 -0.000000  0.000160  0.000000 -0.000056  0.000000  0.000017  0.000000
                                 0.000001 -0.000000 -0.000000  0.000000 -0.000000  0.000109 -0.000000  0.000000 -0.000115  0.000000
                                -0.000000  0.000077  0.000000  0.000000 -0.000005 -0.000000 -0.000000  0.000003  0.000051 -0.000000
                                 0.000000 -0.000038  0.000000 -0.000000  0.000011 -0.000000  0.000000  0.000000  0.000000  0.000017
                                 0.000000 -0.000000 -0.000000 -0.000006  0.000000  0.000000  0.000000  0.000000 -0.000000 -0.000000
                                 0.000000 -0.000000  0.000000  0.000000  0.000000  0.000006 -0.000000 -0.000030

   8.1   2    -2.6028  -40.6081 -0.000002 -0.000006 -0.000016 -0.000025 -0.000047 -0.000096 -0.000198 -0.000432 -0.000962 -0.002431
                                 0.000233 -0.006190 -0.014527 -0.033141 -0.033805 -0.012030  0.054541  0.268422  0.113668 -0.100750
                                -0.650401 -0.569072  0.560630  0.525507  1.110240 -0.713590  0.188725  0.049393 -0.053774 -0.008183
                                 0.002446 -0.000652  0.000000  0.000000  0.000000  0.000000  0.000000  0.000001 -0.000002  0.000005
                                 0.000001  0.000040 -0.000035  0.000051  0.000056  0.000272 -0.000233  0.000485 -0.000019  0.000126
                                -0.004899  0.009842 -0.021147  0.023303 -0.014495  0.029214 -0.039414  0.026174 -0.018380  0.025016
                                 0.053687 -0.025018 -0.001192  0.000113 -0.000003 -0.000000  0.000000  0.000000 -0.000000 -0.000002
                                 0.000000  0.000003 -0.000000 -0.000003  0.000000  0.000001  0.000000 -0.000008  0.000000 -0.000006
                                 0.000000 -0.000033  0.000000 -0.000054  0.000000 -0.000140  0.000000 -0.000176  0.000000 -0.000625
                                -0.000000  0.000900 -0.000000 -0.002622 -0.000000  0.001991 -0.000000 -0.002971 -0.000000  0.018908
                                -0.000000  0.009690 -0.000000 -0.006920 -0.000000 -0.001536  0.000000 -0.000043  0.000000  0.000026
                                -0.000000  0.000011  0.000000 -0.000333 -0.000000 -0.000430  0.000000  0.003274  0.000000  0.004489
                                 0.000000 -0.002069  0.000000 -0.000054 -0.000000 -0.000000  0.000398 -0.000000 -0.000000  0.000460
                                 0.000000 -0.000000  0.000599  0.000000 -0.000000 -0.000340 -0.000000  0.000000  0.000000 -0.000000
                                -0.000060  0.000000  0.000000  0.000336  0.000000 -0.000000  0.000610 -0.000000 -0.000000 -0.000000
                                -0.000025 -0.000000 -0.000000 -0.000000  0.000346  0.000304  0.002056  0.006356  0.002208 -0.116658
                                 0.054389 -0.001877 -0.000737  0.026311  0.000803 -0.000000  0.000314 -0.000000

   9.1   2    -1.5553  -35.3620  0.000000  0.000000  0.000000  0.000000  0.000000  0.000001  0.000002  0.000004  0.000009  0.000023
                                -0.000003  0.000059  0.000135  0.000312  0.000296  0.000141 -0.000531 -0.002450 -0.001363  0.001434
                                 0.005273  0.008196 -0.010075  0.002174 -0.011655 -0.001635 -0.017974 -0.004812 -0.000039 -0.000556
                                 0.000182 -0.000049  0.000002  0.000008  0.000030  0.000008  0.000100  0.000087  0.000149  0.000303
                                 0.001160  0.002845  0.000124  0.007869  0.019354  0.040811 -0.000801  0.064244  0.041504 -0.077190
                                -0.205240 -0.035072 -0.173674 -0.052674  0.125149  0.414310  0.027224  0.405834  0.175629  0.020282
                                 0.000717 -0.000419  0.000007 -0.000025  0.000010  0.000000 -0.000000 -0.000000 -0.000000  0.000002
                                -0.000000 -0.000003  0.000000  0.000003 -0.000000  0.000004 -0.000000  0.000019 -0.000000  0.000045
                                -0.000000  0.000130 -0.000000  0.000189 -0.000000  0.000291 -0.000000  0.000070 -0.000000 -0.000642
                                 0.000000 -0.002145  0.000000 -0.000675  0.000000 -0.004529  0.000000 -0.001951  0.000000 -0.002251
                                -0.000000  0.000737  0.000000 -0.000558 -0.000000  0.000175  0.000000 -0.000064 -0.000000  0.000022
                                 0.000000  0.000066 -0.000000  0.000761  0.000000  0.000424 -0.000000 -0.002744 -0.000000 -0.000539
                                 0.000000  0.000063 -0.000000  0.001007 -0.000000 -0.000000  0.000375  0.000000  0.000000  0.000868
                                -0.000000 -0.000000 -0.000110 -0.000000 -0.000000  0.000071  0.000000  0.000000  0.000000  0.000000
                                 0.000085  0.000000  0.000000  0.000543 -0.000000 -0.000000  0.000414 -0.000000  0.000000 -0.000000
                                 0.000013  0.000000  0.000000 -0.000000  0.000191  0.001185  0.008079  0.031432  0.043120  0.014500
                                 0.001222 -0.007006 -0.008610 -0.002187  0.002209 -0.000000  0.000303  0.000000

  10.1   2    -0.3717  -18.1000  0.000000  0.000001  0.000003  0.000005  0.000009  0.000018  0.000036  0.000079  0.000177  0.000446
                                -0.000041  0.001136  0.002675  0.006093  0.006322  0.002093 -0.010017 -0.050439 -0.019864  0.015882
                                 0.135803  0.117972 -0.123702 -0.175208 -0.242969  0.075890 -0.029005 -0.008326  0.260434  0.021019
                                -0.004746  0.001151 -0.000001 -0.000002 -0.000007 -0.000002 -0.000024 -0.000021 -0.000034 -0.000073
                                -0.000273 -0.000682 -0.000018 -0.001866 -0.004570 -0.009693  0.000266 -0.015293 -0.009714  0.018613
                                 0.050771  0.006987  0.045132  0.011791 -0.037454 -0.117628 -0.023933 -0.084526 -0.101944 -0.026854
                                -0.044586  0.111761  0.005424 -0.001015  0.000215 -0.000011 -0.000000 -0.000003  0.000000 -0.000119
                                -0.000000  0.000070  0.000000 -0.000234 -0.000000 -0.000711 -0.000000 -0.002279 -0.000000 -0.006360
                                -0.000000 -0.015119 -0.000000 -0.027418 -0.000000 -0.034778 -0.000000 -0.028834 -0.000000  0.011564
                                -0.000000  0.066656  0.000000  0.124762  0.000000  0.117043  0.000000  0.068757  0.000000  0.053096
                                 0.000000 -0.009366  0.000000  0.032803  0.000000  0.006449  0.000000  0.000151 -0.000000 -0.000100
                                 0.000000  0.004525  0.000000  0.000801  0.000000  0.021063  0.000000  0.003656 -0.000000  0.000879
                                -0.000000  0.005714  0.000000  0.002871  0.000000 -0.000000  0.002636  0.000000 -0.000000 -0.003877
                                 0.000000 -0.000000 -0.001641  0.000000 -0.000000  0.001623 -0.000000  0.000000 -0.000000 -0.000000
                                 0.000304 -0.000000 -0.000000  0.000405 -0.000000  0.000000 -0.000894  0.000000  0.000000  0.000000
                                 0.000195 -0.000000  0.000000  0.000000 -0.000434  0.005450  0.039317  0.165593  0.410365  0.430846
                                -0.221914 -0.009136 -0.049137 -0.054476  0.003026 -0.000000  0.006281 -0.000000

  11.1   +    -0.2344  -22.8165  0.000000  0.000000  0.000000  0.000000  0.000000  0.000000  0.000000  0.000000  0.000000  0.000000
                                -0.000000  0.000000  0.000000  0.000000  0.000000  0.000000 -0.000000 -0.000000 -0.000000  0.000000
                                 0.000000  0.000000 -0.000000 -0.000000 -0.000000  0.000000  0.000000  0.000000  0.000000 -0.000000
                                 0.000000 -0.000000  0.000000  0.000000  0.000000  0.000000  0.000000  0.000000  0.000000  0.000000
                                 0.000000  0.000000 -0.000000  0.000000  0.000000  0.000000 -0.000000  0.000000  0.000000 -0.000000
                                -0.000000 -0.000000 -0.000000 -0.000000  0.000000  0.000000  0.000000  0.000000  0.000000 -0.000000
                                -0.000000 -0.000000  0.000000 -0.000000  0.000000  0.000000 -0.000023  0.000000 -0.000004  0.000000
                                -0.000265 -0.000000  0.000174  0.000000 -0.000504  0.000000 -0.001449  0.000000 -0.004738  0.000000
                                -0.013077  0.000000 -0.031349  0.000000 -0.056435  0.000000 -0.072147  0.000000 -0.058051 -0.000000
                                 0.024634 -0.000000  0.153908 -0.000000  0.250756 -0.000000  0.284077 -0.000000  0.256495 -0.000000
                                 0.187832 -0.000000  0.097345  0.000000  0.026489 -0.000000  0.001791  0.000000  0.000048  0.000000
                                -0.000015 -0.000000 -0.000754 -0.000000  0.000557 -0.000000 -0.003341  0.000000 -0.015115  0.000000
                                -0.012935  0.000000 -0.000487  0.000000 -0.000000  0.001515 -0.000000 -0.000000  0.001031  0.000000
                                -0.000000  0.000804 -0.000000 -0.000000 -0.000173  0.000000 -0.000000 -0.000139  0.000036 -0.000000
                                -0.000000  0.000172 -0.000000 -0.000000 -0.000136  0.000000 -0.000000 -0.000000  0.000000 -0.000059
                                 0.000000  0.000000  0.000000  0.000018 -0.000000 -0.000000 -0.000000 -0.000000 -0.000000  0.000000
                                -0.000000  0.000000  0.000000 -0.000000 -0.000000  0.001051  0.000000 -0.000530

  12.1   0    -0.0061   -7.6458  0.000000  0.000001  0.000002  0.000003  0.000005  0.000010  0.000021  0.000045  0.000100  0.000252
                                -0.000023  0.000642  0.001511  0.003445  0.003556  0.001207 -0.005677 -0.028460 -0.011492  0.009495
                                 0.075959  0.067895 -0.072026 -0.089382 -0.257119  0.148785  0.002009  0.150862  0.109307  0.271077
                                 0.238464  0.185746  0.000000  0.000001  0.000002  0.000001  0.000008  0.000008  0.000011  0.000027
                                 0.000095  0.000254 -0.000008  0.000671  0.001614  0.003487 -0.000188  0.005525  0.003372 -0.006428
                                -0.019754  0.001873 -0.025262  0.006720  0.005971  0.054092 -0.013058  0.054014  0.018925 -0.005715
                                -0.125588 -0.180779 -0.128868 -0.093244 -0.043916  0.000004  0.000000  0.000001  0.000000  0.000044
                                 0.000000 -0.000029 -0.000000  0.000083  0.000000  0.000234  0.000000  0.000769  0.000000  0.002116
                                 0.000000  0.005080  0.000000  0.009134  0.000000  0.011724  0.000000  0.009481  0.000000 -0.003475
                                -0.000000 -0.023921 -0.000000 -0.039081 -0.000000 -0.045788 -0.000000 -0.033531 -0.000000 -0.048044
                                -0.000000 -0.029613 -0.000000 -0.021114 -0.000000 -0.013607 -0.000000  0.002295 -0.000000  0.003597
                                 0.000000 -0.000408 -0.000000 -0.000273 -0.000000 -0.001885 -0.000000  0.004746  0.000000  0.002904
                                 0.000000  0.002687  0.000000 -0.000360 -0.000000 -0.000000 -0.000775 -0.000000 -0.000000 -0.000340
                                 0.000000  0.000000 -0.001292  0.000000 -0.000000  0.000255 -0.000000  0.000000 -0.000000 -0.000000
                                -0.000036 -0.000000  0.000000 -0.000159  0.000000 -0.000000  0.000315 -0.000000 -0.000000  0.000000
                                -0.000002  0.000000  0.000000  0.000000  0.000068 -0.000761 -0.005564 -0.023429 -0.057720  0.015446
                                 0.090020  0.001429  0.005452 -0.012921 -0.000656 -0.000000  0.000070  0.000000

  13.1   0     0.0036   -2.2827 -0.000000 -0.000000 -0.000001 -0.000001 -0.000002 -0.000004 -0.000008 -0.000017 -0.000038 -0.000095
                                 0.000007 -0.000242 -0.000580 -0.001306 -0.001444 -0.000334  0.002073  0.011038  0.003041 -0.001121
                                -0.031685 -0.016604  0.006642  0.059249 -0.008685  0.046912  0.001957  0.324595 -0.395210  0.616513
                                -1.611452  1.624494 -0.000000 -0.000000 -0.000001 -0.000000 -0.000003 -0.000001 -0.000010 -0.000002
                                -0.000041 -0.000028 -0.000072 -0.000191 -0.000603 -0.000978 -0.000410 -0.001440 -0.001552  0.003184
                                -0.001450  0.020172 -0.033988  0.046920 -0.034220  0.033472 -0.073782  0.032885 -0.039024  0.087067
                                 0.151973  0.160808 -0.107654  0.500897 -0.989605 -0.000002 -0.000000 -0.000000 -0.000000 -0.000019
                                -0.000000  0.000014  0.000000 -0.000034 -0.000000 -0.000090 -0.000000 -0.000304 -0.000000 -0.000822
                                -0.000000 -0.001998 -0.000000 -0.003552 -0.000000 -0.004630 -0.000000 -0.003619 -0.000000  0.001162
                                 0.000000  0.009858  0.000000  0.014043  0.000000  0.018501  0.000000  0.030290  0.000000  0.053461
                                 0.000000  0.065249  0.000000 -0.020061  0.000000  0.045253  0.000000 -0.037222  0.000000  0.128959
                                 0.000000  0.000200  0.000000 -0.000025  0.000000  0.000796  0.000000  0.013078 -0.000000  0.019163
                                -0.000000 -0.003684 -0.000000  0.000193 -0.000000  0.000000 -0.000319  0.000000  0.000000  0.004497
                                -0.000000 -0.000000  0.005273 -0.000000  0.000000  0.001197 -0.000000 -0.000000 -0.000000  0.000000
                                 0.000030  0.000000 -0.000000 -0.000010 -0.000000  0.000000  0.001207  0.000000 -0.000000 -0.000000
                                -0.000031 -0.000000  0.000000 -0.000000  0.000181  0.000268  0.002049  0.007870 -0.021240 -0.282088
                                -0.140720 -0.000281  0.008500  0.034797 -0.000029  0.000000  0.003577 -0.000000

                                   1 2px     1 2px     1 2px     1 2px     1 2px     1 2px     1 2px     1 2px     1 2px     1 2px  
                                   1 2px     1 2px     1 2px     1 2px     1 2px     1 2px     1 2px     1 2px     1 2px     1 2px  
                                   1 2px     1 2px     1 2px     1 2px     1 2px     1 2px     1 2px     1 2px     1 2px     1 2px  
                                   1 2px     1 2px     1 2px     1 3d1+    1 3d1+    1 3d1+    1 3d1+    1 3d1+    1 3d1+    1 3d1+ 
                                   1 3d1+    1 3d1+    1 3d1+    1 3d1+    1 3d1+    1 3d1+    1 3d1+    1 3d1+    1 3d1+    1 3d1+ 
                                   1 3d1+    1 3d1+    1 3d1+    1 3d1+    1 3d1+    1 3d1+    1 4f1+    1 4f3+    1 4f1+    1 4f3+ 
                                   1 4f1+    1 4f3+    1 4f1+    1 4f3+    1 4f1+    1 4f3+    1 4f1+    1 4f3+    1 5g1+    1 5g3+ 
                                   1 5g1+    1 5g3+    1 5g1+    1 5g3+    1 5g1+    1 5g3+    1 5g1+    1 5g3+    1 6h1+    1 6h3+ 
                                   1 6h5+    1 6h1+    1 6h3+    1 6h5+    1 6h1+    1 6h3+    1 6h5+    1 7i5+    1 7i3+    1 7i1+ 
                                   1 7i5+    1 7i3+    1 7i1+    2 2px     2 2px     2 2px     2 3d1+    2 3d1+ 

   1.2   2   -89.7380 -299.9994  0.000015  0.000056  0.000199  0.000055  0.000667  0.000582  0.000980  0.002015  0.007616  0.018570
                                 0.000712  0.050137  0.118913  0.237822 -0.002920  0.348760  0.291719  0.103417  0.013287 -0.005901
                                 0.011098 -0.009484  0.004041 -0.002689  0.002579 -0.001082  0.000210 -0.000072  0.000030 -0.000007
                                 0.000004 -0.000002  0.000001 -0.000000 -0.000000 -0.000000 -0.000000 -0.000000 -0.000001 -0.000003
                                -0.000004 -0.000003  0.000004  0.000003 -0.000002 -0.000002 -0.000001 -0.000000  0.000000  0.000008
                                 0.000000  0.000004 -0.000001  0.000000 -0.000000  0.000000  0.000007 -0.000000 -0.000009  0.000000
                                 0.000003  0.000000  0.000004  0.000000  0.000002 -0.000000  0.000000  0.000000  0.000001 -0.000000
                                -0.000001  0.000000  0.000003 -0.000000  0.000000  0.000000  0.000000 -0.000000  0.000000  0.000000
                                 0.000000 -0.000000 -0.000000 -0.000000  0.000001  0.000000  0.000000  0.000000 -0.000000 -0.000000
                                 0.000000 -0.000000  0.000000  0.000000 -0.000007 -0.000009  0.000001  0.000004

   2.2   2   -14.2086  -99.0319 -0.000006 -0.000024 -0.000086 -0.000024 -0.000288 -0.000256 -0.000417 -0.000888 -0.003325 -0.008287
                                -0.000219 -0.022623 -0.055108 -0.115851  0.002894 -0.180401 -0.122301  0.158192  0.460704 -0.006151
                                 0.442209 -0.043241  0.137084 -0.014221  0.023120 -0.009356  0.002232 -0.000657  0.000318 -0.000068
                                 0.000039 -0.000020  0.000006  0.000000 -0.000000  0.000000 -0.000000  0.000000  0.000001  0.000003
                                 0.000004  0.000013  0.000030  0.000047 -0.000088 -0.000018  0.000049 -0.000013 -0.000013  0.000143
                                -0.000011  0.000056 -0.000012  0.000004 -0.000001  0.000000  0.000410  0.000000 -0.000303 -0.000000
                                 0.000104 -0.000000  0.000065 -0.000000  0.000019  0.000000  0.000001 -0.000000  0.000018 -0.000000
                                -0.000050  0.000000  0.000081 -0.000000 -0.000004  0.000000  0.000005 -0.000000  0.000022  0.000000
                                 0.000000 -0.000017 -0.000000 -0.000000  0.000029  0.000000  0.000000  0.000000 -0.000000 -0.000002
                                -0.000000  0.000000  0.000012 -0.000000 -0.000170 -0.000125  0.000026  0.000077

   3.2   2    -8.1496  -88.4257 -0.000000 -0.000000 -0.000000 -0.000000 -0.000000 -0.000000  0.000000 -0.000000 -0.000000 -0.000001
                                 0.000001 -0.000002 -0.000004 -0.000013  0.000006 -0.000024 -0.000008  0.000035  0.000219 -0.000236
                                 0.000364 -0.000599  0.000273 -0.000272  0.000484 -0.000280  0.000044  0.000032 -0.000108  0.000006
                                -0.000003  0.000002 -0.000001  0.000101  0.000016  0.001145 -0.000756  0.002171  0.006190  0.020215
                                 0.055386  0.131477  0.237946  0.316688  0.292999  0.154529  0.039022  0.004342  0.000223  0.000197
                                -0.000096 -0.000027  0.000002 -0.000000 -0.000000  0.000000  0.000115 -0.000000 -0.000058  0.000000
                                -0.000076  0.000000  0.000010  0.000000 -0.000042 -0.000000  0.000005  0.000000  0.000195 -0.000000
                                -0.000269  0.000000  0.000170 -0.000000 -0.000048  0.000000  0.000005 -0.000000  0.000077 -0.000000
                                 0.000000 -0.000049  0.000000 -0.000000  0.000017 -0.000000 -0.000000  0.000000  0.000000  0.000031
                                -0.000000 -0.000000 -0.000013  0.000040 -0.000091  0.000110 -0.000034  0.000040

   4.2   2    -1.5329  -35.7707  0.000002  0.000009  0.000030  0.000008  0.000102  0.000090  0.000149  0.000312  0.001180  0.002922
                                 0.000100  0.008037  0.019716  0.041689 -0.000987  0.065669  0.042167 -0.078367 -0.212158 -0.028881
                                -0.191593 -0.037170  0.117765  0.440620  0.003996  0.429363  0.179021  0.026711  0.002376  0.000086
                                 0.000006 -0.000007  0.000003 -0.000000 -0.000000  0.000000 -0.000001 -0.000000 -0.000005 -0.000012
                                -0.000040 -0.000085 -0.000180 -0.000210 -0.000222  0.000333  0.000911  0.001292 -0.001890 -0.002659
                                -0.000249 -0.000271  0.000073 -0.000020  0.000006 -0.000002  0.000366 -0.000000  0.000884  0.000000
                                 0.001628 -0.000000  0.000440 -0.000000  0.000178  0.000000 -0.000044 -0.000000  0.000153 -0.000000
                                -0.000105  0.000000 -0.000371 -0.000000  0.000004 -0.000000 -0.000008 -0.000000  0.000008  0.000000
                                 0.000000  0.000365  0.000000  0.000000 -0.000116 -0.000000 -0.000000  0.000000 -0.000000  0.000012
                                -0.000000  0.000000  0.000138  0.001525  0.002024  0.000445 -0.000793 -0.000341

   5.2   +    -0.2510  -22.9418 -0.000000 -0.000000 -0.000001 -0.000000 -0.000003 -0.000003 -0.000002 -0.000010 -0.000029 -0.000092
                                 0.000017 -0.000222 -0.000506 -0.001156  0.000153 -0.001855 -0.000999  0.001881  0.008005 -0.004753
                                 0.016894 -0.012485  0.004853 -0.031819  0.026797 -0.037929  0.010366  0.019443  0.059372  0.020350
                                -0.004768  0.002311 -0.000729  0.000023  0.000004  0.000263 -0.000170  0.000502  0.001452  0.004739
                                 0.013096  0.031365  0.056522  0.072163  0.058232 -0.024673 -0.153752 -0.251961 -0.285023 -0.249580
                                -0.181424 -0.085246 -0.022753 -0.000793 -0.000122  0.000039  0.000253  0.000000 -0.000109 -0.000000
                                 0.001017  0.000000  0.012753  0.000000  0.010400  0.000000  0.000296  0.000000 -0.000062  0.000000
                                -0.000604  0.000000  0.004025  0.000000  0.002758 -0.000000  0.000367  0.000000 -0.000011  0.000000
                                 0.000000 -0.000701 -0.000000 -0.000000 -0.000061 -0.000000  0.000000  0.000000 -0.000000  0.000040
                                -0.000000 -0.000000 -0.000047 -0.008454 -0.016466 -0.010839  0.002571  0.002125

   6.2   0     0.0039   -1.7136 -0.000000 -0.000000 -0.000000 -0.000000 -0.000000 -0.000003  0.000008 -0.000012  0.000002 -0.000099
                                 0.000099 -0.000108 -0.000072 -0.000582  0.000639 -0.001066  0.000233 -0.000740  0.012479 -0.027490
                                 0.058139 -0.065169  0.041655 -0.072978  0.106129 -0.078631  0.040459 -0.046913  0.052130 -0.080871
                                 0.268776 -0.645048  1.370414 -0.000000  0.000000 -0.000005  0.000006 -0.000007 -0.000009 -0.000044
                                -0.000102 -0.000278 -0.000443 -0.000665 -0.000365 -0.000036  0.001786  0.001114  0.004718 -0.004109
                                 0.008355 -0.018943  0.025940 -0.038684  0.044818 -0.191395  0.000014  0.000000  0.000000 -0.000000
                                 0.000107  0.000000 -0.001236  0.000000 -0.001991  0.000000 -0.000352 -0.000000 -0.000008 -0.000000
                                 0.000134 -0.000000 -0.000637 -0.000000 -0.000443 -0.000000 -0.000501  0.000000 -0.000005 -0.000000
                                 0.000000  0.000028  0.000000 -0.000000 -0.000262 -0.000000  0.000000  0.000000  0.000000  0.000007
                                -0.000000  0.000000 -0.000045  0.000092  0.002344  0.008105 -0.000113 -0.001615

   7.2   0     0.0091   -1.6554  0.000000  0.000000  0.000000 -0.000000  0.000000 -0.000001  0.000005 -0.000005  0.000007 -0.000037
                                 0.000052 -0.000017  0.000060 -0.000097  0.000327 -0.000230  0.000327 -0.000780  0.005421 -0.014464
                                 0.029323 -0.034193  0.022507 -0.035808  0.056349 -0.039362  0.023210 -0.021316  0.048550 -0.045618
                                 0.120050 -0.336775  0.362264  0.000000 -0.000002  0.000023 -0.000034  0.000026 -0.000013  0.000064
                                 0.000021  0.000315  0.000119  0.000925 -0.000591  0.001768 -0.004860  0.006247 -0.017779  0.032140
                                -0.056738  0.137596 -0.208917  0.266762 -0.521509  1.278296 -0.000012 -0.000000  0.000023  0.000000
                                -0.000068 -0.000000  0.002005 -0.000000  0.012657 -0.000000 -0.006488  0.000000 -0.000052  0.000000
                                 0.000161  0.000000  0.000120 -0.000000  0.003242  0.000000  0.001259 -0.000000  0.000012  0.000000
                                -0.000000 -0.000045  0.000000  0.000000  0.000240  0.000000 -0.000000 -0.000000  0.000000 -0.000004
                                 0.000000 -0.000000  0.000022 -0.000026 -0.001875 -0.037478  0.000008  0.002766

                                   1 2py     1 2py     1 2py     1 2py     1 2py     1 2py     1 2py     1 2py     1 2py     1 2py  
                                   1 2py     1 2py     1 2py     1 2py     1 2py     1 2py     1 2py     1 2py     1 2py     1 2py  
                                   1 2py     1 2py     1 2py     1 2py     1 2py     1 2py     1 2py     1 2py     1 2py     1 2py  
                                   1 2py     1 2py     1 2py     1 3d1-    1 3d1-    1 3d1-    1 3d1-    1 3d1-    1 3d1-    1 3d1- 
                                   1 3d1-    1 3d1-    1 3d1-    1 3d1-    1 3d1-    1 3d1-    1 3d1-    1 3d1-    1 3d1-    1 3d1- 
                                   1 3d1-    1 3d1-    1 3d1-    1 3d1-    1 3d1-    1 3d1-    1 4f1-    1 4f3-    1 4f1-    1 4f3- 
                                   1 4f1-    1 4f3-    1 4f1-    1 4f3-    1 4f1-    1 4f3-    1 4f1-    1 4f3-    1 5g1-    1 5g3- 
                                   1 5g1-    1 5g3-    1 5g1-    1 5g3-    1 5g1-    1 5g3-    1 5g1-    1 5g3-    1 6h1-    1 6h3- 
                                   1 6h5-    1 6h1-    1 6h3-    1 6h5-    1 6h1-    1 6h3-    1 6h5-    1 7i5-    1 7i3-    1 7i1- 
                                   1 7i5-    1 7i3-    1 7i1-    2 2py     2 2py     2 2py     2 3d1-    2 3d1- 

   1.3   2   -89.7380 -299.9994  0.000015  0.000056  0.000199  0.000055  0.000667  0.000582  0.000980  0.002015  0.007616  0.018570
                                 0.000712  0.050137  0.118913  0.237822 -0.002920  0.348760  0.291719  0.103417  0.013287 -0.005901
                                 0.011098 -0.009484  0.004041 -0.002689  0.002579 -0.001082  0.000210 -0.000072  0.000030 -0.000007
                                 0.000004 -0.000002  0.000001 -0.000000 -0.000000 -0.000000 -0.000000 -0.000000 -0.000001 -0.000003
                                -0.000004 -0.000003  0.000004  0.000003 -0.000002 -0.000002 -0.000001 -0.000000  0.000000  0.000008
                                 0.000000  0.000004 -0.000001  0.000000 -0.000000  0.000000  0.000007  0.000000 -0.000009 -0.000000
                                 0.000003  0.000000  0.000004 -0.000000  0.000002  0.000000  0.000000 -0.000000  0.000001 -0.000000
                                -0.000001  0.000000  0.000003 -0.000000  0.000000 -0.000000  0.000000 -0.000000  0.000000  0.000000
                                 0.000000 -0.000000 -0.000000 -0.000000  0.000001  0.000000  0.000000  0.000000 -0.000000 -0.000000
                                 0.000000 -0.000000  0.000000  0.000000 -0.000007 -0.000009  0.000001  0.000004

   2.3   2   -14.2086  -99.0319 -0.000006 -0.000024 -0.000086 -0.000024 -0.000288 -0.000256 -0.000417 -0.000888 -0.003325 -0.008287
                                -0.000219 -0.022623 -0.055108 -0.115851  0.002894 -0.180401 -0.122301  0.158192  0.460704 -0.006151
                                 0.442209 -0.043241  0.137084 -0.014221  0.023120 -0.009356  0.002232 -0.000657  0.000318 -0.000068
                                 0.000039 -0.000020  0.000006  0.000000 -0.000000  0.000000 -0.000000  0.000000  0.000001  0.000003
                                 0.000004  0.000013  0.000030  0.000047 -0.000088 -0.000018  0.000049 -0.000013 -0.000013  0.000143
                                -0.000011  0.000056 -0.000012  0.000004 -0.000001  0.000000  0.000410 -0.000000 -0.000303 -0.000000
                                 0.000104  0.000000  0.000065  0.000000  0.000019 -0.000000  0.000001  0.000000  0.000018 -0.000000
                                -0.000050  0.000000  0.000081 -0.000000 -0.000004  0.000000  0.000005 -0.000000  0.000022  0.000000
                                 0.000000 -0.000017 -0.000000 -0.000000  0.000029  0.000000  0.000000  0.000000  0.000000 -0.000002
                                -0.000000  0.000000  0.000012 -0.000000 -0.000170 -0.000125  0.000026  0.000077

   3.3   2    -8.1496  -88.4257 -0.000000 -0.000000 -0.000000 -0.000000 -0.000000 -0.000000  0.000000 -0.000000 -0.000000 -0.000001
                                 0.000001 -0.000002 -0.000004 -0.000013  0.000006 -0.000024 -0.000008  0.000035  0.000219 -0.000236
                                 0.000364 -0.000599  0.000273 -0.000272  0.000484 -0.000280  0.000044  0.000032 -0.000108  0.000006
                                -0.000003  0.000002 -0.000001  0.000101  0.000016  0.001145 -0.000756  0.002171  0.006190  0.020215
                                 0.055386  0.131477  0.237946  0.316688  0.292999  0.154529  0.039022  0.004342  0.000223  0.000197
                                -0.000096 -0.000027  0.000002 -0.000000 -0.000000  0.000000  0.000115 -0.000000 -0.000058  0.000000
                                -0.000076  0.000000  0.000010  0.000000 -0.000042  0.000000  0.000005 -0.000000  0.000195 -0.000000
                                -0.000269  0.000000  0.000170 -0.000000 -0.000048  0.000000  0.000005  0.000000  0.000077 -0.000000
                                 0.000000 -0.000049  0.000000 -0.000000  0.000017 -0.000000 -0.000000  0.000000  0.000000  0.000031
                                -0.000000 -0.000000 -0.000013  0.000040 -0.000091  0.000110 -0.000034  0.000040

   4.3   2    -1.5329  -35.7707  0.000002  0.000009  0.000030  0.000008  0.000102  0.000090  0.000149  0.000312  0.001180  0.002922
                                 0.000100  0.008037  0.019716  0.041689 -0.000987  0.065669  0.042167 -0.078367 -0.212158 -0.028881
                                -0.191593 -0.037170  0.117765  0.440620  0.003996  0.429363  0.179021  0.026711  0.002376  0.000086
                                 0.000006 -0.000007  0.000003 -0.000000 -0.000000  0.000000 -0.000001 -0.000000 -0.000005 -0.000012
                                -0.000040 -0.000085 -0.000180 -0.000210 -0.000222  0.000333  0.000911  0.001292 -0.001890 -0.002659
                                -0.000249 -0.000271  0.000073 -0.000020  0.000006 -0.000002  0.000366 -0.000000  0.000884  0.000000
                                 0.001628 -0.000000  0.000440  0.000000  0.000178 -0.000000 -0.000044  0.000000  0.000153 -0.000000
                                -0.000105  0.000000 -0.000371  0.000000  0.000004  0.000000 -0.000008  0.000000  0.000008  0.000000
                                 0.000000  0.000365  0.000000  0.000000 -0.000116 -0.000000 -0.000000  0.000000  0.000000  0.000012
                                -0.000000  0.000000  0.000138  0.001525  0.002024  0.000445 -0.000793 -0.000341

   5.3   +    -0.2510  -22.9418 -0.000000 -0.000000 -0.000001 -0.000000 -0.000003 -0.000003 -0.000002 -0.000010 -0.000029 -0.000092
                                 0.000017 -0.000222 -0.000506 -0.001156  0.000153 -0.001855 -0.000999  0.001881  0.008005 -0.004753
                                 0.016894 -0.012485  0.004853 -0.031819  0.026797 -0.037929  0.010366  0.019443  0.059372  0.020350
                                -0.004768  0.002311 -0.000729  0.000023  0.000004  0.000263 -0.000170  0.000502  0.001452  0.004739
                                 0.013096  0.031365  0.056522  0.072163  0.058232 -0.024673 -0.153752 -0.251961 -0.285023 -0.249580
                                -0.181424 -0.085246 -0.022753 -0.000793 -0.000122  0.000039  0.000253  0.000000 -0.000109 -0.000000
                                 0.001017  0.000000  0.012753  0.000000  0.010400 -0.000000  0.000296 -0.000000 -0.000062  0.000000
                                -0.000604  0.000000  0.004025  0.000000  0.002758  0.000000  0.000367 -0.000000 -0.000011 -0.000000
                                 0.000000 -0.000701 -0.000000 -0.000000 -0.000061 -0.000000  0.000000  0.000000 -0.000000  0.000040
                                -0.000000 -0.000000 -0.000047 -0.008454 -0.016466 -0.010839  0.002571  0.002125

   6.3   0     0.0039   -1.7136 -0.000000 -0.000000 -0.000000 -0.000000 -0.000000 -0.000003  0.000008 -0.000012  0.000002 -0.000099
                                 0.000099 -0.000108 -0.000072 -0.000582  0.000639 -0.001066  0.000233 -0.000740  0.012479 -0.027490
                                 0.058139 -0.065169  0.041655 -0.072978  0.106129 -0.078631  0.040459 -0.046913  0.052130 -0.080871
                                 0.268776 -0.645048  1.370414 -0.000000  0.000000 -0.000005  0.000006 -0.000007 -0.000009 -0.000044
                                -0.000102 -0.000278 -0.000443 -0.000665 -0.000365 -0.000036  0.001786  0.001114  0.004718 -0.004109
                                 0.008355 -0.018943  0.025940 -0.038684  0.044818 -0.191395  0.000014  0.000000  0.000000 -0.000000
                                 0.000107  0.000000 -0.001236  0.000000 -0.001991 -0.000000 -0.000352 -0.000000 -0.000008 -0.000000
                                 0.000134 -0.000000 -0.000637 -0.000000 -0.000443 -0.000000 -0.000501  0.000000 -0.000005  0.000000
                                 0.000000  0.000028 -0.000000 -0.000000 -0.000262 -0.000000  0.000000  0.000000  0.000000  0.000007
                                -0.000000 -0.000000 -0.000045  0.000092  0.002344  0.008105 -0.000113 -0.001615

   7.3   0     0.0091   -1.6554  0.000000  0.000000  0.000000 -0.000000  0.000000 -0.000001  0.000005 -0.000005  0.000007 -0.000037
                                 0.000052 -0.000017  0.000060 -0.000097  0.000327 -0.000230  0.000327 -0.000780  0.005421 -0.014464
                                 0.029323 -0.034193  0.022507 -0.035808  0.056349 -0.039362  0.023210 -0.021316  0.048550 -0.045618
                                 0.120050 -0.336775  0.362264  0.000000 -0.000002  0.000023 -0.000034  0.000026 -0.000013  0.000064
                                 0.000021  0.000315  0.000119  0.000925 -0.000591  0.001768 -0.004860  0.006247 -0.017779  0.032140
                                -0.056738  0.137596 -0.208917  0.266762 -0.521509  1.278296 -0.000012 -0.000000  0.000023  0.000000
                                -0.000068 -0.000000  0.002005 -0.000000  0.012657 -0.000000 -0.006488  0.000000 -0.000052  0.000000
                                 0.000161  0.000000  0.000120  0.000000  0.003242  0.000000  0.001259 -0.000000  0.000012  0.000000
                                -0.000000 -0.000045 -0.000000  0.000000  0.000240 -0.000000 -0.000000 -0.000000 -0.000000 -0.000004
                                 0.000000 -0.000000  0.000022 -0.000026 -0.001875 -0.037478  0.000008  0.002766

                                   1 3d2-    1 3d2-    1 3d2-    1 3d2-    1 3d2-    1 3d2-    1 3d2-    1 3d2-    1 3d2-    1 3d2- 
                                   1 3d2-    1 3d2-    1 3d2-    1 3d2-    1 3d2-    1 3d2-    1 3d2-    1 3d2-    1 3d2-    1 3d2- 
                                   1 3d2-    1 3d2-    1 3d2-    1 4f2-    1 4f2-    1 4f2-    1 4f2-    1 4f2-    1 4f2-    1 5g2- 
                                   1 5g4-    1 5g2-    1 5g4-    1 5g2-    1 5g4-    1 5g2-    1 5g4-    1 5g2-    1 5g4-    1 6h4- 
                                   1 6h2-    1 6h4-    1 6h2-    1 6h4-    1 6h2-    1 7i2-    1 7i6-    1 7i4-    1 7i2-    1 7i6- 
                                   1 7i4-    2 3d2-    2 3d2- 

   1.4   2    -8.1423  -88.4182  0.000101  0.000016  0.001145 -0.000757  0.002171  0.006191  0.020220  0.055398  0.131505  0.237977
                                 0.316752  0.292978  0.154349  0.039097  0.004300  0.000320  0.000065  0.000009  0.000009 -0.000002
                                 0.000001 -0.000000  0.000000 -0.000194  0.000160 -0.000056  0.000017  0.000001 -0.000000  0.000109
                                -0.000000 -0.000115  0.000000  0.000077 -0.000000 -0.000005  0.000000  0.000003 -0.000000 -0.000000
                                 0.000051  0.000000 -0.000038 -0.000000  0.000011  0.000017  0.000000  0.000000 -0.000006 -0.000000
                                -0.000000  0.000006 -0.000030

   2.4   +    -0.2344  -22.8165 -0.000023 -0.000004 -0.000265  0.000174 -0.000504 -0.001449 -0.004738 -0.013077 -0.031349 -0.056435
                                -0.072147 -0.058051  0.024634  0.153908  0.250756  0.284077  0.256495  0.187832  0.097345  0.026489
                                 0.001791  0.000048 -0.000015 -0.000754  0.000557 -0.003341 -0.015115 -0.012935 -0.000487  0.001515
                                -0.000000  0.001031 -0.000000  0.000804 -0.000000 -0.000173 -0.000000 -0.000139 -0.000000 -0.000000
                                 0.000036 -0.000000  0.000172  0.000000 -0.000136 -0.000059 -0.000000  0.000000  0.000018  0.000000
                                 0.000000  0.001051 -0.000530

   3.4   0     0.0089   -1.6657  0.000000 -0.000002  0.000024 -0.000035  0.000027 -0.000015  0.000064  0.000012  0.000310  0.000085
                                 0.000925 -0.000665  0.001882 -0.005012  0.006733 -0.018196  0.031289 -0.065290  0.119821 -0.205016
                                 0.266745 -0.526119  1.300030  0.000017 -0.000039  0.000060 -0.000166  0.000995 -0.003837 -0.000011
                                -0.000000  0.000006  0.000000 -0.000018 -0.000000  0.000029  0.000000 -0.000366 -0.000000  0.000000
                                -0.000000 -0.000000 -0.000000 -0.000000  0.000001  0.000000 -0.000000  0.000000  0.000001  0.000000
                                -0.000000 -0.000011  0.000026

   4.4   0     0.0283   -2.5791 -0.000000  0.000006 -0.000052  0.000089 -0.000049  0.000111  0.000055  0.000602  0.000672  0.002514
                                 0.000962  0.004654 -0.006432  0.006249 -0.030965  0.036370 -0.099877  0.175599 -0.349191  0.604267
                                -0.826588  1.928316 -0.993865  0.000056 -0.000133  0.000194 -0.000170  0.005212 -0.021618 -0.000012
                                -0.000000 -0.000184  0.000000  0.000323 -0.000000  0.000738  0.000000 -0.002145 -0.000000  0.000000
                                 0.000015 -0.000000 -0.000055 -0.000000  0.000178  0.000003 -0.000000 -0.000000 -0.000007  0.000000
                                -0.000000  0.000090 -0.001355

 HOMO     11.1    -0.234406 =      -6.3785eV
 LUMO     12.1    -0.006074 =      -0.1653eV
 LUMO-HOMO         0.228331 =       6.2132eV


 **********************************************************************************************************************************
 DATASETS  * FILE   NREC   LENGTH (MB)   RECORD NAMES
              1      22       23.36       500      610      700      900      950      970     1000      129      960     1700   
                                          VAR    BASINP    GEOM    SYMINP    ZMAT    AOBASIS   BASIS     P2S    ABASIS    OPER   
                                         1101     1401     1411     1412     1650     1100     1400     1410     1200     1210   
                                          SR      EKINR    POTR     PVPR    MOLCAS      S      EKIN      POT      H0       H01  
                                         1080     1600   
                                         AOSYM     SMH  

              2       4        4.25       700     1000      520     2100   
                                         GEOM     BASIS   MCVARS     RHF  

 PROGRAMS   *        TOTAL       RHF       INT
 CPU TIMES  *       173.77      7.86    165.69
 REAL TIME  *       182.34 SEC
 DISK USED  *         7.47 GB      
 SF USED    *         0.20 MB      
 GA USED    *         0.00 MB       (max)       0.00 MB       (current)
 **********************************************************************************************************************************
 SETTING SCF            =     -3817.75019813  AU                              
 SETTING _CC_NORM_MAX   =         2.00000000                                  


 PROGRAM * CCSD (Restricted open-shell coupled cluster)     Authors: C. Hampel, H.-J. Werner, 1991, M. Deegan, P.J. Knowles, 1992


 Convergence thresholds:  THRVAR = 1.00D-08  THRDEN = 1.00D-06

 CCSD(T)     terms to be evaluated (factor= 1.000)


 Number of closed-shell orbitals:  19 (  10   4   4   1 )
 Number of active  orbitals:        4 (   1   1   1   1 )
 Number of external orbitals:     394 ( 157  93  93  51 )

 Memory could be reduced to 561.30 Mwords without degradation in triples

 Number of N-1 electron functions:              42
 Number of N-2 electron functions:             861
 Number of singly external CSFs:              5166
 Number of doubly external CSFs:          26298543
 Total number of CSFs:                    26303709

 Molecular orbitals read from record     2100.2  Type=RHF/CANONICAL (state 1.1)

 Integral transformation finished. Total CPU:  20.25 sec, npass=  1  Memory used:  59.96 MW

 Starting RMP2 calculation

 Wavefunction is spin-projected

 ITER.      SQ.NORM     CORR.ENERGY   TOTAL ENERGY   ENERGY CHANGE        DEN1      VAR(S)    VAR(P)  DIIS     TIME
   1      1.12230727    -1.35858689 -3819.10878502    -1.35858689    -0.00493994  0.42D-04  0.18D-02  1  1    24.10
   2      1.12752097    -1.36415324 -3819.11435137    -0.00556635    -0.00008328  0.17D-05  0.49D-04  2  2    29.36
   3      1.12841384    -1.36466860 -3819.11486673    -0.00051536    -0.00000199  0.80D-07  0.13D-05  3  3    35.77
   4      1.12849755    -1.36468242 -3819.11488055    -0.00001382    -0.00000005  0.30D-08  0.38D-07  4  4    39.91
   5      1.12850240    -1.36468337 -3819.11488150    -0.00000095    -0.00000000  0.11D-09  0.12D-08  5  5    43.54

 Norm of t1 vector:      0.03991321      S-energy:    -0.00407144      T1 diagnostic:  0.00008334
 Norm of t2 vector:      0.35624337      P-energy:    -1.36061193
                                         Alpha-Beta:  -0.91155089
                                         Alpha-Alpha: -0.26425944
                                         Beta-Beta:   -0.18480160

 Spin contamination <S**2-Sz**2-Sz>     0.00000000
  Reference energy                  -3817.750198129091
  RHF-RMP2 correlation energy          -1.364683371733
 !RHF-RMP2 energy                   -3819.114881500824
 (NB above energy spin projected)

 Starting RCCSD calculation

 ITER.      SQ.NORM     CORR.ENERGY   TOTAL ENERGY   ENERGY CHANGE        DEN1      VAR(S)    VAR(P)  DIIS     TIME
   1      1.11308643    -1.30117663 -3819.05137476    -1.30117663    -0.01603502  0.87D-03  0.20D-02  0  0    84.57
   2      1.12114031    -1.31589480 -3819.06609293    -0.01471817    -0.00111877  0.21D-03  0.30D-03  1  1   123.25
   3      1.12458371    -1.31702618 -3819.06722430    -0.00113137    -0.00030950  0.13D-03  0.81D-04  2  2   160.37
   4      1.12892702    -1.31876409 -3819.06896222    -0.00173791    -0.00007488  0.48D-04  0.12D-04  3  3   196.70
   5      1.13223578    -1.31917925 -3819.06937738    -0.00041516    -0.00001598  0.12D-04  0.22D-05  4  4   236.57
   6      1.13369890    -1.31930092 -3819.06949905    -0.00012167    -0.00000461  0.37D-05  0.64D-06  5  5   297.11
   7      1.13431125    -1.31934425 -3819.06954238    -0.00004333    -0.00000165  0.15D-05  0.19D-06  6  6   375.37
   8      1.13470800    -1.31936827 -3819.06956640    -0.00002402    -0.00000058  0.54D-06  0.66D-07  7  7   418.64
   9      1.13491246    -1.31938264 -3819.06958077    -0.00001437    -0.00000020  0.18D-06  0.28D-07  8  8   471.18
  10      1.13501465    -1.31938595 -3819.06958408    -0.00000331    -0.00000006  0.41D-07  0.11D-07  9  9   527.14
  11      1.13506307    -1.31938859 -3819.06958672    -0.00000264    -0.00000001  0.60D-08  0.27D-08 10 10   595.28
  12      1.13507295    -1.31938899 -3819.06958712    -0.00000040    -0.00000000  0.95D-09  0.40D-09 11 11   667.54

 Norm of t1 vector:      0.10059042      S-energy:    -0.00407320      T1 diagnostic:  0.00991807
                                                                       D1 diagnostic:  0.05547978
 Norm of t2 vector:      0.35348906      P-energy:    -1.31531579
                                         Alpha-Beta:  -0.89996846
                                         Alpha-Alpha: -0.24469129
                                         Beta-Beta:   -0.17065604

 Spin contamination <S**2-Sz**2-Sz>     0.00000000

 Memory could be reduced to 611.29 Mwords without degradation in triples
 

  Correlated core orbitals:             1.1       2.1       3.1       4.1       5.1       6.1       7.1       8.1       9.1       1.2
                                        2.2       3.2       4.2       1.3       2.3       3.3       4.3       1.4
  Orbital energies:                  -701.3623 -100.7541  -89.7492  -17.9233  -14.2249   -8.1524   -8.1598   -2.6775   -1.6359  -89.7485
                                      -14.2166   -8.1676   -1.6446  -89.7485  -14.2166   -8.1676   -1.6446   -8.1598
 
  RCCSD core-core energy               -1.004897035787
  RCCSD core-valence energy            -0.210142717653
  RCCSD valence correlation energy     -0.104349235641
 

 RESULTS
 =======

  Reference energy                  -3817.750198129091
  RCCSD singles energy                 -0.004073200811
  RCCSD pair energy                    -1.315315788271
  RCCSD correlation energy             -1.319388989081
  Triples (T) contribution             -0.023985553395
  Total correlation energy             -1.343374542476
 
  RHF-RCCSD energy                  -3819.069587118172
  RHF-RCCSD[T] energy               -3819.094097846022
  RHF-RCCSD-T energy                -3819.093442802704
 !RHF-RCCSD(T) energy               -3819.093572671567

 Program statistics:

 Available memory in ccsd:               999995438
 Min. memory needed in ccsd:              72752224
 Max. memory used in ccsd:               106578489
 Max. memory used in cckext:              82032531 (12 integral passes)
 Max. memory used in cckint:              59958043 ( 1 integral passes)



 **********************************************************************************************************************************
 DATASETS  * FILE   NREC   LENGTH (MB)   RECORD NAMES
              1      22       23.36       500      610      700      900      950      970     1000      129      960     1700   
                                          VAR    BASINP    GEOM    SYMINP    ZMAT    AOBASIS   BASIS     P2S    ABASIS    OPER   
                                         1101     1401     1411     1412     1650     1100     1400     1410     1200     1210   
                                          SR      EKINR    POTR     PVPR    MOLCAS      S      EKIN      POT      H0       H01  
                                         1080     1600   
                                         AOSYM     SMH  

              2       4        4.25       700     1000      520     2100   
                                         GEOM     BASIS   MCVARS     RHF  

 PROGRAMS   *        TOTAL  RCCSD(T)       RHF       INT
 CPU TIMES  *      1863.48   1689.64      7.86    165.69
 REAL TIME  *      3118.90 SEC
 DISK USED  *        74.94 GB      
 SF USED    *        11.69 GB      
 GA USED    *         0.00 MB       (max)       0.00 MB       (current)
 **********************************************************************************************************************************
 SETTING CCSD           =     -3819.09357267  AU                              
 SETTING BIND           =        -0.02344282  AU                              
 Output type csv         
                                                                                                                                                                                                                                                                

  1.40,SCF,CCSD,BIND
   1.4,   -3817.750198,   -3819.093573,   -0.02344282
                                                  

 RCCSD(T)/USERDEF energy=  -3819.093572671567

        RCCSD(T)        RHF-SCF 
  -3819.09357267  -3817.75019813
 **********************************************************************************************************************************
 Molpro calculation terminated
 Variable memory released
