
 Primary working directories    : /global/cscratch1/sd/haihan
 Secondary working directories  : /global/cscratch1/sd/haihan
 Wavefunction directory         : /global/homes/h/haihan/Research/ECP/f_group_element_ecps/Zr/Molpro/molecule/ZrH/AE/wfu/
 Main file repository           : /global/cscratch1/sd/haihan/

 SHA1      : 19cd028119e0e09f93f0674bd8af7968d9b3eff6
 NAME      : 2015.1.36
 ARCHNAME  : linux/x86_64
 FC        : /opt/cray/pe/craype/2.5.14/bin/ftn
 BLASLIB   : -L/opt/intel/compilers_and_libraries_2018.1.163/linux/mkl/lib/intel64 -Wl,-_start-group -lmkl_intel_ilp64 -lmkl_intel_thread -lmkl_core -Wl,-_end-group -liomp5
 id        : lbl

 Nodes     nprocs
 nid12821    11
 Number of processes for MPI-2 version of Molpro:   nprocs(total)=   12   nprocs(compute)=   11   nprocs(helper)=    1

 Using customized tuning parameters: mindgm=7; mindgv=16; mindgc=1; mindgr=1; noblas=0; minvec=7
 default implementation of scratch files=sf  

 ***,Calculation for all-electron YH molecule, SCF and CCSD(T)
 memory,1,g
 gthresh,twoint=1.0E-15
 gthresh,throvl=1.0E-15
 
 set,dkroll=1,dkho=10,dkhp=4
 basis={
 Including file /global/u2/h/haihan/Research/ECP/f_group_element_ecps/Zr/Molpro/molecule/ZrH/AE/r_2.20/../generate/Zr-aug-cc-pwCVTZ.basis
 Including file /global/u2/h/haihan/Research/ECP/f_group_element_ecps/Zr/Molpro/molecule/ZrH/AE/r_2.20/../generate/H-aug-cc-pVTZ.basis
 }
 
 Zr_ccsd=-3597.393660
 H_ccsd=-0.49982785
 
                                                                                 !These are the wf cards parameters
 ne = 41
 symm = 1
 ss= 1
 
                                                                                 !There are irrep cards paramters
 A1=12
 B1=4
 B2=4
 A2=1
 
 
 geometry={
     2
     ZrH molecule
     Zr 0.0 0.0 0.0
     H 0.0 0.0 2.20
 }
 {rhf,nitord=20;
  maxit,200;
  wf,ne,symm,ss
  occ,A1,B1,B2,A2
  closed,A1-1,B1,B2,A2
  print,orbitals=2
 }
 scf=energy
 _CC_NORM_MAX=2.0
 {rccsd(t),shifts=0.5,shiftp=0.5,thrdis=1.0;diis,1,1,15,1;maxit,200;core}
 ccsd=energy
 bind=ccsd-Zr_ccsd-H_ccsd
 
 
 table,2.20,scf,ccsd,bind
 save
 type,csv
 

 Variables initialized (889), CPU time= 0.01 sec
 Commands  initialized (702), CPU time= 0.01 sec, 572 directives.
 Default parameters read. Elapsed time= 0.17 sec

 Checking input...
 Passed
1


                                         ***  PROGRAM SYSTEM MOLPRO  ***
                                       Copyright, TTI GmbH Stuttgart, 2015
                                    Version 2015.1 linked Dec 29 2018 15:55:43


 **********************************************************************************************************************************
 LABEL *   Calculation for all-electron YH molecule, SCF and CCSD(T)                     
  64 bit mpp version                                                                     DATE: 24-Sep-22          TIME: 18:51:57  
 **********************************************************************************************************************************

 SHA1:             19cd028119e0e09f93f0674bd8af7968d9b3eff6
 **********************************************************************************************************************************

 THRESHOLDS:

 ZERO    =  1.00D-12  ONEINT  =  1.00D-12  TWOINT  =  1.00D-15  PREFAC  =  1.00D-14  LOCALI  =  1.00D-09  EORDER  =  1.00D-04
 ENERGY  =  0.00D+00  ETEST   =  0.00D+00  EDENS   =  0.00D+00  THRDEDEF=  1.00D-06  GRADIENT=  1.00D-02  STEP    =  1.00D-03
 ORBITAL =  1.00D-05  CIVEC   =  1.00D-05  COEFF   =  1.00D-04  PRINTCI =  5.00D-02  PUNCHCI =  9.90D+01  OPTGRAD =  3.00D-04
 OPTENERG=  1.00D-06  OPTSTEP =  3.00D-04  THRGRAD =  1.00D-10  COMPRESS=  1.00D-11  VARMIN  =  1.00D-07  VARMAX  =  1.00D-03
 THRDOUB =  0.00D+00  THRDIV  =  1.00D-05  THRRED  =  1.00D-07  THRPSP  =  1.00D+00  THRDC   =  1.00D-10  THRCS   =  1.00D-10
 THRNRM  =  1.00D-08  THREQ   =  0.00D+00  THRDE   =  1.00D+00  THRREF  =  1.00D-05  SPARFAC =  1.00D+00  THRDLP  =  1.00D-07
 THRDIA  =  1.00D-10  THRDLS  =  1.00D-07  THRGPS  =  0.00D+00  THRKEX  =  0.00D+00  THRDIS  =  2.00D-01  THRVAR  =  1.00D-10
 THRLOC  =  1.00D-06  THRGAP  =  1.00D-06  THRLOCT = -1.00D+00  THRGAPT = -1.00D+00  THRORB  =  1.00D-06  THRMLTP =  0.00D+00
 THRCPQCI=  1.00D-10  KEXTA   =  0.00D+00  THRCOARS=  0.00D+00  SYMTOL  =  1.00D-06  GRADTOL =  1.00D-06  THROVL  =  1.00D-08
 THRORTH =  1.00D-08  GRID    =  1.00D-06  GRIDMAX =  1.00D-03  DTMAX   =  0.00D+00  THROCCDE=  1.00D-01  THROCCDE=  1.00D-01



 THRESHOLDS:

 ZERO    =  1.00D-12  ONEINT  =  1.00D-12  TWOINT  =  1.00D-15  PREFAC  =  1.00D-14  LOCALI  =  1.00D-09  EORDER  =  1.00D-04
 ENERGY  =  0.00D+00  ETEST   =  0.00D+00  EDENS   =  0.00D+00  THRDEDEF=  1.00D-06  GRADIENT=  1.00D-02  STEP    =  1.00D-03
 ORBITAL =  1.00D-05  CIVEC   =  1.00D-05  COEFF   =  1.00D-04  PRINTCI =  5.00D-02  PUNCHCI =  9.90D+01  OPTGRAD =  3.00D-04
 OPTENERG=  1.00D-06  OPTSTEP =  3.00D-04  THRGRAD =  1.00D-10  COMPRESS=  1.00D-11  VARMIN  =  1.00D-07  VARMAX  =  1.00D-03
 THRDOUB =  0.00D+00  THRDIV  =  1.00D-05  THRRED  =  1.00D-07  THRPSP  =  1.00D+00  THRDC   =  1.00D-10  THRCS   =  1.00D-10
 THRNRM  =  1.00D-08  THREQ   =  0.00D+00  THRDE   =  1.00D+00  THRREF  =  1.00D-05  SPARFAC =  1.00D+00  THRDLP  =  1.00D-07
 THRDIA  =  1.00D-10  THRDLS  =  1.00D-07  THRGPS  =  0.00D+00  THRKEX  =  0.00D+00  THRDIS  =  2.00D-01  THRVAR  =  1.00D-10
 THRLOC  =  1.00D-06  THRGAP  =  1.00D-06  THRLOCT = -1.00D+00  THRGAPT = -1.00D+00  THRORB  =  1.00D-06  THRMLTP =  0.00D+00
 THRCPQCI=  1.00D-10  KEXTA   =  0.00D+00  THRCOARS=  0.00D+00  SYMTOL  =  1.00D-06  GRADTOL =  1.00D-06  THROVL  =  1.00D-15
 THRORTH =  1.00D-08  GRID    =  1.00D-06  GRIDMAX =  1.00D-03  DTMAX   =  0.00D+00  THROCCDE=  1.00D-01  THROCCDE=  1.00D-01


 SETTING DKROLL         =         1.00000000                                  
 SETTING DKHO           =        10.00000000                                  
 SETTING DKHP           =         4.00000000                                  

 Variable memory set to 1000000000 words,  buffer space   230000 words

 SETTING BASIS          =    USERDEF
 SETTING ZR_CCSD        =     -3597.39366000                                  
 SETTING H_CCSD         =        -0.49982785                                  
 SETTING NE             =        41.00000000                                  
 SETTING SYMM           =         1.00000000                                  
 SETTING SS             =         1.00000000                                  
 SETTING A1             =        12.00000000                                  
 SETTING B1             =         4.00000000                                  
 SETTING B2             =         4.00000000                                  
 SETTING A2             =         1.00000000                                  

Geometry recognized as XYZ



 Recomputing integrals since basis changed


 Using spherical harmonics



 PROGRAM * SEWARD (Integral evaluation for generally contracted gaussian basis sets)     Author: Roland Lindh, 1990

 Geometry written to block  1 of record 700


 Point group  C2v 



 ATOMIC COORDINATES

 NR  ATOM    CHARGE       X              Y              Z

   1  ZR     40.00    0.000000000    0.000000000    0.000000000
   2  H       1.00    0.000000000    0.000000000    4.157397474

 Bond lengths in Bohr (Angstrom)

 1-2  4.157397474
     ( 2.200000000)

 NUCLEAR CHARGE:                   41
 NUMBER OF PRIMITIVE AOS:         347
 NUMBER OF SYMMETRY AOS:          295
 NUMBER OF CONTRACTIONS:          295   ( 129A1  +  67B1  +  67B2  +  32A2  )
 NUMBER OF CORE ORBITALS:          18   (   9A1  +   4B1  +   4B2  +   1A2  )
 NUMBER OF VALENCE ORBITALS:        7   (   4A1  +   1B1  +   1B2  +   1A2  )


 NUCLEAR REPULSION ENERGY    9.62140383

 One-electron integrals computed with SEWARD

 10nd-order Douglas-Kroll-Hess method activated. McWeeny DKH parametrization is used.

 Computing Douglas-Kroll / X2C integrals

 AO integral compression algorithm  1   Integral accuracy      1.0D-15

     1220.805 MB (compressed) written to integral file ( 54.7%)

     Node minimum: 49.021 MB, node maximum: 335.282 MB


 NUMBER OF SORTED TWO-ELECTRON INTEGRALS:   22432752.     BUFFER LENGTH:  32768
 NUMBER OF SEGMENTS:   2  SEGMENT LENGTH:   15996129      RECORD LENGTH: 524288

 Memory used in sort:      16.55 MW

 SORT1 READ   279023068. AND WROTE    10121544. INTEGRALS IN     30 RECORDS. CPU TIME:     6.46 SEC, REAL TIME:     7.42 SEC
 SORT2 READ   110370776. AND WROTE   246753875. INTEGRALS IN   2057 RECORDS. CPU TIME:     0.82 SEC, REAL TIME:     1.40 SEC

 Node minimum:    22405599.  Node maximum:    22490595. integrals

 OPERATOR DM      FOR CENTER  0  COORDINATES:    0.000000    0.000000    0.000000

 EXTRA SYMMETRY OF AOS IN SYMMETRY 1:   1 1 1 1 1 1 1 1 1 1   1 1 1 1 1 1 1 1 1 1   1 1 1 1 1 1 1 1 1 1   1 1 1 1 1 1 1 1 1 1
                                        1 1 1 1 1 1 1 1 1 1   1 1 1 1 1 1 1 1 1 1   2 1 2 1 2 1 2 1 2 1   2 1 2 1 2 1 2 1 2 1
                                        2 1 2 1 2 1 2 1 2 1   2 1 2 1 2 1 2 1 2 1   2 1 2 1 2 1 2 1 3 2   1 3 2 1 3 2 1 1 1 1
                                        1 1 1 1 1 1 2 1 2
 EXTRA SYMMETRY OF AOS IN SYMMETRY 2:   1 1 1 1 1 1 1 1 1 1   1 1 1 1 1 1 1 1 1 1   1 1 1 1 1 1 1 1 1 1   1 1 1 1 1 1 1 1 1 1
                                        1 1 1 1 1 1 1 1 1 2   1 2 1 2 1 2 1 2 1 2   1 2 1 1 1 1 1
 EXTRA SYMMETRY OF AOS IN SYMMETRY 3:   1 1 1 1 1 1 1 1 1 1   1 1 1 1 1 1 1 1 1 1   1 1 1 1 1 1 1 1 1 1   1 1 1 1 1 1 1 1 1 1
                                        1 1 1 1 1 1 1 1 1 2   1 2 1 2 1 2 1 2 1 2   1 2 1 1 1 1 1
 EXTRA SYMMETRY OF AOS IN SYMMETRY 4:   1 1 1 1 1 1 1 1 1 1   1 1 1 1 1 1 1 1 1 1   1 1 1 1 1 2 1 2 1 2   1 1

 Eigenvalues of metric

         1 0.120E-07 0.930E-07 0.978E-07 0.116E-06 0.525E-06 0.104E-05 0.319E-05 0.786E-05
         2 0.122E-07 0.975E-07 0.117E-06 0.105E-05 0.811E-05 0.108E-04 0.362E-04 0.404E-04
         3 0.122E-07 0.975E-07 0.117E-06 0.105E-05 0.811E-05 0.108E-04 0.362E-04 0.404E-04
         4 0.978E-07 0.108E-04 0.404E-04 0.435E-03 0.213E-02 0.598E-02 0.165E-01 0.366E-01


 **********************************************************************************************************************************
 DATASETS  * FILE   NREC   LENGTH (MB)   RECORD NAMES
              1      22       21.76       500      610      700      900      950      970     1000      129      960     1700   
                                          VAR    BASINP    GEOM    SYMINP    ZMAT    AOBASIS   BASIS     P2S    ABASIS    OPER   
                                         1101     1401     1411     1412     1650     1100     1400     1410     1200     1210   
                                          SR      EKINR    POTR     PVPR    MOLCAS      S      EKIN      POT      H0       H01  
                                         1080     1600   
                                         AOSYM     SMH  

 PROGRAMS   *        TOTAL       INT
 CPU TIMES  *        62.44     62.02
 REAL TIME  *        65.62 SEC
 DISK USED  *         2.61 GB      
 GA USED    *         0.00 MB       (max)       0.00 MB       (current)
 **********************************************************************************************************************************


 PROGRAM * RHF-SCF (OPEN SHELL)       Authors: W. Meyer, H.-J. Werner


 NUMBER OF ELECTRONS:      21+   20-    SPACE SYMMETRY=1    SPIN SYMMETRY: Doublet 
 CONVERGENCE THRESHOLDS:    1.00E-05 (Density)    1.00E-07 (Energy)
 MAX. NUMBER OF ITERATIONS:      200
 INTERPOLATION TYPE:            DIIS
 INTERPOLATION STEPS:              2 (START)      1 (STEP)
 LEVEL SHIFTS:                 -0.60 (CLOSED) -0.30 (OPEN) 

 Number of closed-shell orbitals:   20 (  11   4   4   1 )
 Number of open-shell orbitals:      1 (   1   0   0   0 )


 Orbital guess generated from atomic densities. Full valence occupancy:   13   5   5   2

 Molecular orbital dump at record        2100.2

 ITERATION    DDIFF          GRAD             ENERGY        2-EL.EN.            DIPOLE MOMENTS         DIIS   ORB.
    1      0.000D+00      0.000D+00     -3595.90284628   2678.184564    0.00000    0.00000   -6.02602    0    start
    2      0.000D+00      0.108D-01     -3596.69195813   2757.591449    0.00000    0.00000   -0.31220    1    diag,B
    3      0.324D+00      0.680D-02     -3596.72772418   2749.094766    0.00000    0.00000   -0.36653    2    diag,B
    4      0.820D-02      0.199D-02     -3596.74460661   2748.571713    0.00000    0.00000   -0.42359    3    diag,B
    5      0.930D-02      0.112D-02     -3596.75873929   2749.499496    0.00000    0.00000   -0.50979    4    diag,B
    6      0.131D-01      0.704D-03     -3596.76622285   2751.080890    0.00000    0.00000   -0.61972    5    diag,B
    7      0.112D-01      0.373D-03     -3596.76865489   2752.172848    0.00000    0.00000   -0.74641    6    diag,B
    8      0.701D-02      0.149D-03     -3596.76897645   2752.410665    0.00000    0.00000   -0.83078    7    diag,B
    9      0.257D-02      0.971D-04     -3596.76913020   2752.493008    0.00000    0.00000   -0.90651    8    diag,B
   10      0.980D-03      0.634D-04     -3596.76922159   2752.579198    0.00000    0.00000   -0.96355    9    orth
   11      0.181D-02      0.453D-04     -3596.76928645   2752.712600    0.00000    0.00000   -1.00356    9    diag,B
   12      0.191D-02      0.325D-04     -3596.76933479   2752.873338    0.00000    0.00000   -1.04476    9    diag,B
   13      0.167D-02      0.184D-04     -3596.76934756   2752.962153    0.00000    0.00000   -1.06326    9    diag,B
   14      0.104D-02      0.912D-05     -3596.76934994   2752.995678    0.00000    0.00000   -1.07144    9    diag,B
   15      0.105D-02      0.332D-05     -3596.76935012   2753.002143    0.00000    0.00000   -1.07285    9    diag,B
   16      0.375D-03      0.135D-05     -3596.76935014   2753.004247    0.00000    0.00000   -1.07312    9    diag,B
   17      0.533D-04      0.635D-06     -3596.76935015   2753.005037    0.00000    0.00000   -1.07343    9    diag,B
   18      0.441D-04      0.312D-06     -3596.76935015   2753.005287    0.00000    0.00000   -1.07356    9    diag,B
   19      0.184D-04      0.165D-06     -3596.76935015   2753.005105    0.00000    0.00000   -1.07361    9    fixocc
   20      0.679D-05      0.701D-07     -3596.76935015   2753.005097    0.00000    0.00000   -1.07362    0    orth

 Final alpha occupancy:  12   4   4   1
 Final beta  occupancy:  11   4   4   1

 !RHF STATE 1.1 Energy              -3596.769350150087
 Nuclear energy                         9.62140383
 One-electron energy                -4982.89330225
 Two-electron energy                 1376.50254827
 Virial quotient                       -0.91149676
 !RHF STATE 1.1 Dipole moment           0.00000000     0.00000000    -1.07361777
 Dipole moment /Debye                   0.00000000     0.00000000    -2.72868546

 ELECTRON ORBITALS
 =================


   Orb  Occ    Energy  Couls-En    Coefficients

                                   1 1s      1 1s      1 1s      1 1s      1 1s      1 1s      1 1s      1 1s      1 1s      1 1s   
                                   1 1s      1 1s      1 1s      1 1s      1 1s      1 1s      1 1s      1 1s      1 1s      1 1s   
                                   1 1s      1 1s      1 1s      1 1s      1 1s      1 1s      1 1s      1 1s      1 1s      1 1s   
                                   1 1s      1 2pz     1 2pz     1 2pz     1 2pz     1 2pz     1 2pz     1 2pz     1 2pz     1 2pz  
                                   1 2pz     1 2pz     1 2pz     1 2pz     1 2pz     1 2pz     1 2pz     1 2pz     1 2pz     1 2pz  
                                   1 2pz     1 2pz     1 2pz     1 2pz     1 2pz     1 2pz     1 2pz     1 2pz     1 2pz     1 3d0  
                                   1 3d2+    1 3d0     1 3d2+    1 3d0     1 3d2+    1 3d0     1 3d2+    1 3d0     1 3d2+    1 3d0  
                                   1 3d2+    1 3d0     1 3d2+    1 3d0     1 3d2+    1 3d0     1 3d2+    1 3d0     1 3d2+    1 3d0  
                                   1 3d2+    1 3d0     1 3d2+    1 3d0     1 3d2+    1 3d0     1 3d2+    1 3d0     1 3d2+    1 3d0  
                                   1 3d2+    1 3d0     1 3d2+    1 3d0     1 3d2+    1 3d0     1 3d2+    1 3d0     1 3d2+    1 4f0  
                                   1 4f2+    1 4f0     1 4f2+    1 4f0     1 4f2+    1 4f0     1 4f2+    1 5g0     1 5g4+    1 5g2+ 
                                   1 5g0     1 5g4+    1 5g2+    1 5g0     1 5g4+    1 5g2+    2 1s      2 1s      2 1s      2 1s   
                                   2 1s      2 1s      2 2pz     2 2pz     2 2pz     2 3d0     2 3d2+    2 3d0     2 3d2+ 

   1.1   2  -665.1430-1483.0032  0.000042  0.000111  0.000306  0.000707  0.001535  0.003175  0.006516  0.013482  0.028412  0.060272
                                 0.123434  0.225418  0.318989  0.279036 -0.004784  0.105657  0.006282  0.002708 -0.003367  0.004423
                                -0.004723  0.003829 -0.005062  0.003856 -0.000323  0.000133 -0.000084  0.000047 -0.000023  0.000010
                                -0.000001  0.000000  0.000000  0.000000  0.000000  0.000000  0.000000  0.000000  0.000000  0.000001
                                 0.000001  0.000000 -0.000006  0.000010 -0.000017  0.000042 -0.000072  0.000075 -0.000060  0.000114
                                -0.000139  0.000072 -0.000024  0.000023 -0.000020  0.000003 -0.000000  0.000002  0.000000 -0.000000
                                -0.000000  0.000000  0.000000  0.000000 -0.000000  0.000000  0.000000 -0.000000 -0.000000 -0.000001
                                 0.000000  0.000001 -0.000000 -0.000000  0.000000  0.000001  0.000000 -0.000003 -0.000000  0.000017
                                 0.000000 -0.000045 -0.000000  0.000120 -0.000000 -0.000108  0.000000  0.000020 -0.000000 -0.000005
                                 0.000000  0.000003 -0.000000 -0.000000  0.000000  0.000000 -0.000000  0.000000  0.000000  0.000000
                                -0.000000 -0.000000 -0.000000 -0.000000 -0.000000  0.000000 -0.000000  0.000000  0.000000 -0.000000
                                -0.000000  0.000000 -0.000000  0.000000  0.000000 -0.000000  0.000000 -0.000000 -0.000000 -0.000000
                                 0.000000 -0.000003 -0.000000 -0.000001 -0.000000  0.000000 -0.000000  0.000000  0.000000

   2.1   2   -94.8663 -298.3709 -0.000014 -0.000036 -0.000101 -0.000234 -0.000508 -0.001055 -0.002177 -0.004544 -0.009722 -0.021200
                                -0.045700 -0.092288 -0.158110 -0.186363  0.004619 -0.034321  0.360996  0.542740  0.231079  0.018480
                                 0.011106  0.001331 -0.004575  0.004106 -0.000597  0.000215 -0.000160  0.000092 -0.000044  0.000019
                                -0.000002  0.000000  0.000000  0.000000  0.000000  0.000001  0.000004  0.000012  0.000031  0.000069
                                 0.000115  0.000147  0.000103 -0.000001 -0.000007  0.000073 -0.000134  0.000143 -0.000115  0.000222
                                -0.000272  0.000142 -0.000046  0.000048 -0.000042  0.000007 -0.000000  0.000003  0.000000 -0.000000
                                -0.000000 -0.000000 -0.000000 -0.000001  0.000000 -0.000000 -0.000000 -0.000006 -0.000000 -0.000021
                                -0.000000  0.000015  0.000000 -0.000003 -0.000000  0.000001  0.000000 -0.000009 -0.000000  0.000040
                                 0.000000 -0.000100 -0.000000  0.000257  0.000000 -0.000229 -0.000000  0.000042  0.000000 -0.000010
                                -0.000000  0.000007  0.000000 -0.000000 -0.000000  0.000001  0.000000  0.000001 -0.000000  0.000003
                                 0.000000 -0.000000 -0.000000  0.000000  0.000000  0.000001 -0.000000 -0.000001 -0.000002  0.000000
                                -0.000000  0.000000 -0.000000  0.000000 -0.000000  0.000000  0.000000 -0.000000  0.000000 -0.000000
                                -0.000001 -0.000006 -0.000000 -0.000001  0.000001  0.000000  0.000000  0.000001 -0.000000

   3.1   2   -84.3971 -284.1638  0.000000  0.000000  0.000000  0.000000  0.000000  0.000000  0.000001  0.000002  0.000004  0.000009
                                 0.000019  0.000039  0.000067  0.000079 -0.000002  0.000012 -0.000165 -0.000211 -0.000088 -0.000014
                                -0.000023  0.000020 -0.000054  0.000054 -0.000006  0.000010 -0.000013  0.000007  0.000005  0.000010
                                 0.000003  0.000014  0.000054  0.000210  0.000776  0.002803  0.009566  0.029702  0.080895  0.181364
                                 0.307744  0.343370  0.167478  0.035736 -0.004625  0.086376 -0.112906  0.094626 -0.052283  0.061959
                                -0.060436  0.022869 -0.004566  0.001868 -0.001293  0.000139 -0.000023  0.000016 -0.000001  0.000000
                                -0.000000  0.000000  0.000000  0.000002  0.000000  0.000008  0.000000  0.000028  0.000000  0.000031
                                 0.000000 -0.000008 -0.000000  0.000001  0.000000  0.000003  0.000000 -0.000010  0.000000  0.000073
                                -0.000000 -0.000184  0.000000  0.000469  0.000000 -0.000408 -0.000000  0.000067  0.000000 -0.000012
                                -0.000000  0.000008  0.000000  0.000004 -0.000000  0.000001  0.000000  0.000002 -0.000000 -0.000007
                                 0.000000 -0.000002  0.000000 -0.000000 -0.000000  0.000002 -0.000000  0.000000  0.000000  0.000000
                                -0.000000 -0.000000 -0.000000  0.000001  0.000000  0.000000 -0.000000 -0.000000  0.000001 -0.000002
                                -0.000011 -0.000014 -0.000000  0.000000  0.000005 -0.000001  0.000000  0.000001  0.000000

   4.1   2   -16.7532  -99.9310  0.000006  0.000015  0.000042  0.000097  0.000212  0.000440  0.000908  0.001900  0.004070  0.008915
                                 0.019333  0.039667  0.069685  0.087577 -0.006117  0.020257 -0.235526 -0.479392 -0.253377  0.246043
                                 0.403586  0.491632  0.247248 -0.021995  0.014432 -0.002209  0.001748 -0.000920  0.000552 -0.000213
                                 0.000028 -0.000000 -0.000000 -0.000000 -0.000001 -0.000003 -0.000009 -0.000028 -0.000078 -0.000180
                                -0.000320 -0.000378 -0.000089  0.000050  0.000651 -0.000058  0.001184 -0.000210  0.001058 -0.000889
                                 0.001249 -0.000709  0.000218 -0.000258  0.000180  0.000026  0.000065 -0.000043 -0.000002  0.000000
                                 0.000000  0.000000 -0.000000  0.000003  0.000000  0.000009 -0.000000  0.000030  0.000000  0.000104
                                 0.000000 -0.000040 -0.000000  0.000102  0.000000 -0.000047 -0.000000 -0.000043  0.000000  0.000008
                                -0.000000  0.000344  0.000000 -0.001417 -0.000000  0.001422  0.000000 -0.000333 -0.000000  0.000055
                                 0.000000 -0.000019 -0.000000  0.000041 -0.000000 -0.000015  0.000000 -0.000006 -0.000000  0.000029
                                 0.000000 -0.000050 -0.000000  0.000039  0.000000 -0.000002 -0.000000 -0.000006 -0.000001 -0.000000
                                 0.000028  0.000028 -0.000000  0.000003 -0.000006  0.000000 -0.000000 -0.000000  0.000003 -0.000023
                                -0.000102  0.000060 -0.000000  0.000028  0.000038 -0.000003  0.000000 -0.000009 -0.000000

   5.1   2   -13.2376  -93.3910 -0.000000 -0.000000 -0.000000 -0.000000 -0.000000 -0.000001 -0.000002 -0.000004 -0.000009 -0.000020
                                -0.000043 -0.000088 -0.000154 -0.000195  0.000016 -0.000047  0.000540  0.001054  0.000542 -0.000497
                                -0.001082 -0.001106  0.000058 -0.000261 -0.000158 -0.000115  0.000160 -0.000089 -0.000127 -0.000018
                                -0.000013 -0.000006 -0.000023 -0.000090 -0.000333 -0.001207 -0.004152 -0.013040 -0.036486 -0.084886
                                -0.152470 -0.171695 -0.014048  0.012285  0.284881  0.033480  0.432282  0.029597  0.291327 -0.054868
                                 0.125978 -0.039099  0.011904 -0.004600  0.003431 -0.000517 -0.000047 -0.000035 -0.000001  0.000000
                                -0.000000  0.000001 -0.000000  0.000004 -0.000000  0.000014 -0.000000  0.000035 -0.000000  0.000066
                                -0.000000  0.000047  0.000000  0.000209 -0.000000  0.000389 -0.000000  0.000558  0.000000 -0.000663
                                -0.000000  0.001191  0.000000 -0.002367 -0.000000  0.001867  0.000000 -0.000271 -0.000000  0.000099
                                 0.000000 -0.000089 -0.000000 -0.000072  0.000000  0.000003  0.000000 -0.000006 -0.000000  0.000007
                                -0.000000  0.000117  0.000000 -0.000047 -0.000000 -0.000015  0.000000  0.000000 -0.000000  0.000000
                                -0.000013 -0.000000 -0.000000 -0.000016  0.000000  0.000000  0.000000  0.000001 -0.000003  0.000049
                                 0.000202  0.000052  0.000001 -0.000029 -0.000069  0.000005  0.000000 -0.000005  0.000000

   6.1   2    -7.4642  -83.0541 -0.000000 -0.000000 -0.000000  0.000000  0.000000  0.000000  0.000000  0.000000  0.000000  0.000000
                                 0.000000  0.000000  0.000000  0.000000 -0.000000  0.000000 -0.000000  0.000000 -0.000000  0.000000
                                -0.000000  0.000000 -0.000000  0.000000  0.000000  0.000000 -0.000000  0.000000 -0.000000  0.000000
                                -0.000000 -0.000000  0.000000 -0.000000 -0.000000  0.000000  0.000000  0.000000  0.000000  0.000000
                                 0.000000  0.000000 -0.000000  0.000000 -0.000000  0.000000 -0.000000  0.000000 -0.000000  0.000000
                                -0.000000  0.000000 -0.000000  0.000000 -0.000000  0.000000  0.000000  0.000000 -0.000000  0.000000
                                 0.000165  0.000000  0.001479  0.000000  0.008700  0.000000  0.034331  0.000000  0.100502  0.000000
                                 0.221213 -0.000000 -0.003573  0.000000  0.327789  0.000000  0.332244  0.000000  0.203006 -0.000000
                                -0.036276  0.000000  0.109940 -0.000000 -0.105199  0.000000  0.075458 -0.000000 -0.004260 -0.000000
                                 0.000627  0.000000 -0.000159 -0.000000  0.000088 -0.000000 -0.000011 -0.000000  0.000003  0.000000
                                 0.000137 -0.000000 -0.000090  0.000000  0.000022 -0.000000 -0.000011 -0.000000 -0.000000  0.000079
                                 0.000000  0.000000 -0.000078 -0.000000 -0.000000  0.000015  0.000000 -0.000000  0.000000 -0.000000
                                -0.000000  0.000000 -0.000000  0.000000  0.000000 -0.000000  0.000001 -0.000000 -0.000007

   7.1   2    -7.4581  -83.0277  0.000000  0.000000  0.000000  0.000000  0.000000  0.000000  0.000000  0.000000  0.000001  0.000001
                                 0.000003  0.000006  0.000010  0.000016 -0.000008  0.000012 -0.000060 -0.000114 -0.000057  0.000251
                                 0.000386  0.000164 -0.001641  0.000771  0.000074  0.000292 -0.000440  0.000152  0.000430 -0.000060
                                 0.000015  0.000000  0.000000  0.000000  0.000000  0.000002  0.000005  0.000016  0.000046  0.000108
                                 0.000196  0.000222 -0.000138  0.000166 -0.000807  0.000790 -0.002356  0.001843 -0.001707  0.004364
                                -0.005147  0.002890 -0.001304  0.001368 -0.001389  0.000365  0.000328 -0.000042  0.000011  0.000165
                                -0.000000  0.001478 -0.000000  0.008693 -0.000000  0.034304 -0.000000  0.100422 -0.000000  0.221052
                                -0.000000 -0.003582  0.000000  0.327601 -0.000000  0.332171 -0.000000  0.203231 -0.000000 -0.035913
                                 0.000000  0.110075 -0.000000 -0.104932  0.000000  0.075325 -0.000000 -0.004351  0.000000  0.000251
                                -0.000000 -0.000018  0.000000  0.000252 -0.000000 -0.000030  0.000000  0.000006 -0.000000  0.000255
                                -0.000000 -0.000306 -0.000000  0.000165 -0.000000  0.000042  0.000000  0.000069  0.000018 -0.000000
                                 0.000021 -0.000070  0.000000  0.000050  0.000012 -0.000000 -0.000000  0.000001 -0.000006 -0.000072
                                -0.000527 -0.000011  0.000003  0.000029  0.000149  0.000005 -0.000000  0.000033  0.000000

   8.1   2    -2.5645  -38.2539 -0.000002 -0.000006 -0.000016 -0.000037 -0.000080 -0.000167 -0.000344 -0.000721 -0.001544 -0.003391
                                -0.007342 -0.015159 -0.026584 -0.034628  0.004966 -0.010790  0.099019  0.204582  0.129019 -0.162519
                                -0.177137 -0.565988 -0.105036 -0.045697  0.788639  0.544458 -0.012039  0.035762 -0.016924  0.007210
                                -0.000972 -0.000000 -0.000000 -0.000000 -0.000001 -0.000002 -0.000008 -0.000024 -0.000070 -0.000157
                                -0.000305 -0.000258 -0.001300  0.002225 -0.003597  0.011245 -0.020358  0.024686 -0.022485  0.052701
                                -0.070835  0.042672 -0.019183  0.007466 -0.010718  0.001002  0.000113  0.001054  0.000171 -0.000000
                                 0.000000 -0.000003  0.000000 -0.000019  0.000000 -0.000078  0.000000 -0.000221  0.000000 -0.000662
                                 0.000000  0.000206 -0.000000 -0.000828  0.000000 -0.000447 -0.000000 -0.000869  0.000000  0.006899
                                -0.000000 -0.018126  0.000000  0.059700 -0.000000 -0.053626  0.000000  0.012887 -0.000000 -0.002863
                                 0.000000  0.000697 -0.000000 -0.000011 -0.000000  0.000245 -0.000000  0.000243 -0.000000 -0.000565
                                -0.000000 -0.001548 -0.000000  0.000215  0.000000  0.000264  0.000000  0.000140  0.000320 -0.000000
                                 0.000819  0.001168 -0.000000  0.000202  0.000107  0.000000  0.000024  0.000160  0.000561  0.001606
                                 0.000060 -0.002111 -0.000158 -0.001037 -0.000094  0.000174 -0.000000  0.000512  0.000000

   9.1   2    -1.5524  -33.7079 -0.000000 -0.000000 -0.000000 -0.000000 -0.000001 -0.000002 -0.000003 -0.000007 -0.000016 -0.000034
                                -0.000074 -0.000153 -0.000270 -0.000340  0.000017 -0.000073  0.000972  0.002164  0.001138 -0.001263
                                -0.002839 -0.004754 -0.004704  0.001672  0.016001 -0.000819 -0.006215  0.000302  0.001672  0.000042
                                 0.000224  0.000002  0.000008  0.000031  0.000117  0.000424  0.001461  0.004592  0.012919  0.030187
                                 0.054927  0.061342  0.008034 -0.023000 -0.098893 -0.104367 -0.044283 -0.227757  0.045746 -0.323010
                                 0.625254 -0.150265  0.584890  0.317460  0.012286  0.035089 -0.002743  0.001254 -0.000218  0.000001
                                 0.000000  0.000007  0.000000  0.000041  0.000000  0.000162  0.000000  0.000490  0.000000  0.000997
                                 0.000000  0.000063 -0.000000  0.001459  0.000000  0.001486  0.000000 -0.001180  0.000000  0.005069
                                -0.000000 -0.017130  0.000000  0.037916 -0.000000 -0.031784  0.000000 -0.006416 -0.000000 -0.008131
                                -0.000000  0.003014  0.000000  0.000940  0.000000 -0.000079 -0.000000  0.000124  0.000000  0.002513
                                -0.000000  0.005654  0.000000  0.001858 -0.000000  0.000327 -0.000000 -0.000179  0.000001  0.000000
                                -0.000814  0.000009 -0.000000  0.000316  0.000001  0.000000  0.000171  0.001224  0.004516  0.011596
                                 0.003942 -0.000530 -0.000681 -0.003938 -0.000998  0.000548 -0.000000  0.001086  0.000000

  10.1   2    -0.3740  -12.5726  0.000000  0.000001  0.000002  0.000005  0.000010  0.000021  0.000043  0.000089  0.000191  0.000419
                                 0.000907  0.001873  0.003286  0.004288 -0.000622  0.001345 -0.012359 -0.025729 -0.016309  0.020665
                                 0.024197  0.077996  0.023853 -0.004588 -0.136485 -0.173560  0.025088  0.137031  0.119463  0.013185
                                -0.009755 -0.000000 -0.000001 -0.000004 -0.000015 -0.000054 -0.000188 -0.000589 -0.001664 -0.003874
                                -0.007107 -0.007724 -0.004657  0.009180  0.001005  0.046094 -0.057597  0.105516 -0.080297  0.224145
                                -0.338723  0.169429 -0.150940 -0.013971 -0.033404  0.088680  0.061150  0.003046 -0.005111 -0.000011
                                -0.000000 -0.000102 -0.000000 -0.000593 -0.000000 -0.002390 -0.000000 -0.006899 -0.000000 -0.017400
                                -0.000000  0.002708  0.000000 -0.023630 -0.000000 -0.018036 -0.000000 -0.017954 -0.000000  0.133513
                                 0.000000 -0.338386 -0.000000  1.191606  0.000000 -1.136860 -0.000000  0.343242  0.000000  0.050765
                                 0.000000  0.097118  0.000000  0.047865  0.000000  0.006331  0.000000 -0.001722 -0.000000  0.002813
                                 0.000000  0.009806  0.000000  0.027395  0.000000  0.007120  0.000000  0.000729  0.000080 -0.000000
                                 0.005790 -0.000171  0.000000  0.006087 -0.000178  0.000000  0.004495  0.033119  0.132545  0.308614
                                 0.314149  0.042827 -0.003158 -0.019803 -0.023070  0.001814 -0.000000  0.002416  0.000000

  11.1   2    -0.2356  -14.3216  0.000001  0.000001  0.000004  0.000009  0.000019  0.000040  0.000082  0.000171  0.000367  0.000806
                                 0.001746  0.003607  0.006326  0.008272 -0.001242  0.002641 -0.023870 -0.049564 -0.031794  0.040843
                                 0.044813  0.156942  0.026140  0.011476 -0.283341 -0.346972  0.023695  0.270192  0.546793  0.219869
                                -0.000645  0.000000  0.000001  0.000002  0.000008  0.000029  0.000099  0.000310  0.000875  0.002043
                                 0.003732  0.004123  0.001227 -0.002819 -0.004472 -0.013781  0.009586 -0.031287  0.018448 -0.058672
                                 0.097247 -0.041425  0.062680  0.032305  0.017941 -0.079277 -0.169562 -0.047071  0.003326  0.000017
                                 0.000000  0.000154  0.000000  0.000901  0.000000  0.003611  0.000000  0.010500  0.000000  0.025520
                                 0.000000 -0.003021 -0.000000  0.035198  0.000000  0.028361  0.000000  0.018014  0.000000 -0.144105
                                -0.000000  0.335270  0.000000 -1.267607 -0.000000  1.214088  0.000000 -0.424011 -0.000000 -0.102645
                                -0.000000 -0.100522 -0.000000 -0.089144 -0.000000 -0.014626 -0.000000 -0.001153 -0.000000  0.000140
                                 0.000000  0.004056  0.000000 -0.000541  0.000000 -0.002595  0.000000  0.000119  0.000631 -0.000000
                                -0.002296  0.000573 -0.000000 -0.002447  0.000149 -0.000000 -0.000603 -0.004292 -0.018669 -0.037920
                                -0.029862 -0.012310  0.000932 -0.000726 -0.000690 -0.000362 -0.000000  0.001008  0.000000

  12.1   +    -0.3488  -22.7183  0.000000  0.000000  0.000000  0.000000  0.000000  0.000000  0.000000  0.000000  0.000000  0.000000
                                 0.000000  0.000000  0.000000  0.000000 -0.000000  0.000000 -0.000000 -0.000000 -0.000000  0.000000
                                 0.000000  0.000000 -0.000000  0.000000 -0.000000 -0.000000  0.000000  0.000000  0.000000  0.000000
                                 0.000000 -0.000000 -0.000000 -0.000000 -0.000000 -0.000000 -0.000000 -0.000000 -0.000000 -0.000000
                                -0.000000 -0.000000 -0.000000  0.000000 -0.000000  0.000000 -0.000000  0.000000 -0.000000  0.000000
                                -0.000000  0.000000 -0.000000  0.000000 -0.000000  0.000000  0.000000  0.000000  0.000000  0.000000
                                -0.000041  0.000000 -0.000369  0.000000 -0.002153  0.000000 -0.008632  0.000000 -0.025105  0.000000
                                -0.061013 -0.000000  0.007206  0.000000 -0.084096  0.000000 -0.067476  0.000000 -0.042127 -0.000000
                                 0.344687  0.000000 -0.796207 -0.000000  3.025461  0.000000 -2.898845 -0.000000  1.017099 -0.000000
                                 0.246344 -0.000000  0.186804 -0.000000  0.135314  0.000000  0.000011 -0.000000  0.003194  0.000000
                                -0.000056  0.000000 -0.003602  0.000000 -0.011843  0.000000 -0.004552  0.000000  0.000000 -0.001306
                                 0.000000  0.000000 -0.002891  0.000000  0.000000 -0.002229  0.000000  0.000000  0.000000  0.000000
                                 0.000000 -0.000000  0.000000  0.000000 -0.000000 -0.000000  0.000256  0.000000 -0.000667

  13.1   0     0.0026   -9.6138  0.000000  0.000000  0.000000  0.000000  0.000001  0.000001  0.000003  0.000006  0.000013  0.000031
                                 0.000059  0.000146  0.000181  0.000619 -0.001092  0.001260 -0.001858  0.000085 -0.007965  0.018867
                                -0.034911  0.062401 -0.177099  0.171825 -0.062764  0.041908 -0.084814  0.228111 -0.185813  0.255527
                                -0.607344 -0.000000 -0.000001 -0.000003 -0.000012 -0.000045 -0.000154 -0.000492 -0.001358 -0.003256
                                -0.005672 -0.007390  0.017205 -0.027401  0.067834 -0.138659  0.292398 -0.303690  0.301055 -0.663378
                                 0.856123 -0.518737  0.126981 -0.328902  0.265320 -0.042209  0.314847 -0.024974  0.506989  0.000017
                                 0.000000  0.000156  0.000000  0.000908  0.000000  0.003642  0.000000  0.010577  0.000000  0.025854
                                 0.000000 -0.003205 -0.000000  0.035582  0.000000  0.028457  0.000000  0.019687  0.000000 -0.153707
                                -0.000000  0.362922  0.000000 -1.355704 -0.000000  1.299459  0.000000 -0.442731 -0.000000 -0.090928
                                -0.000000 -0.121995 -0.000000 -0.112885 -0.000000 -0.091503 -0.000000 -0.157439 -0.000000  0.000061
                                -0.000000  0.002109 -0.000000  0.011773  0.000000  0.022436  0.000000  0.000156  0.000963  0.000000
                                 0.000073  0.002523 -0.000000 -0.002152  0.001593 -0.000000  0.000439  0.003553  0.012427  0.042115
                                -0.000795  0.205225  0.001505  0.002399  0.027865 -0.000470 -0.000000 -0.001723  0.000000

  14.1   0     0.0230   -4.2275  0.000000  0.000000  0.000001  0.000002  0.000004  0.000009  0.000018  0.000039  0.000079  0.000189
                                 0.000362  0.000886  0.001121  0.003649 -0.006257  0.007229 -0.010892  0.000002 -0.045798  0.108085
                                -0.199630  0.353827 -1.010448  0.980698 -0.326449  0.293070 -0.634585  1.273215 -1.996543  2.088656
                                -2.812848  0.000000  0.000000  0.000001  0.000005  0.000017  0.000062  0.000183  0.000552  0.001174
                                 0.002503  0.001307  0.025722 -0.043169  0.076548 -0.216820  0.405788 -0.477121  0.439419 -1.018992
                                 1.372268 -0.789170  0.335633 -0.401303  0.435186 -0.215623 -0.304827 -0.649735 -0.224729 -0.000004
                                -0.000000 -0.000032 -0.000000 -0.000197 -0.000000 -0.000750 -0.000000 -0.002342 -0.000000 -0.003619
                                -0.000000 -0.001682  0.000000 -0.006270 -0.000000 -0.008436 -0.000000  0.011657 -0.000000 -0.072082
                                 0.000000  0.225347 -0.000000 -0.619524  0.000000  0.577266 -0.000000 -0.084308  0.000000  0.103386
                                -0.000000 -0.078825  0.000000 -0.064942  0.000000 -0.106754  0.000000 -0.082368 -0.000000 -0.000225
                                 0.000000  0.002514  0.000000 -0.021950 -0.000000 -0.073134 -0.000000  0.000073 -0.000091 -0.000000
                                -0.000155 -0.000013 -0.000000 -0.010328  0.000204  0.000000  0.000006 -0.000275  0.001578 -0.020786
                                 0.440784  1.322700  0.000316 -0.009788 -0.204249 -0.000426  0.000000  0.015048 -0.000000

                                   1 2px     1 2px     1 2px     1 2px     1 2px     1 2px     1 2px     1 2px     1 2px     1 2px  
                                   1 2px     1 2px     1 2px     1 2px     1 2px     1 2px     1 2px     1 2px     1 2px     1 2px  
                                   1 2px     1 2px     1 2px     1 2px     1 2px     1 2px     1 2px     1 2px     1 3d1+    1 3d1+ 
                                   1 3d1+    1 3d1+    1 3d1+    1 3d1+    1 3d1+    1 3d1+    1 3d1+    1 3d1+    1 3d1+    1 3d1+ 
                                   1 3d1+    1 3d1+    1 3d1+    1 3d1+    1 3d1+    1 3d1+    1 3d1+    1 3d1+    1 4f1+    1 4f3+ 
                                   1 4f1+    1 4f3+    1 4f1+    1 4f3+    1 4f1+    1 4f3+    1 5g1+    1 5g3+    1 5g1+    1 5g3+ 
                                   1 5g1+    1 5g3+    2 2px     2 2px     2 2px     2 3d1+    2 3d1+ 

   1.2   2   -84.3977 -284.1637  0.000014  0.000054  0.000210  0.000776  0.002803  0.009566  0.029702  0.080893  0.181360  0.307736
                                 0.343371  0.167551  0.035648 -0.004515  0.086121 -0.112477  0.094186 -0.051926  0.061303 -0.059643
                                 0.022475 -0.004450  0.001774 -0.001217  0.000123 -0.000028  0.000009 -0.000003  0.000000  0.000000
                                 0.000001  0.000003  0.000015  0.000022 -0.000004  0.000007 -0.000000 -0.000001 -0.000001 -0.000002
                                 0.000010 -0.000011  0.000002 -0.000000  0.000000 -0.000000 -0.000000  0.000000  0.000004 -0.000009
                                 0.000001 -0.000002  0.000000 -0.000001 -0.000000  0.000000  0.000000  0.000000 -0.000000  0.000000
                                 0.000000  0.000000  0.000000 -0.000000  0.000000 -0.000000 -0.000000

   2.2   2   -13.2375  -93.3871 -0.000006 -0.000023 -0.000090 -0.000333 -0.001207 -0.004151 -0.013039 -0.036482 -0.084878 -0.152454
                                -0.171672 -0.014178  0.012444  0.284542  0.034067  0.431033  0.031052  0.290443 -0.052718  0.123131
                                -0.037747  0.011408 -0.004062  0.002939 -0.000332  0.000075 -0.000026  0.000007  0.000000  0.000001
                                 0.000007  0.000025  0.000069  0.000165  0.000012  0.000306  0.000327  0.000201 -0.000088  0.000142
                                -0.000215  0.000160 -0.000023 -0.000001 -0.000003  0.000004  0.000001 -0.000000  0.000079 -0.000056
                                -0.000051  0.000124  0.000003 -0.000015  0.000000  0.000009 -0.000001 -0.000000 -0.000012 -0.000001
                                 0.000004 -0.000000 -0.000001 -0.000003 -0.000008  0.000000  0.000001

   3.2   2    -7.4532  -82.9959  0.000000  0.000000  0.000000  0.000000  0.000001  0.000003  0.000011  0.000030  0.000070  0.000125
                                 0.000139  0.000004 -0.000004 -0.000234 -0.000038 -0.000381 -0.000072 -0.000240  0.000094 -0.000122
                                 0.000030 -0.000060  0.000053 -0.000060  0.000042  0.000024  0.000002 -0.000001  0.000165  0.001477
                                 0.008685  0.034271  0.100321  0.220813 -0.003556  0.327323  0.332164  0.203853 -0.036395  0.111606
                                -0.108241  0.078246 -0.004923  0.000458 -0.000188  0.000048 -0.000002  0.000001  0.000222 -0.000000
                                -0.000235 -0.000002  0.000095 -0.000000 -0.000005 -0.000000  0.000073 -0.000012 -0.000003  0.000043
                                 0.000024 -0.000008  0.000004 -0.000025 -0.000058 -0.000002  0.000035

   4.2   2    -1.5465  -33.5714  0.000002  0.000008  0.000031  0.000116  0.000421  0.001453  0.004566  0.012848  0.030013  0.054633
                                 0.060915  0.009667 -0.025636 -0.093038 -0.117685 -0.017073 -0.257340  0.074481 -0.389422  0.713464
                                -0.202876  0.597719  0.293956  0.036277  0.043787 -0.000439  0.001111 -0.000285  0.000000  0.000000
                                 0.000002  0.000008  0.000019  0.000097 -0.000075  0.000073 -0.000056  0.000523 -0.002818  0.010269
                                -0.032867  0.033524 -0.010113 -0.001489 -0.002318 -0.000995 -0.000094 -0.000005 -0.000397  0.002367
                                -0.001543  0.005389 -0.003168  0.003280 -0.000146 -0.000131 -0.000164 -0.000011 -0.000826 -0.000082
                                -0.000065 -0.000053  0.000046  0.000527  0.000518 -0.000105 -0.000421

   5.2   0     0.0080   -6.5978  0.000000  0.000001  0.000004  0.000015  0.000054  0.000183  0.000589  0.001617  0.003907  0.006719
                                 0.009127 -0.026757  0.043010 -0.100706  0.217166 -0.448081  0.475554 -0.464748  1.032671 -1.341772
                                 0.805612 -0.221929  0.488403 -0.411492  0.065403 -0.374180  0.008136 -0.762987 -0.000006 -0.000052
                                -0.000303 -0.001205 -0.003550 -0.008006  0.000312 -0.011438 -0.010260 -0.001611  0.017707 -0.024727
                                 0.162013 -0.160548  0.089289  0.051676  0.023544  0.082464  0.029769  0.140683  0.000667 -0.000322
                                 0.002106 -0.002478  0.001727 -0.006267 -0.003822 -0.003745 -0.000110  0.000201 -0.000478  0.000647
                                 0.002368  0.000633 -0.000189 -0.002916  0.001603  0.000031  0.000360

   6.2   0     0.0354   -8.3133  0.000000  0.000001  0.000002  0.000009  0.000030  0.000113  0.000316  0.001022  0.001989  0.004883
                                 0.000302  0.088512 -0.147783  0.271642 -0.741989  1.404417 -1.629830  1.509473 -3.473093  4.649976
                                -2.677376  1.086057 -1.329766  1.332103 -0.505650  0.337871 -1.103657  1.165921 -0.000016 -0.000146
                                -0.000868 -0.003418 -0.010195 -0.021487 -0.000810 -0.031682 -0.030949  0.006970 -0.024884  0.147115
                                -0.190905  0.156475  0.128374  0.214175 -0.009903  0.246101 -0.028644  0.449599  0.000377 -0.000166
                                -0.000996 -0.001376 -0.004797 -0.003384 -0.024461 -0.002534 -0.000178  0.000561 -0.000052  0.001633
                                 0.001501  0.001198  0.001520  0.003341  0.009614 -0.000168 -0.001427

                                   1 2py     1 2py     1 2py     1 2py     1 2py     1 2py     1 2py     1 2py     1 2py     1 2py  
                                   1 2py     1 2py     1 2py     1 2py     1 2py     1 2py     1 2py     1 2py     1 2py     1 2py  
                                   1 2py     1 2py     1 2py     1 2py     1 2py     1 2py     1 2py     1 2py     1 3d1-    1 3d1- 
                                   1 3d1-    1 3d1-    1 3d1-    1 3d1-    1 3d1-    1 3d1-    1 3d1-    1 3d1-    1 3d1-    1 3d1- 
                                   1 3d1-    1 3d1-    1 3d1-    1 3d1-    1 3d1-    1 3d1-    1 3d1-    1 3d1-    1 4f1-    1 4f3- 
                                   1 4f1-    1 4f3-    1 4f1-    1 4f3-    1 4f1-    1 4f3-    1 5g1-    1 5g3-    1 5g1-    1 5g3- 
                                   1 5g1-    1 5g3-    2 2py     2 2py     2 2py     2 3d1-    2 3d1- 

   1.3   2   -84.3977 -284.1637  0.000014  0.000054  0.000210  0.000776  0.002803  0.009566  0.029702  0.080893  0.181360  0.307736
                                 0.343371  0.167550  0.035648 -0.004515  0.086121 -0.112477  0.094186 -0.051925  0.061303 -0.059643
                                 0.022475 -0.004450  0.001774 -0.001217  0.000123 -0.000028  0.000009 -0.000003  0.000000  0.000000
                                 0.000001  0.000003  0.000015  0.000022 -0.000004  0.000007 -0.000000 -0.000001 -0.000001 -0.000002
                                 0.000010 -0.000011  0.000002 -0.000000  0.000000 -0.000000 -0.000000  0.000000  0.000004  0.000009
                                 0.000001  0.000002  0.000000  0.000001 -0.000000 -0.000000  0.000000 -0.000000 -0.000000 -0.000000
                                 0.000000 -0.000000  0.000000 -0.000000  0.000000 -0.000000 -0.000000

   2.3   2   -13.2375  -93.3871 -0.000006 -0.000023 -0.000090 -0.000333 -0.001207 -0.004151 -0.013039 -0.036482 -0.084878 -0.152454
                                -0.171672 -0.014178  0.012444  0.284542  0.034068  0.431033  0.031052  0.290443 -0.052718  0.123131
                                -0.037747  0.011408 -0.004062  0.002939 -0.000332  0.000075 -0.000026  0.000007  0.000000  0.000001
                                 0.000007  0.000025  0.000069  0.000165  0.000012  0.000306  0.000327  0.000201 -0.000088  0.000142
                                -0.000215  0.000160 -0.000023 -0.000001 -0.000003  0.000004  0.000001 -0.000000  0.000079  0.000056
                                -0.000051 -0.000124  0.000003  0.000015  0.000000 -0.000009 -0.000001  0.000000 -0.000012  0.000001
                                 0.000004  0.000000 -0.000001 -0.000003 -0.000008  0.000000  0.000001

   3.3   2    -7.4532  -82.9959  0.000000  0.000000  0.000000  0.000000  0.000001  0.000003  0.000011  0.000030  0.000070  0.000125
                                 0.000139  0.000004 -0.000004 -0.000234 -0.000038 -0.000381 -0.000072 -0.000240  0.000094 -0.000122
                                 0.000030 -0.000060  0.000053 -0.000060  0.000042  0.000024  0.000002 -0.000001  0.000165  0.001477
                                 0.008685  0.034271  0.100321  0.220813 -0.003556  0.327323  0.332164  0.203853 -0.036395  0.111605
                                -0.108241  0.078246 -0.004923  0.000458 -0.000188  0.000048 -0.000002  0.000001  0.000222  0.000000
                                -0.000235  0.000002  0.000095  0.000000 -0.000005  0.000000  0.000073  0.000012 -0.000003 -0.000043
                                 0.000024  0.000008  0.000004 -0.000025 -0.000058 -0.000002  0.000035

   4.3   2    -1.5465  -33.5714  0.000002  0.000008  0.000031  0.000116  0.000421  0.001453  0.004566  0.012848  0.030013  0.054633
                                 0.060915  0.009667 -0.025636 -0.093038 -0.117685 -0.017074 -0.257340  0.074481 -0.389422  0.713464
                                -0.202875  0.597719  0.293956  0.036277  0.043787 -0.000439  0.001111 -0.000285  0.000000  0.000000
                                 0.000002  0.000008  0.000019  0.000097 -0.000075  0.000073 -0.000056  0.000523 -0.002818  0.010269
                                -0.032867  0.033524 -0.010113 -0.001489 -0.002318 -0.000995 -0.000094 -0.000005 -0.000397 -0.002367
                                -0.001543 -0.005389 -0.003168 -0.003280 -0.000146  0.000131 -0.000164  0.000011 -0.000826  0.000082
                                -0.000065  0.000053  0.000046  0.000527  0.000518 -0.000105 -0.000421

   5.3   0     0.0080   -6.5978  0.000000  0.000001  0.000004  0.000015  0.000054  0.000183  0.000589  0.001617  0.003907  0.006719
                                 0.009127 -0.026757  0.043010 -0.100706  0.217166 -0.448081  0.475553 -0.464748  1.032670 -1.341771
                                 0.805612 -0.221929  0.488403 -0.411492  0.065403 -0.374180  0.008136 -0.762987 -0.000006 -0.000052
                                -0.000303 -0.001205 -0.003550 -0.008006  0.000312 -0.011438 -0.010260 -0.001611  0.017707 -0.024727
                                 0.162013 -0.160548  0.089289  0.051676  0.023544  0.082464  0.029769  0.140683  0.000667  0.000322
                                 0.002106  0.002478  0.001727  0.006267 -0.003822  0.003745 -0.000110 -0.000201 -0.000478 -0.000647
                                 0.002368 -0.000633 -0.000189 -0.002916  0.001603  0.000031  0.000360

   6.3   0     0.0354   -8.3133  0.000000  0.000001  0.000002  0.000009  0.000030  0.000113  0.000316  0.001022  0.001989  0.004883
                                 0.000302  0.088512 -0.147783  0.271641 -0.741988  1.404415 -1.629828  1.509471 -3.473090  4.649973
                                -2.677375  1.086057 -1.329766  1.332103 -0.505650  0.337871 -1.103657  1.165921 -0.000016 -0.000146
                                -0.000868 -0.003418 -0.010195 -0.021487 -0.000810 -0.031682 -0.030949  0.006970 -0.024884  0.147115
                                -0.190905  0.156475  0.128374  0.214175 -0.009903  0.246101 -0.028644  0.449599  0.000377  0.000166
                                -0.000996  0.001376 -0.004797  0.003384 -0.024461  0.002534 -0.000178 -0.000561 -0.000052 -0.001633
                                 0.001501 -0.001198  0.001520  0.003341  0.009614 -0.000168 -0.001427

                                   1 3d2-    1 3d2-    1 3d2-    1 3d2-    1 3d2-    1 3d2-    1 3d2-    1 3d2-    1 3d2-    1 3d2- 
                                   1 3d2-    1 3d2-    1 3d2-    1 3d2-    1 3d2-    1 3d2-    1 3d2-    1 3d2-    1 3d2-    1 3d2- 
                                   1 4f2-    1 4f2-    1 4f2-    1 4f2-    1 5g2-    1 5g4-    1 5g2-    1 5g4-    1 5g2-    1 5g4- 
                                   2 3d2-    2 3d2- 

   1.4   2    -7.4541  -82.9976  0.000165  0.001477  0.008685  0.034271  0.100321  0.220790 -0.003533  0.327302  0.332234  0.204068
                                -0.036833  0.112074 -0.109379  0.079048 -0.005048  0.000540 -0.000249  0.000036 -0.000012  0.000002
                                 0.000136 -0.000087  0.000026 -0.000009  0.000067 -0.000000 -0.000031  0.000000  0.000007 -0.000000
                                 0.000000 -0.000006

   2.4   0     0.0394   -6.6400 -0.000013 -0.000113 -0.000703 -0.002635 -0.008442 -0.010549 -0.008898 -0.020689 -0.032919  0.061181
                                -0.385613  1.173943 -3.329772  3.118508 -0.526290  0.445932 -0.301104  0.422440 -0.352068  1.023742
                                 0.000062 -0.001655 -0.003609 -0.021119 -0.000031  0.000000  0.000152  0.000000  0.000095  0.000000
                                 0.000309 -0.000926

   3.4   0     0.0628  -13.4876  0.000025  0.000239  0.001335  0.005605  0.015209  0.050808 -0.020096  0.061609  0.027207  0.133067
                                -0.909360  2.509886 -7.950020  7.530277 -1.836582  0.375736 -0.744769  0.214459 -0.832248  0.869171
                                 0.000104  0.002174  0.010827  0.020576  0.000036 -0.000000 -0.000433 -0.000000  0.000068 -0.000000
                                -0.000299  0.000837

 HOMO     12.1    -0.348785 =      -9.4909eV
 LUMO     13.1     0.002561 =       0.0697eV
 LUMO-HOMO         0.351346 =       9.5606eV


 **********************************************************************************************************************************
 DATASETS  * FILE   NREC   LENGTH (MB)   RECORD NAMES
              1      22       21.76       500      610      700      900      950      970     1000      129      960     1700   
                                          VAR    BASINP    GEOM    SYMINP    ZMAT    AOBASIS   BASIS     P2S    ABASIS    OPER   
                                         1101     1401     1411     1412     1650     1100     1400     1410     1200     1210   
                                          SR      EKINR    POTR     PVPR    MOLCAS      S      EKIN      POT      H0       H01  
                                         1080     1600   
                                         AOSYM     SMH  

              2       4        3.56       700     1000      520     2100   
                                         GEOM     BASIS   MCVARS     RHF  

 PROGRAMS   *        TOTAL       RHF       INT
 CPU TIMES  *        66.48      3.42     62.02
 REAL TIME  *        70.15 SEC
 DISK USED  *         2.93 GB      
 SF USED    *         0.11 MB      
 GA USED    *         0.00 MB       (max)       0.00 MB       (current)
 **********************************************************************************************************************************
 SETTING SCF            =     -3596.76935015  AU                              
 SETTING _CC_NORM_MAX   =         2.00000000                                  


 PROGRAM * CCSD (Restricted open-shell coupled cluster)     Authors: C. Hampel, H.-J. Werner, 1991, M. Deegan, P.J. Knowles, 1992


 Convergence thresholds:  THRVAR = 1.00D-08  THRDEN = 1.00D-06

 CCSD(T)     terms to be evaluated (factor= 1.000)


 Number of closed-shell orbitals:  20 (  11   4   4   1 )
 Number of active  orbitals:        1 (   1   0   0   0 )
 Number of external orbitals:     274 ( 117  63  63  31 )

 Memory could be reduced to 193.38 Mwords without degradation in triples

 Number of N-1 electron functions:              41
 Number of N-2 electron functions:             820
 Number of singly external CSFs:              3784
 Number of doubly external CSFs:          12291180
 Total number of CSFs:                    12294964

 Molecular orbitals read from record     2100.2  Type=RHF/CANONICAL (state 1.1)

 Integral transformation finished. Total CPU:   5.82 sec, npass=  1  Memory used:  20.64 MW

 Starting RMP2 calculation

 Wavefunction is spin-projected

 ITER.      SQ.NORM     CORR.ENERGY   TOTAL ENERGY   ENERGY CHANGE        DEN1      VAR(S)    VAR(P)  DIIS     TIME
   1      1.12523363    -1.18533334 -3597.95468349    -1.18533334    -0.00698856  0.43D-04  0.36D-02  1  1     7.84
   2      1.13704319    -1.19338888 -3597.96273903    -0.00805554    -0.00032167  0.40D-05  0.27D-03  2  2     9.45
   3      1.14119960    -1.19493932 -3597.96428947    -0.00155043    -0.00001300  0.15D-06  0.11D-04  3  3    11.36
   4      1.14192044    -1.19508752 -3597.96443767    -0.00014820    -0.00000043  0.23D-08  0.36D-06  4  4    14.10
   5      1.14198054    -1.19509614 -3597.96444629    -0.00000863    -0.00000001  0.50D-10  0.99D-08  5  5    22.33
   6      1.14198360    -1.19509635 -3597.96444650    -0.00000021    -0.00000000  0.45D-11  0.32D-09  6  6    29.44

 Norm of t1 vector:      0.03088313      S-energy:    -0.00216953      T1 diagnostic:  0.00002319
 Norm of t2 vector:      0.37553939      P-energy:    -1.19292682
                                         Alpha-Beta:  -0.82947824
                                         Alpha-Alpha: -0.18803575
                                         Beta-Beta:   -0.17541283

 Spin contamination <S**2-Sz**2-Sz>     0.00000000
  Reference energy                  -3596.769350150090
  RHF-RMP2 correlation energy          -1.195096354532
 !RHF-RMP2 energy                   -3597.964446504623
 (NB above energy spin projected)

 Starting RCCSD calculation

 ITER.      SQ.NORM     CORR.ENERGY   TOTAL ENERGY   ENERGY CHANGE        DEN1      VAR(S)    VAR(P)  DIIS     TIME
   1      1.12621956    -1.14515271 -3597.91450286    -1.14515271    -0.02023263  0.13D-02  0.53D-02  0  0    45.23
   2      1.14697846    -1.16367965 -3597.93302980    -0.01852694    -0.00295881  0.54D-03  0.15D-02  1  1    60.13
   3      1.16080068    -1.16774036 -3597.93709051    -0.00406071    -0.00112031  0.33D-03  0.59D-03  2  2    79.04
   4      1.18220390    -1.17303257 -3597.94238272    -0.00529221    -0.00027504  0.12D-03  0.12D-03  3  3    93.52
   5      1.19799409    -1.17473550 -3597.94408565    -0.00170293    -0.00006566  0.37D-04  0.22D-04  4  4   109.91
   6      1.20548560    -1.17529495 -3597.94464510    -0.00055945    -0.00002142  0.14D-04  0.67D-05  5  5   128.49
   7      1.20884553    -1.17547481 -3597.94482496    -0.00017986    -0.00000882  0.61D-05  0.27D-05  6  6   145.24
   8      1.21057024    -1.17551348 -3597.94486363    -0.00003866    -0.00000344  0.28D-05  0.90D-06  7  7   167.12
   9      1.21148133    -1.17554020 -3597.94489035    -0.00002672    -0.00000185  0.16D-05  0.41D-06  8  8   182.06
  10      1.21202160    -1.17554234 -3597.94489249    -0.00000214    -0.00000110  0.98D-06  0.23D-06  9  9   200.45
  11      1.21245856    -1.17554187 -3597.94489202     0.00000047    -0.00000067  0.57D-06  0.16D-06 10 10   219.72
  12      1.21290663    -1.17554183 -3597.94489198     0.00000003    -0.00000034  0.25D-06  0.10D-06 11 11   241.05
  13      1.21316432    -1.17554105 -3597.94489120     0.00000079    -0.00000020  0.13D-06  0.77D-07 12 12   258.38
  14      1.21337611    -1.17554244 -3597.94489259    -0.00000140    -0.00000010  0.51D-07  0.44D-07 13 13   276.75
  15      1.21349952    -1.17554196 -3597.94489211     0.00000048    -0.00000005  0.22D-07  0.27D-07 14 14   301.84
  16      1.21354642    -1.17554163 -3597.94489179     0.00000033    -0.00000003  0.12D-07  0.17D-07 15 15   324.80
  17      1.21358830    -1.17554097 -3597.94489112     0.00000066    -0.00000001  0.50D-08  0.79D-08 15  8   343.75
  18      1.21360715    -1.17554038 -3597.94489053     0.00000059    -0.00000001  0.25D-08  0.40D-08 15  1   364.49

 Norm of t1 vector:      0.16990237      S-energy:    -0.00244155      T1 diagnostic:  0.01779955
                                                                       D1 diagnostic:  0.10252790
 Norm of t2 vector:      0.42981430      P-energy:    -1.17309883
                                         Alpha-Beta:  -0.83669862
                                         Alpha-Alpha: -0.17426167
                                         Beta-Beta:   -0.16213855

 Singles amplitudes (print threshold =  0.500E-01):

         I         SYM. A    A   T(IA) [Alpha-Alpha]

        11         1         2      0.09407285

 Doubles amplitudes (print threshold =  0.500E-01):

         I         J         SYM. A    SYM. B    A         B      T(IJ, AB) [Alpha-Beta]

        11        11         1         1         2         2     -0.05759815
        11        11         2         2         1         1     -0.05189038
        11        11         3         3         1         1     -0.05189038
        11        11         4         4         2         2     -0.05636450
        12        11         1         1         2         1     -0.05005789

 Spin contamination <S**2-Sz**2-Sz>     0.00000000

 Memory could be reduced to 211.65 Mwords without degradation in triples
 

  Correlated core orbitals:             1.1       2.1       3.1       4.1       5.1       6.1       7.1       8.1       9.1       1.2
                                        2.2       3.2       4.2       1.3       2.3       3.3       4.3       1.4
  Orbital energies:                  -665.1430  -94.8689  -84.3976  -16.7549  -13.2382   -7.4798   -7.4597   -2.5843   -1.5576  -84.4013
                                      -13.2402   -7.4546   -1.5849  -84.4013  -13.2402   -7.4546   -1.5849   -7.4550
 
  RCCSD core-core energy               -0.972210563449
  RCCSD core-valence energy            -0.112214649362
  RCCSD valence correlation energy     -0.091115170761
 

 RESULTS
 =======

  Reference energy                  -3596.769350150090
  RCCSD singles energy                 -0.002441548772
  RCCSD pair energy                    -1.173098834800
  RCCSD correlation energy             -1.175540383573
  Triples (T) contribution             -0.023177740483
  Total correlation energy             -1.198718124056
 
  RHF-RCCSD energy                  -3597.944890533663
  RHF-RCCSD[T] energy               -3597.969219377380
  RHF-RCCSD-T energy                -3597.967799347900
 !RHF-RCCSD(T) energy               -3597.968068274146

 Program statistics:

 Available memory in ccsd:               999996162
 Min. memory needed in ccsd:              34062063
 Max. memory used in ccsd:                49818044
 Max. memory used in cckext:              39674140 (18 integral passes)
 Max. memory used in cckint:              20642706 ( 1 integral passes)



 **********************************************************************************************************************************
 DATASETS  * FILE   NREC   LENGTH (MB)   RECORD NAMES
              1      22       21.76       500      610      700      900      950      970     1000      129      960     1700   
                                          VAR    BASINP    GEOM    SYMINP    ZMAT    AOBASIS   BASIS     P2S    ABASIS    OPER   
                                         1101     1401     1411     1412     1650     1100     1400     1410     1200     1210   
                                          SR      EKINR    POTR     PVPR    MOLCAS      S      EKIN      POT      H0       H01  
                                         1080     1600   
                                         AOSYM     SMH  

              2       4        3.56       700     1000      520     2100   
                                         GEOM     BASIS   MCVARS     RHF  

 PROGRAMS   *        TOTAL  RCCSD(T)       RHF       INT
 CPU TIMES  *       725.24    658.74      3.42     62.02
 REAL TIME  *      1497.69 SEC
 DISK USED  *        45.83 GB      
 SF USED    *         4.02 GB      
 GA USED    *         0.00 MB       (max)       0.00 MB       (current)
 **********************************************************************************************************************************
 SETTING CCSD           =     -3597.96806827  AU                              
 SETTING BIND           =        -0.07458042  AU                              
 Output type csv         
                                                                                                                                                                                                                                                                

  2.20,SCF,CCSD,BIND
   2.2,   -3596.769350,   -3597.968068,   -0.07458042
                                                  

 RCCSD(T)/USERDEF energy=  -3597.968068274146

        RCCSD(T)        RHF-SCF 
  -3597.96806827  -3596.76935015
 **********************************************************************************************************************************
 Molpro calculation terminated
 Variable memory released
