
 Primary working directories    : /global/cscratch1/sd/haihan
 Secondary working directories  : /global/cscratch1/sd/haihan
 Wavefunction directory         : /global/homes/h/haihan/wfu/
 Main file repository           : /global/cscratch1/sd/haihan/

 SHA1      : 19cd028119e0e09f93f0674bd8af7968d9b3eff6
 NAME      : 2015.1.36
 ARCHNAME  : linux/x86_64
 FC        : /opt/cray/pe/craype/2.5.14/bin/ftn
 BLASLIB   : -L/opt/intel/compilers_and_libraries_2018.1.163/linux/mkl/lib/intel64 -Wl,-_start-group -lmkl_intel_ilp64 -lmkl_intel_thread -lmkl_core -Wl,-_end-group -liomp5
 id        : lbl

 Nodes     nprocs
 nid00009    11
 Number of processes for MPI-2 version of Molpro:   nprocs(total)=   12   nprocs(compute)=   11   nprocs(helper)=    1

 Using customized tuning parameters: mindgm=7; mindgv=16; mindgc=1; mindgr=1; noblas=0; minvec=7
 default implementation of scratch files=sf  

 ***,Calculation for Nb atom, singlet and triplet
 memory,1,g
 
 gthresh,twoint=1.e-15
 gthresh,oneint=1.e-15
 
 geometry={
 1
 Nb
 Nb  0.0 0.0 0.0
 }
 
 basis={
 Including file /global/u2/h/haihan/Research/ECP/f_group_element_ecps/Nb/Molpro/atom/AE/dkh/aug-cc-pwCVTZ.basis
 }
 
 set,dkroll=1,dkho=10,dkhp=4
 
 
 
 Including file /global/u2/h/haihan/Research/ECP/f_group_element_ecps/Nb/Molpro/atom/AE/dkh/Nb_states_ae.proc
 
 
 do i=1,17
     if (i.eq.1) then
         Id4s1
     else if (i.eq.2) then
         Id5
     else if (i.eq.3) then
         EAd4s2
     else if (i.eq.4) then
         IPd4
     else if (i.eq.5) then
         IPd3s1
     else if (i.eq.6) then
         IId3
     else if (i.eq.7) then
         IIId2
     else if (i.eq.8) then
         IVd1
     else if (i.eq.9) then
         IVp1
     else if (i.eq.10) then
         IVf1
     else if (i.eq.11) then
         Vp6
     else if (i.eq.12) then
         VIp5
     else if (i.eq.13) then
         VIIp4
     else if (i.eq.14) then
         VIIIp3
     else if (i.eq.15) then
         IXp2
     else if (i.eq.16) then
         Xp1
     else if (i.eq.17) then
         XIp
     endif
     scf(i)=energy
     _CC_NORM_MAX=2.0
     {rccsd(t),maxit=100;core}
     ccsd(i)=energy
 enddo
 
 table,scf,ccsd
 type,csv
 save
 

 Variables initialized (889), CPU time= 0.01 sec
 Commands  initialized (702), CPU time= 0.01 sec, 572 directives.
 Default parameters read. Elapsed time= 0.14 sec

 Checking input...
 Passed
1


                                         ***  PROGRAM SYSTEM MOLPRO  ***
                                       Copyright, TTI GmbH Stuttgart, 2015
                                    Version 2015.1 linked Dec 29 2018 15:55:43


 **********************************************************************************************************************************
 LABEL *   Calculation for Nb atom, singlet and triplet                                  
  64 bit mpp version                                                                     DATE: 04-Oct-22          TIME: 06:02:28  
 **********************************************************************************************************************************

 SHA1:             19cd028119e0e09f93f0674bd8af7968d9b3eff6
 **********************************************************************************************************************************

 THRESHOLDS:

 ZERO    =  1.00D-12  ONEINT  =  1.00D-12  TWOINT  =  1.00D-15  PREFAC  =  1.00D-14  LOCALI  =  1.00D-09  EORDER  =  1.00D-04
 ENERGY  =  0.00D+00  ETEST   =  0.00D+00  EDENS   =  0.00D+00  THRDEDEF=  1.00D-06  GRADIENT=  1.00D-02  STEP    =  1.00D-03
 ORBITAL =  1.00D-05  CIVEC   =  1.00D-05  COEFF   =  1.00D-04  PRINTCI =  5.00D-02  PUNCHCI =  9.90D+01  OPTGRAD =  3.00D-04
 OPTENERG=  1.00D-06  OPTSTEP =  3.00D-04  THRGRAD =  1.00D-10  COMPRESS=  1.00D-11  VARMIN  =  1.00D-07  VARMAX  =  1.00D-03
 THRDOUB =  0.00D+00  THRDIV  =  1.00D-05  THRRED  =  1.00D-07  THRPSP  =  1.00D+00  THRDC   =  1.00D-10  THRCS   =  1.00D-10
 THRNRM  =  1.00D-08  THREQ   =  0.00D+00  THRDE   =  1.00D+00  THRREF  =  1.00D-05  SPARFAC =  1.00D+00  THRDLP  =  1.00D-07
 THRDIA  =  1.00D-10  THRDLS  =  1.00D-07  THRGPS  =  0.00D+00  THRKEX  =  0.00D+00  THRDIS  =  2.00D-01  THRVAR  =  1.00D-10
 THRLOC  =  1.00D-06  THRGAP  =  1.00D-06  THRLOCT = -1.00D+00  THRGAPT = -1.00D+00  THRORB  =  1.00D-06  THRMLTP =  0.00D+00
 THRCPQCI=  1.00D-10  KEXTA   =  0.00D+00  THRCOARS=  0.00D+00  SYMTOL  =  1.00D-06  GRADTOL =  1.00D-06  THROVL  =  1.00D-08
 THRORTH =  1.00D-08  GRID    =  1.00D-06  GRIDMAX =  1.00D-03  DTMAX   =  0.00D+00  THROCCDE=  1.00D-01  THROCCDE=  1.00D-01



 THRESHOLDS:

 ZERO    =  1.00D-12  ONEINT  =  1.00D-15  TWOINT  =  1.00D-15  PREFAC  =  1.00D-14  LOCALI  =  1.00D-09  EORDER  =  1.00D-04
 ENERGY  =  0.00D+00  ETEST   =  0.00D+00  EDENS   =  0.00D+00  THRDEDEF=  1.00D-06  GRADIENT=  1.00D-02  STEP    =  1.00D-03
 ORBITAL =  1.00D-05  CIVEC   =  1.00D-05  COEFF   =  1.00D-04  PRINTCI =  5.00D-02  PUNCHCI =  9.90D+01  OPTGRAD =  3.00D-04
 OPTENERG=  1.00D-06  OPTSTEP =  3.00D-04  THRGRAD =  1.00D-10  COMPRESS=  1.00D-11  VARMIN  =  1.00D-07  VARMAX  =  1.00D-03
 THRDOUB =  0.00D+00  THRDIV  =  1.00D-05  THRRED  =  1.00D-07  THRPSP  =  1.00D+00  THRDC   =  1.00D-10  THRCS   =  1.00D-10
 THRNRM  =  1.00D-08  THREQ   =  0.00D+00  THRDE   =  1.00D+00  THRREF  =  1.00D-05  SPARFAC =  1.00D+00  THRDLP  =  1.00D-07
 THRDIA  =  1.00D-10  THRDLS  =  1.00D-07  THRGPS  =  0.00D+00  THRKEX  =  0.00D+00  THRDIS  =  2.00D-01  THRVAR  =  1.00D-10
 THRLOC  =  1.00D-06  THRGAP  =  1.00D-06  THRLOCT = -1.00D+00  THRGAPT = -1.00D+00  THRORB  =  1.00D-06  THRMLTP =  0.00D+00
 THRCPQCI=  1.00D-10  KEXTA   =  0.00D+00  THRCOARS=  0.00D+00  SYMTOL  =  1.00D-06  GRADTOL =  1.00D-06  THROVL  =  1.00D-08
 THRORTH =  1.00D-08  GRID    =  1.00D-06  GRIDMAX =  1.00D-03  DTMAX   =  0.00D+00  THROCCDE=  1.00D-01  THROCCDE=  1.00D-01



Geometry recognized as XYZ


 Variable memory set to 1000000000 words,  buffer space   230000 words

 SETTING BASIS          =    USERDEF
 SETTING DKROLL         =         1.00000000                                  
 SETTING DKHO           =        10.00000000                                  
 SETTING DKHP           =         4.00000000                                  

 DO I                   =         1.00000000   

 Running procedure=ID4S1


 Recomputing integrals since basis changed


 Using spherical harmonics



 PROGRAM * SEWARD (Integral evaluation for generally contracted gaussian basis sets)     Author: Roland Lindh, 1990

 Geometry written to block  1 of record 700

 Orientation using atomic masses  
 Molecule type: Atom
 Symmetry elements: X,Y,Z
 Rotational constants:       0.0000000      0.0000000      0.0000000 GHz  (calculated with average atomic masses)

 Point group  D2h 



 ATOMIC COORDINATES

 NR  ATOM    CHARGE       X              Y              Z

   1  NB     41.00    0.000000000    0.000000000    0.000000000

 NUCLEAR CHARGE:                   41
 NUMBER OF PRIMITIVE AOS:         523
 NUMBER OF SYMMETRY AOS:          392
 NUMBER OF CONTRACTIONS:          392   ( 101Ag  +  54B3u +  54B2u +  39B1g +  54B1u +  39B2g +  39B3g +  12Au  )
 NUMBER OF CORE ORBITALS:          18   (   6Ag  +   3B3u +   3B2u +   1B1g +   3B1u +   1B2g +   1B3g +   0Au  )
 NUMBER OF VALENCE ORBITALS:        6   (   3Ag  +   0B3u +   0B2u +   1B1g +   0B1u +   1B2g +   1B3g +   0Au  )


 NUCLEAR REPULSION ENERGY    0.00000000

 One-electron integrals computed with SEWARD

 10nd-order Douglas-Kroll-Hess method activated. McWeeny DKH parametrization is used.

 Computing Douglas-Kroll / X2C integrals

 AO integral compression algorithm  1   Integral accuracy      1.0D-15

     2123.104 MB (compressed) written to integral file ( 44.0%)

     Node minimum: 95.945 MB, node maximum: 384.827 MB


 NUMBER OF SORTED TWO-ELECTRON INTEGRALS:   34597943.     BUFFER LENGTH:  32768
 NUMBER OF SEGMENTS:   2  SEGMENT LENGTH:   31997645      RECORD LENGTH: 524288

 Memory used in sort:      32.55 MW

 SORT1 READ   602512672. AND WROTE    18079053. INTEGRALS IN     53 RECORDS. CPU TIME:    15.84 SEC, REAL TIME:    17.83 SEC
 SORT2 READ   199173305. AND WROTE   380668437. INTEGRALS IN   5346 RECORDS. CPU TIME:     2.28 SEC, REAL TIME:     3.53 SEC

 Node minimum:    34533682.  Node maximum:    34719440. integrals

 OPERATOR DM      FOR CENTER  0  COORDINATES:    0.000000    0.000000    0.000000

 EXTRA SYMMETRY OF AOS IN SYMMETRY 1:   1 1 1 1 1 1 1 1 1 1   1 1 1 1 1 1 1 1 1 1   1 1 1 1 1 1 1 1 1 1   1 1 2 3 2 3 2 3 2 3
                                        2 3 2 3 2 3 2 3 2 3   2 3 2 3 2 3 2 3 2 3   2 3 2 3 2 3 2 3 2 3   2 3 2 3 2 3 2 3 4 5
                                        6 4 5 6 4 5 6 4 5 6   4 5 6 7 8 910 7 8 9  10
 EXTRA SYMMETRY OF AOS IN SYMMETRY 2:   1 1 1 1 1 1 1 1 1 1   1 1 1 1 1 1 1 1 1 1   1 1 1 1 1 1 1 1 1 1   1 1 1 2 3 2 3 2 3 2
                                        3 2 3 2 3 4 5 6 4 5   6 4 5 6
 EXTRA SYMMETRY OF AOS IN SYMMETRY 3:   1 1 1 1 1 1 1 1 1 1   1 1 1 1 1 1 1 1 1 1   1 1 1 1 1 1 1 1 1 1   1 1 1 2 3 2 3 2 3 2
                                        3 2 3 2 3 4 5 6 4 5   6 4 5 6
 EXTRA SYMMETRY OF AOS IN SYMMETRY 4:   1 1 1 1 1 1 1 1 1 1   1 1 1 1 1 1 1 1 1 1   1 1 1 2 3 2 3 2 3 2   3 2 3 4 5 6 4 5 6
 EXTRA SYMMETRY OF AOS IN SYMMETRY 5:   1 1 1 1 1 1 1 1 1 1   1 1 1 1 1 1 1 1 1 1   1 1 1 1 1 1 1 1 1 1   1 1 1 2 3 2 3 2 3 2
                                        3 2 3 2 3 4 5 6 4 5   6 4 5 6
 EXTRA SYMMETRY OF AOS IN SYMMETRY 6:   1 1 1 1 1 1 1 1 1 1   1 1 1 1 1 1 1 1 1 1   1 1 1 2 3 2 3 2 3 2   3 2 3 4 5 6 4 5 6
 EXTRA SYMMETRY OF AOS IN SYMMETRY 7:   1 1 1 1 1 1 1 1 1 1   1 1 1 1 1 1 1 1 1 1   1 1 1 2 3 2 3 2 3 2   3 2 3 4 5 6 4 5 6
 EXTRA SYMMETRY OF AOS IN SYMMETRY 8:   1 1 1 1 1 1 2 3 2 3   2 3

 Eigenvalues of metric

         1 0.114E-04 0.314E-04 0.399E-04 0.399E-04 0.621E-04 0.128E-03 0.222E-03 0.664E-03
         2 0.339E-06 0.217E-05 0.607E-05 0.127E-04 0.264E-04 0.499E-04 0.360E-03 0.597E-03
         3 0.339E-06 0.217E-05 0.607E-05 0.127E-04 0.264E-04 0.499E-04 0.360E-03 0.597E-03
         4 0.399E-04 0.664E-03 0.112E-02 0.208E-02 0.393E-02 0.742E-02 0.137E-01 0.245E-01
         5 0.339E-06 0.217E-05 0.607E-05 0.127E-04 0.264E-04 0.499E-04 0.360E-03 0.597E-03
         6 0.399E-04 0.664E-03 0.112E-02 0.208E-02 0.393E-02 0.742E-02 0.137E-01 0.245E-01
         7 0.399E-04 0.664E-03 0.112E-02 0.208E-02 0.393E-02 0.742E-02 0.137E-01 0.245E-01
         8 0.453E-01 0.220E+00 0.250E+00 0.250E+00 0.464E+00 0.892E+00 0.892E+00 0.952E+00


 **********************************************************************************************************************************
 DATASETS  * FILE   NREC   LENGTH (MB)   RECORD NAMES
              1      22       21.63       500      610      700      900      950      970     1000      129      960     1700   
                                          VAR    BASINP    GEOM    SYMINP    ZMAT    AOBASIS   BASIS     P2S    ABASIS    OPER   
                                         1101     1401     1411     1412     1650     1100     1400     1410     1200     1210   
                                          SR      EKINR    POTR     PVPR    MOLCAS      S      EKIN      POT      H0       H01  
                                         1080     1600   
                                         AOSYM     SMH  

 PROGRAMS   *        TOTAL       INT
 CPU TIMES  *       151.00    150.41
 REAL TIME  *       156.84 SEC
 DISK USED  *         4.53 GB      
 GA USED    *         0.00 MB       (max)       0.00 MB       (current)
 **********************************************************************************************************************************


 PROGRAM * RHF-SCF (OPEN SHELL)       Authors: W. Meyer, H.-J. Werner


 NUMBER OF ELECTRONS:      23+   18-    SPACE SYMMETRY=1    SPIN SYMMETRY: Sextet  
 CONVERGENCE THRESHOLDS:    1.00E-05 (Density)    1.00E-07 (Energy)
 MAX. NUMBER OF ITERATIONS:       60
 INTERPOLATION TYPE:            DIIS
 INTERPOLATION STEPS:              2 (START)      1 (STEP)
 LEVEL SHIFTS:                 -0.60 (CLOSED) -0.30 (OPEN) 

 Number of closed-shell orbitals:   18 (   6   3   3   1   3   1   1   0 )
 Number of open-shell orbitals:      5 (   2   0   0   1   0   1   1   0 )


 
 Extra symmetries of mos in symmetry 1:   1   1   1   3   2   1   1   3   2
     Symmetry restrictions:    1             1
 Orbital guess generated from atomic densities. Full valence occupancy:    9   3   3   2   3   2   2   0


 Molecular orbital dump at record        3202.2

 ITERATION    DDIFF          GRAD             ENERGY        2-EL.EN.            DIPOLE MOMENTS         DIIS   ORB.
    1      0.000D+00      0.000D+00     -3812.90371048   2719.629116    0.00000    0.00000    0.00000    0    start
    2      0.000D+00      0.166D-01     -3816.42088770   2989.817084    0.00000    0.00000    0.00000    1    diag,B
    3      0.209D+00      0.263D-01     -3816.95620807   2954.718146    0.00000    0.00000    0.00000    2    diag,B
    4      0.323D-01      0.121D-01     -3817.17103395   2934.765025    0.00000    0.00000    0.00000    3    diag,B
    5      0.163D-01      0.622D-02     -3817.26824676   2916.984492    0.00000    0.00000    0.00000    4    diag,B
    6      0.917D-02      0.159D-02     -3817.28349002   2909.449876    0.00000    0.00000    0.00000    5    diag,B
    7      0.550D-02      0.382D-03     -3817.28510132   2908.275714    0.00000    0.00000    0.00000    6    fixocc
    8      0.269D-02      0.262D-03     -3817.28547903   2908.359361    0.00000    0.00000    0.00000    7    diag,B
    9      0.147D-02      0.105D-03     -3817.28556935   2908.542053    0.00000    0.00000    0.00000    8    diag,B
   10      0.866D-03      0.253D-04     -3817.28558555   2908.609633    0.00000    0.00000    0.00000    9    orth
   11      0.147D-03      0.294D-04     -3817.28558899   2908.575135    0.00000    0.00000    0.00000    9    diag,B
   12      0.165D-03      0.150D-04     -3817.28559024   2908.538559    0.00000    0.00000    0.00000    9    diag,B
   13      0.214D-04      0.346D-05     -3817.28559067   2908.536691    0.00000    0.00000    0.00000    9    diag,B
   14      0.416D-04      0.243D-05     -3817.28559103   2908.536741    0.00000    0.00000    0.00000    9    diag,B
   15      0.123D-04      0.948D-06     -3817.28559108   2908.536840    0.00000    0.00000    0.00000    9    diag,B
   16      0.131D-04      0.266D-06     -3817.28559108   2908.537064    0.00000    0.00000    0.00000    9    diag,B
   17      0.167D-05      0.127D-06     -3817.28559108   2908.537083    0.00000    0.00000    0.00000    0    orth

 Final alpha occupancy:   8   3   3   2   3   2   2   0
 Final beta  occupancy:   6   3   3   1   3   1   1   0

 !RHF STATE 1.1 Energy              -3817.285591081561
 Nuclear energy                         0.00000000
 One-electron energy                -5271.55413260
 Two-electron energy                 1454.26854152
 Virial quotient                       -0.90733165
 !RHF STATE 1.1 Dipole moment           0.00000000     0.00000000     0.00000000
 Dipole moment /Debye                   0.00000000     0.00000000     0.00000000

 ELECTRON ORBITALS
 =================


   Orb  Occ    Energy  Couls-En    Coefficients

                                   1 1s      1 1s      1 1s      1 1s      1 1s      1 1s      1 1s      1 1s      1 1s      1 1s   
                                   1 1s      1 1s      1 1s      1 1s      1 1s      1 1s      1 1s      1 1s      1 1s      1 1s   
                                   1 1s      1 1s      1 1s      1 1s      1 1s      1 1s      1 1s      1 1s      1 1s      1 1s   
                                   1 1s      1 1s      1 3d0     1 3d2+    1 3d0     1 3d2+    1 3d0     1 3d2+    1 3d0     1 3d2+ 
                                   1 3d0     1 3d2+    1 3d0     1 3d2+    1 3d0     1 3d2+    1 3d0     1 3d2+    1 3d0     1 3d2+ 
                                   1 3d0     1 3d2+    1 3d0     1 3d2+    1 3d0     1 3d2+    1 3d0     1 3d2+    1 3d0     1 3d2+ 
                                   1 3d0     1 3d2+    1 3d0     1 3d2+    1 3d0     1 3d2+    1 3d0     1 3d2+    1 3d0     1 3d2+ 
                                   1 3d0     1 3d2+    1 3d0     1 3d2+    1 3d0     1 3d2+    1 3d0     1 3d2+    1 5g0     1 5g4+ 
                                   1 5g2+    1 5g0     1 5g4+    1 5g2+    1 5g0     1 5g4+    1 5g2+    1 5g0     1 5g4+    1 5g2+ 
                                   1 5g0     1 5g4+    1 5g2+    1 7i6+    1 7i4+    1 7i2+    1 7i0     1 7i6+    1 7i4+    1 7i2+ 
                                   1 7i0  

   1.1   2  -701.4208-1561.4316  0.000042  0.000115  0.000295  0.000468  0.000891  0.001786  0.003710  0.007904  0.017860  0.041501
                                 0.001175  0.099563  0.228267  0.385129  0.362539 -0.047555  0.073095 -0.011079  0.021798 -0.024321
                                 0.010864 -0.009505  0.010972 -0.006166  0.006630 -0.005850  0.001003 -0.000327  0.000179 -0.000086
                                 0.000035 -0.000010  0.000000 -0.000000  0.000000  0.000000  0.000000 -0.000000 -0.000000  0.000000
                                 0.000000 -0.000000  0.000000  0.000000  0.000000  0.000000  0.000000 -0.000000 -0.000000  0.000000
                                 0.000000 -0.000000 -0.000000  0.000000  0.000000 -0.000000 -0.000000 -0.000000  0.000000  0.000000
                                -0.000000 -0.000000  0.000000  0.000000 -0.000000 -0.000000  0.000000  0.000000 -0.000000 -0.000000
                                 0.000000  0.000000 -0.000000 -0.000000  0.000000  0.000000 -0.000000 -0.000000 -0.000000  0.000000
                                 0.000000  0.000000 -0.000000 -0.000000 -0.000000  0.000000  0.000000  0.000000 -0.000000 -0.000000
                                -0.000000 -0.000000  0.000000  0.000000 -0.000000  0.000000 -0.000000 -0.000000  0.000000 -0.000000
                                -0.000000

   2.1   2  -100.8044 -314.7535 -0.000014 -0.000038 -0.000098 -0.000156 -0.000294 -0.000598 -0.001228 -0.002688 -0.005960 -0.015076
                                 0.001570 -0.038171 -0.087732 -0.193968 -0.178873 -0.068017  0.232184  0.724294  0.273625 -0.031188
                                -0.001016  0.019489 -0.025805  0.015774 -0.018607  0.016596 -0.002920  0.000962 -0.000532  0.000256
                                -0.000104  0.000030  0.000000  0.000000  0.000000 -0.000000 -0.000000  0.000000  0.000000 -0.000000
                                -0.000000  0.000000  0.000000 -0.000000  0.000001  0.000000  0.000009  0.000000  0.000015  0.000000
                                 0.000005  0.000000  0.000001  0.000000  0.000001  0.000000  0.000001 -0.000000 -0.000000 -0.000000
                                 0.000001 -0.000000 -0.000000 -0.000000  0.000000 -0.000000 -0.000000 -0.000000  0.000000 -0.000000
                                -0.000000 -0.000000  0.000000 -0.000000 -0.000000  0.000000  0.000000 -0.000000  0.000003 -0.000000
                                -0.000000 -0.000002  0.000000  0.000000  0.000001 -0.000000 -0.000000 -0.000000  0.000000  0.000000
                                 0.000000  0.000000 -0.000000  0.000000  0.000000  0.000000 -0.000000 -0.000000 -0.000000 -0.000000
                                 0.000000

   3.1   2   -17.9759 -105.5399  0.000006  0.000016  0.000041  0.000065  0.000124  0.000251  0.000516  0.001131  0.002506  0.006391
                                -0.000734  0.016287  0.037651  0.086224  0.081901  0.037145 -0.139024 -0.606876 -0.320056  0.338437
                                 0.763736  0.536419 -0.309012  0.160421 -0.155651  0.137503 -0.023685  0.007786 -0.004314  0.002076
                                -0.000849  0.000241  0.000000 -0.000000  0.000000  0.000000  0.000000 -0.000000 -0.000000  0.000000
                                 0.000001 -0.000000  0.000003  0.000000  0.000009 -0.000000  0.000021  0.000000  0.000049 -0.000000
                                 0.000133  0.000000  0.000176 -0.000000  0.000255  0.000000  0.000237 -0.000000 -0.000005  0.000000
                                 0.000004 -0.000000 -0.000017  0.000000  0.000007 -0.000000 -0.000006  0.000000  0.000004 -0.000000
                                -0.000002  0.000000  0.000001 -0.000000 -0.000000  0.000000  0.000000  0.000000  0.000012  0.000000
                                -0.000000 -0.000056 -0.000000  0.000000  0.000025  0.000000 -0.000000 -0.000007  0.000000  0.000000
                                 0.000002 -0.000000 -0.000000 -0.000000  0.000000 -0.000000  0.000000  0.000000 -0.000000  0.000000
                                -0.000000

   4.1   2    -8.2018  -88.1102  0.000000  0.000000  0.000000  0.000000  0.000000  0.000000  0.000000  0.000000  0.000000  0.000000
                                -0.000000  0.000000  0.000000  0.000000  0.000000  0.000000 -0.000000 -0.000000 -0.000000  0.000000
                                 0.000000  0.000000 -0.000000  0.000000 -0.000000  0.000000 -0.000000 -0.000000 -0.000000 -0.000000
                                 0.000000 -0.000000 -0.000000  0.000101 -0.000000  0.000016 -0.000000  0.001145  0.000000 -0.000757
                                -0.000000  0.002172 -0.000000  0.006192 -0.000000  0.020223 -0.000000  0.055408 -0.000000  0.131529
                                -0.000000  0.238026 -0.000000  0.316791 -0.000000  0.292999 -0.000000  0.154332 -0.000000  0.038915
                                -0.000000  0.004192 -0.000000  0.000317 -0.000000  0.000056  0.000000 -0.000001 -0.000000  0.000012
                                 0.000000 -0.000004 -0.000000  0.000002  0.000000 -0.000001 -0.000000  0.000000 -0.000000  0.000000
                                 0.000170  0.000000 -0.000000 -0.000087 -0.000000  0.000000  0.000067  0.000000 -0.000000 -0.000013
                                -0.000000  0.000000  0.000004  0.000000 -0.000000  0.000033 -0.000000  0.000000  0.000000 -0.000012
                                 0.000000

   5.1   2    -8.2010  -88.0539 -0.000000 -0.000000 -0.000000 -0.000000 -0.000000 -0.000000 -0.000000 -0.000001 -0.000002 -0.000006
                                 0.000001 -0.000015 -0.000036 -0.000082 -0.000082 -0.000032  0.000134  0.000621  0.000317 -0.000243
                                -0.001307 -0.000680  0.001280 -0.000119  0.000288 -0.000315  0.000047 -0.000004  0.000015 -0.000005
                                 0.000002 -0.000001  0.000101  0.000000  0.000017  0.000000  0.001143  0.000000 -0.000755 -0.000000
                                 0.002167  0.000000  0.006181  0.000000  0.020185  0.000000  0.055303  0.000000  0.131271  0.000000
                                 0.237607  0.000000  0.316341  0.000000  0.293050  0.000000  0.155284  0.000000  0.039588  0.000000
                                 0.004259  0.000000  0.000303  0.000000  0.000037  0.000000 -0.000007 -0.000000  0.000006  0.000000
                                -0.000004 -0.000000  0.000001  0.000000 -0.000000 -0.000000  0.000000  0.000000  0.000351 -0.000000
                                 0.000000 -0.000373  0.000000 -0.000000  0.000200 -0.000000  0.000000 -0.000048  0.000000 -0.000000
                                 0.000014 -0.000000  0.000000 -0.000000 -0.000000  0.000000  0.000059 -0.000000  0.000000 -0.000000
                                -0.000022

   6.1   2    -2.6515  -40.4256 -0.000002 -0.000006 -0.000016 -0.000025 -0.000048 -0.000097 -0.000199 -0.000435 -0.000967 -0.002444
                                 0.000232 -0.006223 -0.014614 -0.033324 -0.034095 -0.011963  0.054758  0.270215  0.112878 -0.098689
                                -0.657597 -0.563280  0.543154  0.558200  1.020467 -0.600617  0.112642 -0.037810  0.018066 -0.009542
                                 0.003930 -0.001123 -0.000000 -0.000000 -0.000000  0.000000 -0.000003 -0.000000  0.000002  0.000000
                                -0.000006 -0.000000 -0.000016 -0.000000 -0.000053 -0.000000 -0.000142 -0.000000 -0.000343 -0.000000
                                -0.000636 -0.000000 -0.000818 -0.000000 -0.000723 -0.000000 -0.000107  0.000000  0.002279  0.000000
                                 0.003174  0.000000  0.000615  0.000000 -0.000354  0.000000 -0.000065  0.000000 -0.000055  0.000000
                                 0.000006  0.000000 -0.000006 -0.000000  0.000001  0.000000 -0.000000  0.000000 -0.000215 -0.000000
                                 0.000000 -0.000648  0.000000  0.000000 -0.000526 -0.000000  0.000000 -0.000104  0.000000  0.000000
                                 0.000019  0.000000 -0.000000 -0.000000 -0.000000  0.000000  0.000002  0.000000  0.000000  0.000000
                                -0.000001

   7.1   +    -0.2289  -12.8123  0.000001  0.000002  0.000004  0.000007  0.000013  0.000026  0.000053  0.000115  0.000257  0.000647
                                -0.000056  0.001647  0.003891  0.008842  0.009307  0.002867 -0.014433 -0.073640 -0.027037  0.019674
                                 0.202438  0.160027 -0.149257 -0.294919 -0.469519  0.115795  0.254910  0.730450  0.239087  0.019920
                                -0.005763  0.001719  0.000000 -0.000000  0.000000  0.000000  0.000004 -0.000000 -0.000003  0.000000
                                 0.000008 -0.000000  0.000023 -0.000000  0.000075 -0.000000  0.000206 -0.000000  0.000494 -0.000000
                                 0.000891 -0.000000  0.001145 -0.000000  0.000932 -0.000000 -0.000328  0.000000 -0.002651  0.000000
                                -0.004689  0.000000 -0.004529  0.000000 -0.000773  0.000000  0.003055  0.000000  0.003710  0.000000
                                 0.001353  0.000000  0.000149  0.000000 -0.000004 -0.000000  0.000002  0.000000 -0.000650  0.000000
                                 0.000000 -0.000896 -0.000000  0.000000 -0.003491  0.000000  0.000000 -0.002939 -0.000000  0.000000
                                -0.000049  0.000000  0.000000 -0.000000  0.000000  0.000000 -0.000000  0.000000 -0.000000  0.000000
                                -0.000011

   8.1   +    -0.2746  -23.0473 -0.000000 -0.000000 -0.000000 -0.000000 -0.000000 -0.000000 -0.000000 -0.000000 -0.000000 -0.000000
                                -0.000000 -0.000000 -0.000000 -0.000000 -0.000000 -0.000000  0.000000  0.000000  0.000000 -0.000000
                                -0.000000 -0.000000  0.000000  0.000000  0.000000 -0.000000  0.000000 -0.000000 -0.000000  0.000000
                                -0.000000  0.000000 -0.000000 -0.000024 -0.000000 -0.000004 -0.000000 -0.000272  0.000000  0.000178
                                -0.000000 -0.000519 -0.000000 -0.001490 -0.000000 -0.004874 -0.000000 -0.013452 -0.000000 -0.032249
                                -0.000000 -0.058059 -0.000000 -0.074196 -0.000000 -0.059625  0.000000  0.025712  0.000000  0.159569
                                 0.000000  0.259063  0.000000  0.290282  0.000000  0.257126  0.000000  0.179192  0.000000  0.082418
                                 0.000000  0.017013  0.000000  0.000701 -0.000000  0.000011  0.000000 -0.000004 -0.000000  0.000000
                                 0.002370 -0.000000  0.000000  0.001943 -0.000000  0.000000  0.004985 -0.000000  0.000000  0.003195
                                 0.000000 -0.000000 -0.000048  0.000000 -0.000000  0.000010  0.000000 -0.000000  0.000000  0.000029
                                 0.000000

   9.1   0     0.0090   -1.6267 -0.000000 -0.000000 -0.000000 -0.000000 -0.000000 -0.000000 -0.000000 -0.000000 -0.000000 -0.000001
                                 0.000000 -0.000001 -0.000003 -0.000007 -0.000003 -0.000009  0.000016  0.000050  0.000091 -0.000145
                                -0.000024 -0.000621  0.001229 -0.001058  0.006445 -0.007642  0.003724 -0.006643  0.011168 -0.023794
                                 0.046242 -0.035942  0.000000 -0.000000 -0.000002  0.000000  0.000021 -0.000000 -0.000034  0.000000
                                 0.000022 -0.000000 -0.000030  0.000000  0.000013 -0.000000 -0.000127  0.000000 -0.000024 -0.000000
                                -0.000518  0.000000  0.000157 -0.000000 -0.001292  0.000000  0.002145 -0.000000 -0.003415  0.000000
                                 0.009428 -0.000000 -0.015282  0.000000  0.034334 -0.000000 -0.063076  0.000000  0.122603 -0.000000
                                -0.204270  0.000000  0.268816 -0.000000 -0.528216  0.000000  1.300692 -0.000000 -0.000001 -0.000000
                                 0.000000 -0.000012  0.000000  0.000000  0.000009 -0.000000  0.000000 -0.000004  0.000000  0.000000
                                 0.000334 -0.000000 -0.000000  0.000000  0.000000  0.000000 -0.000000 -0.000000 -0.000000  0.000000
                                -0.000000

  10.1   0     0.0031   -1.8733 -0.000000 -0.000000 -0.000000 -0.000000 -0.000001 -0.000001 -0.000003 -0.000005 -0.000013 -0.000029
                                -0.000002 -0.000074 -0.000192 -0.000409 -0.000614  0.000105  0.000515  0.003877 -0.001286  0.003869
                                -0.014923  0.010431 -0.033372  0.062008 -0.189350  0.258079 -0.149115  0.158989 -0.430505  0.674598
                                -1.567909  1.982138 -0.000000  0.000000 -0.000000  0.000000 -0.000000 -0.000000  0.000000  0.000000
                                -0.000001 -0.000000 -0.000002  0.000000 -0.000005  0.000000 -0.000015  0.000000 -0.000036  0.000000
                                -0.000066  0.000000 -0.000083  0.000000 -0.000071  0.000000  0.000030 -0.000000  0.000176  0.000000
                                 0.000349 -0.000000  0.000267 -0.000000  0.000253 -0.000000 -0.000383 -0.000000  0.000587 -0.000000
                                -0.000894  0.000000  0.002616 -0.000000  0.000439  0.000000  0.010440 -0.000000  0.000028  0.000000
                                -0.000000  0.000045 -0.000000 -0.000000  0.000138  0.000000 -0.000000  0.000129 -0.000000 -0.000000
                                 0.000135  0.000000 -0.000000  0.000000  0.000000  0.000000  0.000000 -0.000000 -0.000000 -0.000000
                                 0.000000

                                   1 2px     1 2px     1 2px     1 2px     1 2px     1 2px     1 2px     1 2px     1 2px     1 2px  
                                   1 2px     1 2px     1 2px     1 2px     1 2px     1 2px     1 2px     1 2px     1 2px     1 2px  
                                   1 2px     1 2px     1 2px     1 2px     1 2px     1 2px     1 2px     1 2px     1 2px     1 2px  
                                   1 2px     1 2px     1 2px     1 4f1+    1 4f3+    1 4f1+    1 4f3+    1 4f1+    1 4f3+    1 4f1+ 
                                   1 4f3+    1 4f1+    1 4f3+    1 4f1+    1 4f3+    1 6h1+    1 6h3+    1 6h5+    1 6h1+    1 6h3+ 
                                   1 6h5+    1 6h1+    1 6h3+    1 6h5+ 

   1.2   2   -89.7980 -299.6817  0.000015  0.000056  0.000199  0.000055  0.000667  0.000582  0.000980  0.002015  0.007616  0.018570
                                 0.000712  0.050137  0.118913  0.237822 -0.002922  0.348764  0.291722  0.103412  0.013275 -0.005885
                                 0.011074 -0.009459  0.004030 -0.002672  0.002556 -0.001066  0.000202 -0.000074  0.000024 -0.000007
                                 0.000004 -0.000002  0.000001  0.000007  0.000000 -0.000012 -0.000000  0.000002  0.000000 -0.000001
                                 0.000000  0.000000  0.000000 -0.000000 -0.000000  0.000000 -0.000000 -0.000000 -0.000000  0.000000
                                -0.000000  0.000000 -0.000000 -0.000000

   2.2   2   -14.2672  -98.7174 -0.000006 -0.000024 -0.000086 -0.000024 -0.000288 -0.000256 -0.000417 -0.000888 -0.003326 -0.008287
                                -0.000220 -0.022623 -0.055111 -0.115855  0.002890 -0.180409 -0.122313  0.158225  0.460692 -0.006027
                                 0.441936 -0.042878  0.136848 -0.014061  0.022760 -0.009117  0.002086 -0.000719  0.000253 -0.000075
                                 0.000043 -0.000021  0.000007  0.000280  0.000000 -0.000131 -0.000000  0.000106  0.000000 -0.000007
                                -0.000000  0.000007  0.000000 -0.000003 -0.000000  0.000045 -0.000000  0.000000 -0.000035  0.000000
                                -0.000000  0.000006 -0.000000  0.000000

   3.2   2    -1.5762  -35.5190  0.000002  0.000009  0.000030  0.000008  0.000102  0.000090  0.000150  0.000313  0.001183  0.002932
                                 0.000099  0.008061  0.019773  0.041817 -0.001000  0.065873  0.042281 -0.078620 -0.213028 -0.028611
                                -0.192849 -0.036623  0.118110  0.443375  0.005926  0.427766  0.175826  0.027032  0.003505  0.000195
                                -0.000022  0.000006 -0.000001  0.001037  0.000000  0.000808  0.000000  0.006087  0.000000  0.003262
                                -0.000000 -0.000386 -0.000000  0.000210  0.000000  0.000125 -0.000000  0.000000  0.000278 -0.000000
                                -0.000000 -0.000126  0.000000  0.000000

   4.2   0     0.0040   -1.8331 -0.000000 -0.000000 -0.000001 -0.000000 -0.000002 -0.000005  0.000007 -0.000018 -0.000014 -0.000154
                                 0.000112 -0.000236 -0.000356 -0.001246  0.000745 -0.002135 -0.000316  0.000274  0.017340 -0.031084
                                 0.069469 -0.074245  0.045775 -0.091790  0.122702 -0.099866  0.043858 -0.045326  0.088128 -0.038979
                                 0.287194 -0.612957  1.345823  0.000025 -0.000000 -0.000040  0.000000  0.000108 -0.000000  0.000952
                                 0.000000  0.001154  0.000000  0.001480 -0.000000  0.000000  0.000000  0.000000 -0.000012  0.000000
                                -0.000000 -0.000030  0.000000  0.000000

   5.2   0     0.0114   -3.9725  0.000000  0.000001  0.000002  0.000000  0.000009  0.000003  0.000024  0.000010  0.000107  0.000115
                                 0.000150  0.000550  0.001627  0.002833  0.000816  0.004260  0.004009 -0.008118 -0.001494 -0.041608
                                 0.064684 -0.095484  0.071764 -0.054527  0.148482 -0.057082  0.076965 -0.090572 -0.046067 -0.374385
                                 0.380055 -1.764589  1.195287 -0.000091  0.000000  0.000149 -0.000000 -0.000394  0.000000 -0.003332
                                -0.000000 -0.004304 -0.000000 -0.004689 -0.000000 -0.000002 -0.000000 -0.000000  0.000041 -0.000000
                                 0.000000  0.000103 -0.000000 -0.000000

                                   1 2py     1 2py     1 2py     1 2py     1 2py     1 2py     1 2py     1 2py     1 2py     1 2py  
                                   1 2py     1 2py     1 2py     1 2py     1 2py     1 2py     1 2py     1 2py     1 2py     1 2py  
                                   1 2py     1 2py     1 2py     1 2py     1 2py     1 2py     1 2py     1 2py     1 2py     1 2py  
                                   1 2py     1 2py     1 2py     1 4f1-    1 4f3-    1 4f1-    1 4f3-    1 4f1-    1 4f3-    1 4f1- 
                                   1 4f3-    1 4f1-    1 4f3-    1 4f1-    1 4f3-    1 6h1-    1 6h3-    1 6h5-    1 6h1-    1 6h3- 
                                   1 6h5-    1 6h1-    1 6h3-    1 6h5- 

   1.3   2   -89.7980 -299.6817  0.000015  0.000056  0.000199  0.000055  0.000667  0.000582  0.000980  0.002015  0.007616  0.018570
                                 0.000712  0.050137  0.118913  0.237822 -0.002922  0.348764  0.291722  0.103412  0.013275 -0.005885
                                 0.011074 -0.009459  0.004030 -0.002672  0.002556 -0.001066  0.000202 -0.000074  0.000024 -0.000007
                                 0.000004 -0.000002  0.000001  0.000007  0.000000 -0.000012 -0.000000  0.000002  0.000000 -0.000001
                                 0.000000  0.000000  0.000000 -0.000000 -0.000000  0.000000 -0.000000  0.000000 -0.000000  0.000000
                                 0.000000  0.000000 -0.000000  0.000000

   2.3   2   -14.2672  -98.7174 -0.000006 -0.000024 -0.000086 -0.000024 -0.000288 -0.000256 -0.000417 -0.000888 -0.003326 -0.008287
                                -0.000220 -0.022623 -0.055111 -0.115855  0.002890 -0.180409 -0.122313  0.158225  0.460692 -0.006027
                                 0.441936 -0.042878  0.136848 -0.014061  0.022760 -0.009117  0.002086 -0.000719  0.000253 -0.000075
                                 0.000043 -0.000021  0.000007  0.000280  0.000000 -0.000131 -0.000000  0.000106  0.000000 -0.000007
                                -0.000000  0.000007  0.000000 -0.000003 -0.000000  0.000045 -0.000000  0.000000 -0.000035  0.000000
                                -0.000000  0.000006 -0.000000 -0.000000

   3.3   2    -1.5762  -35.5190  0.000002  0.000009  0.000030  0.000008  0.000102  0.000090  0.000150  0.000313  0.001183  0.002932
                                 0.000099  0.008061  0.019773  0.041817 -0.001000  0.065873  0.042281 -0.078620 -0.213028 -0.028611
                                -0.192849 -0.036623  0.118110  0.443375  0.005926  0.427766  0.175826  0.027032  0.003505  0.000195
                                -0.000022  0.000006 -0.000001  0.001037  0.000000  0.000808  0.000000  0.006087  0.000000  0.003262
                                -0.000000 -0.000386 -0.000000  0.000210  0.000000  0.000125 -0.000000 -0.000000  0.000278 -0.000000
                                 0.000000 -0.000126  0.000000 -0.000000

   4.3   0     0.0040   -1.8331 -0.000000 -0.000000 -0.000001 -0.000000 -0.000002 -0.000005  0.000007 -0.000018 -0.000014 -0.000154
                                 0.000112 -0.000236 -0.000356 -0.001246  0.000745 -0.002135 -0.000316  0.000274  0.017340 -0.031084
                                 0.069469 -0.074245  0.045775 -0.091790  0.122702 -0.099866  0.043858 -0.045326  0.088128 -0.038979
                                 0.287194 -0.612957  1.345823  0.000025 -0.000000 -0.000040  0.000000  0.000108 -0.000000  0.000952
                                 0.000000  0.001154  0.000000  0.001480  0.000000  0.000000  0.000000 -0.000000 -0.000012  0.000000
                                 0.000000 -0.000030  0.000000 -0.000000

   5.3   0     0.0114   -3.9725  0.000000  0.000001  0.000002  0.000000  0.000009  0.000003  0.000024  0.000010  0.000107  0.000115
                                 0.000150  0.000550  0.001627  0.002833  0.000816  0.004260  0.004009 -0.008118 -0.001494 -0.041608
                                 0.064684 -0.095484  0.071764 -0.054527  0.148482 -0.057082  0.076965 -0.090572 -0.046067 -0.374385
                                 0.380055 -1.764589  1.195287 -0.000091  0.000000  0.000149 -0.000000 -0.000394  0.000000 -0.003332
                                -0.000000 -0.004304 -0.000000 -0.004689 -0.000000 -0.000002 -0.000000  0.000000  0.000041 -0.000000
                                -0.000000  0.000103 -0.000000  0.000000

                                   1 3d2-    1 3d2-    1 3d2-    1 3d2-    1 3d2-    1 3d2-    1 3d2-    1 3d2-    1 3d2-    1 3d2- 
                                   1 3d2-    1 3d2-    1 3d2-    1 3d2-    1 3d2-    1 3d2-    1 3d2-    1 3d2-    1 3d2-    1 3d2- 
                                   1 3d2-    1 3d2-    1 3d2-    1 5g2-    1 5g4-    1 5g2-    1 5g4-    1 5g2-    1 5g4-    1 5g2- 
                                   1 5g4-    1 5g2-    1 5g4-    1 7i2-    1 7i6-    1 7i4-    1 7i2-    1 7i6-    1 7i4- 

   1.4   2    -8.2018  -88.1102  0.000101  0.000016  0.001145 -0.000757  0.002172  0.006192  0.020223  0.055408  0.131529  0.238026
                                 0.316791  0.292999  0.154332  0.038915  0.004192  0.000317  0.000056 -0.000001  0.000012 -0.000004
                                 0.000002 -0.000001  0.000000  0.000170  0.000000 -0.000087 -0.000000  0.000067  0.000000 -0.000013
                                -0.000000  0.000004  0.000000  0.000033 -0.000000 -0.000000 -0.000012  0.000000  0.000000

   2.4   +    -0.2746  -23.0473 -0.000024 -0.000004 -0.000272  0.000178 -0.000519 -0.001490 -0.004874 -0.013452 -0.032249 -0.058059
                                -0.074196 -0.059625  0.025712  0.159569  0.259063  0.290282  0.257126  0.179192  0.082418  0.017013
                                 0.000701  0.000011 -0.000004  0.002370  0.000000  0.001943  0.000000  0.004985  0.000000  0.003195
                                 0.000000 -0.000048  0.000000  0.000010 -0.000000 -0.000000  0.000029 -0.000000  0.000000

   3.4   0     0.0090   -1.6208  0.000000 -0.000002  0.000024 -0.000036  0.000027 -0.000016  0.000060 -0.000001  0.000282  0.000029
                                 0.000864 -0.000735  0.001932 -0.004934  0.007078 -0.018152  0.031994 -0.065772  0.121799 -0.207221
                                 0.269532 -0.536225  1.305402 -0.000010 -0.000000 -0.000014 -0.000000 -0.000010  0.000000 -0.000017
                                -0.000000  0.000159  0.000000 -0.000000  0.000000  0.000000 -0.000000 -0.000000  0.000000

   4.4   0     0.0287   -2.5088 -0.000000  0.000006 -0.000054  0.000091 -0.000053  0.000107  0.000034  0.000556  0.000545  0.002313
                                 0.000656  0.004488 -0.006473  0.007036 -0.030550  0.038437 -0.100626  0.179748 -0.352145  0.616775
                                -0.845579  1.936606 -0.990314 -0.000056 -0.000000 -0.000078 -0.000000 -0.000061 -0.000000 -0.000072
                                 0.000000  0.000908  0.000000 -0.000000 -0.000000  0.000000 -0.000002  0.000000  0.000000

                                   1 2pz     1 2pz     1 2pz     1 2pz     1 2pz     1 2pz     1 2pz     1 2pz     1 2pz     1 2pz  
                                   1 2pz     1 2pz     1 2pz     1 2pz     1 2pz     1 2pz     1 2pz     1 2pz     1 2pz     1 2pz  
                                   1 2pz     1 2pz     1 2pz     1 2pz     1 2pz     1 2pz     1 2pz     1 2pz     1 2pz     1 2pz  
                                   1 2pz     1 2pz     1 2pz     1 4f0     1 4f2+    1 4f0     1 4f2+    1 4f0     1 4f2+    1 4f0  
                                   1 4f2+    1 4f0     1 4f2+    1 4f0     1 4f2+    1 6h2+    1 6h4+    1 6h0     1 6h2+    1 6h4+ 
                                   1 6h0     1 6h2+    1 6h4+    1 6h0  

   1.5   2   -89.8005 -299.6842  0.000015  0.000056  0.000199  0.000055  0.000667  0.000582  0.000980  0.002015  0.007616  0.018570
                                 0.000712  0.050137  0.118912  0.237821 -0.002924  0.348768  0.291732  0.103405  0.013265 -0.005881
                                 0.011072 -0.009456  0.004033 -0.002668  0.002556 -0.001064  0.000203 -0.000074  0.000025 -0.000007
                                 0.000004 -0.000002  0.000001  0.000001  0.000000  0.000010 -0.000000  0.000002  0.000000  0.000002
                                -0.000000 -0.000000  0.000000  0.000000 -0.000000 -0.000000 -0.000000  0.000001  0.000000  0.000000
                                -0.000000 -0.000000 -0.000000  0.000000

   2.5   2   -14.2767  -98.7184 -0.000006 -0.000024 -0.000086 -0.000024 -0.000288 -0.000256 -0.000417 -0.000887 -0.003325 -0.008285
                                -0.000220 -0.022617 -0.055096 -0.115823  0.002891 -0.180363 -0.122301  0.158165  0.460536 -0.006135
                                 0.441876 -0.042739  0.137139 -0.014004  0.022707 -0.009148  0.002056 -0.000727  0.000250 -0.000075
                                 0.000043 -0.000021  0.000007  0.000663  0.000000 -0.000380 -0.000000  0.000035  0.000000 -0.000061
                                -0.000000  0.000018  0.000000 -0.000008 -0.000000 -0.000000  0.000000  0.000058  0.000000 -0.000000
                                -0.000046 -0.000000  0.000000  0.000007

   3.5   2    -1.5828  -35.5806  0.000002  0.000009  0.000031  0.000008  0.000103  0.000090  0.000150  0.000314  0.001186  0.002939
                                 0.000098  0.008079  0.019813  0.041908 -0.001010  0.066020  0.042371 -0.078771 -0.213635 -0.028186
                                -0.194007 -0.035882  0.117106  0.445246  0.006060  0.430853  0.173238  0.023997  0.002757  0.000118
                                 0.000003 -0.000006  0.000002 -0.000638  0.000000  0.000684  0.000000 -0.002318  0.000000 -0.004298
                                 0.000000 -0.000036 -0.000000 -0.000123  0.000000 -0.000000  0.000000  0.000160 -0.000000  0.000000
                                 0.000333  0.000000  0.000000 -0.000198

   4.5   0     0.0038   -1.9205 -0.000000 -0.000000 -0.000001 -0.000000 -0.000002 -0.000005  0.000006 -0.000019 -0.000017 -0.000161
                                 0.000110 -0.000259 -0.000417 -0.001366  0.000737 -0.002322 -0.000452  0.000539  0.017808 -0.030515
                                 0.069107 -0.073027  0.044646 -0.092311  0.121094 -0.100710  0.042180 -0.044029  0.093053 -0.023773
                                 0.286176 -0.567979  1.309543 -0.000129  0.000000  0.000095 -0.000000 -0.000640  0.000000 -0.001249
                                 0.000000 -0.000333  0.000000  0.001656  0.000000  0.000000 -0.000000  0.000000  0.000000 -0.000000
                                -0.000018  0.000000  0.000000 -0.000058

   5.5   0     0.0107   -4.0865  0.000000  0.000001  0.000002  0.000001  0.000009  0.000003  0.000023  0.000012  0.000107  0.000130
                                 0.000135  0.000569  0.001643  0.002931  0.000721  0.004437  0.003986 -0.008027 -0.003416 -0.037497
                                 0.055927 -0.085737  0.065493 -0.043546  0.132464 -0.044620  0.072067 -0.082942 -0.059179 -0.379185
                                 0.325988 -1.686853  1.201855  0.000402 -0.000000 -0.000290  0.000000  0.002001 -0.000000  0.003956
                                -0.000000  0.000772 -0.000000 -0.004210 -0.000000 -0.000000 -0.000000 -0.000001 -0.000000  0.000000
                                 0.000056 -0.000000 -0.000000  0.000180

                                   1 3d1+    1 3d1+    1 3d1+    1 3d1+    1 3d1+    1 3d1+    1 3d1+    1 3d1+    1 3d1+    1 3d1+ 
                                   1 3d1+    1 3d1+    1 3d1+    1 3d1+    1 3d1+    1 3d1+    1 3d1+    1 3d1+    1 3d1+    1 3d1+ 
                                   1 3d1+    1 3d1+    1 3d1+    1 5g1+    1 5g3+    1 5g1+    1 5g3+    1 5g1+    1 5g3+    1 5g1+ 
                                   1 5g3+    1 5g1+    1 5g3+    1 7i5+    1 7i3+    1 7i1+    1 7i5+    1 7i3+    1 7i1+ 

   1.6   2    -8.2086  -88.1112  0.000101  0.000016  0.001145 -0.000757  0.002171  0.006192  0.020220  0.055399  0.131512  0.238004
                                 0.316749  0.292928  0.154399  0.039079  0.004262  0.000322  0.000052 -0.000007  0.000008 -0.000004
                                 0.000002 -0.000001  0.000000  0.000299  0.000000 -0.000285 -0.000000  0.000160  0.000000 -0.000038
                                -0.000000  0.000011  0.000000 -0.000000 -0.000000  0.000052  0.000000  0.000000 -0.000020

   2.6   +    -0.3020  -23.3654 -0.000024 -0.000004 -0.000276  0.000181 -0.000526 -0.001512 -0.004944 -0.013645 -0.032712 -0.058899
                                -0.075262 -0.060526  0.025853  0.161763  0.263997  0.296002  0.258265  0.171784  0.071563  0.012237
                                 0.000358  0.000004 -0.000001  0.000525  0.000000  0.000523  0.000000  0.001323  0.000000  0.000869
                                 0.000000 -0.000023  0.000000 -0.000000 -0.000000  0.000017  0.000000  0.000000  0.000027

   3.6   0     0.0090   -1.6230  0.000000 -0.000002  0.000023 -0.000035  0.000026 -0.000017  0.000058 -0.000004  0.000272  0.000013
                                 0.000840 -0.000746  0.001928 -0.004866  0.007101 -0.017994  0.031917 -0.065338  0.121352 -0.206033
                                 0.268539 -0.531898  1.303060 -0.000001 -0.000000 -0.000011 -0.000000  0.000005 -0.000000 -0.000015
                                -0.000000  0.000273  0.000000 -0.000000  0.000000 -0.000000 -0.000000  0.000000 -0.000000

   4.6   0     0.0285   -2.5151 -0.000000  0.000006 -0.000054  0.000091 -0.000053  0.000104  0.000028  0.000534  0.000501  0.002220
                                 0.000562  0.004370 -0.006371  0.007144 -0.029972  0.038330 -0.099230  0.178526 -0.347639  0.611305
                                -0.833375  1.929780 -0.990812 -0.000010 -0.000000 -0.000052 -0.000000  0.000012 -0.000000 -0.000039
                                 0.000000  0.001556  0.000000 -0.000000  0.000000 -0.000001 -0.000000  0.000000 -0.000002

                                   1 3d1-    1 3d1-    1 3d1-    1 3d1-    1 3d1-    1 3d1-    1 3d1-    1 3d1-    1 3d1-    1 3d1- 
                                   1 3d1-    1 3d1-    1 3d1-    1 3d1-    1 3d1-    1 3d1-    1 3d1-    1 3d1-    1 3d1-    1 3d1- 
                                   1 3d1-    1 3d1-    1 3d1-    1 5g1-    1 5g3-    1 5g1-    1 5g3-    1 5g1-    1 5g3-    1 5g1- 
                                   1 5g3-    1 5g1-    1 5g3-    1 7i5-    1 7i3-    1 7i1-    1 7i5-    1 7i3-    1 7i1- 

   1.7   2    -8.2086  -88.1112  0.000101  0.000016  0.001145 -0.000757  0.002171  0.006192  0.020220  0.055399  0.131512  0.238004
                                 0.316749  0.292928  0.154399  0.039079  0.004262  0.000322  0.000052 -0.000007  0.000008 -0.000004
                                 0.000002 -0.000001  0.000000  0.000299  0.000000 -0.000285 -0.000000  0.000160  0.000000 -0.000038
                                -0.000000  0.000011  0.000000  0.000000 -0.000000  0.000052 -0.000000  0.000000 -0.000020

   2.7   +    -0.3020  -23.3654 -0.000024 -0.000004 -0.000276  0.000181 -0.000526 -0.001512 -0.004944 -0.013645 -0.032712 -0.058899
                                -0.075262 -0.060526  0.025853  0.161763  0.263997  0.296002  0.258265  0.171784  0.071563  0.012237
                                 0.000358  0.000004 -0.000001  0.000525  0.000000  0.000523  0.000000  0.001323  0.000000  0.000869
                                 0.000000 -0.000023  0.000000  0.000000 -0.000000  0.000017 -0.000000 -0.000000  0.000027

   3.7   0     0.0090   -1.6230  0.000000 -0.000002  0.000023 -0.000035  0.000026 -0.000017  0.000058 -0.000004  0.000272  0.000013
                                 0.000840 -0.000746  0.001928 -0.004866  0.007101 -0.017994  0.031917 -0.065338  0.121352 -0.206033
                                 0.268539 -0.531898  1.303060 -0.000001 -0.000000 -0.000011 -0.000000  0.000005 -0.000000 -0.000015
                                 0.000000  0.000273  0.000000  0.000000  0.000000 -0.000000  0.000000  0.000000 -0.000000

   4.7   0     0.0285   -2.5151 -0.000000  0.000006 -0.000054  0.000091 -0.000053  0.000104  0.000028  0.000534  0.000501  0.002220
                                 0.000562  0.004370 -0.006371  0.007144 -0.029972  0.038330 -0.099230  0.178526 -0.347639  0.611305
                                -0.833375  1.929780 -0.990812 -0.000010 -0.000000 -0.000052 -0.000000  0.000012 -0.000000 -0.000039
                                 0.000000  0.001556  0.000000  0.000000  0.000000 -0.000001  0.000000  0.000000 -0.000002

                                   1 4f2-    1 4f2-    1 4f2-    1 4f2-    1 4f2-    1 4f2-    1 6h4-    1 6h2-    1 6h4-    1 6h2- 
                                   1 6h4-    1 6h2- 

   1.8   0     0.1210   -4.5135 -0.002512  0.007323 -0.008226  0.054336 -0.236015  1.127699  0.000000  0.000011 -0.000000 -0.000024
                                 0.000000  0.000189

   2.8   0     0.3467   -7.4463 -0.015302  0.021840 -0.058192  0.056232 -1.298811  0.650242 -0.000000 -0.000099  0.000000  0.000205
                                -0.000000 -0.001545

 HOMO      8.1    -0.274609 =      -7.4725eV
 LUMO      4.5     0.003808 =       0.1036eV
 LUMO-HOMO         0.278417 =       7.5761eV


 **********************************************************************************************************************************
 DATASETS  * FILE   NREC   LENGTH (MB)   RECORD NAMES
              1      22       21.63       500      610      700      900      950      970     1000      129      960     1700   
                                          VAR    BASINP    GEOM    SYMINP    ZMAT    AOBASIS   BASIS     P2S    ABASIS    OPER   
                                         1101     1401     1411     1412     1650     1100     1400     1410     1200     1210   
                                          SR      EKINR    POTR     PVPR    MOLCAS      S      EKIN      POT      H0       H01  
                                         1080     1600   
                                         AOSYM     SMH  

              2       5        6.08       200      700     1000      520     3202   
                                        OPTIONS   GEOM     BASIS   MCVARS     RHF  

 PROGRAMS   *        TOTAL       RHF       INT
 CPU TIMES  *       154.21      3.16    150.41
 REAL TIME  *       160.58 SEC
 DISK USED  *         4.87 GB      
 SF USED    *         0.10 MB      
 GA USED    *         0.00 MB       (max)       0.00 MB       (current)
 **********************************************************************************************************************************


 PROGRAM * POP (Mulliken population analysis)

 
 Density matrix read from record         3202.2  Type=RHF/CHARGE (state 1.1)
 
 Population analysis by basis function type

 Unique atom        s        p        d        f        g    Total    Charge
   1  NB      8.99975 17.99961 14.00001  0.00038  0.00024 41.00000  - 0.00000


 **********************************************************************************************************************************
 DATASETS  * FILE   NREC   LENGTH (MB)   RECORD NAMES
              1      22       21.63       500      610      700      900      950      970     1000      129      960     1700   
                                          VAR    BASINP    GEOM    SYMINP    ZMAT    AOBASIS   BASIS     P2S    ABASIS    OPER   
                                         1101     1401     1411     1412     1650     1100     1400     1410     1200     1210   
                                          SR      EKINR    POTR     PVPR    MOLCAS      S      EKIN      POT      H0       H01  
                                         1080     1600   
                                         AOSYM     SMH  

              2       5        6.08       200      700     1000      520     3202   
                                        OPTIONS   GEOM     BASIS   MCVARS     RHF  

 PROGRAMS   *        TOTAL       POP       RHF       INT
 CPU TIMES  *       154.21      0.00      3.16    150.41
 REAL TIME  *       160.60 SEC
 DISK USED  *         4.87 GB      
 SF USED    *         0.10 MB      
 GA USED    *         0.00 MB       (max)       0.00 MB       (current)
 **********************************************************************************************************************************


 PROGRAM * MULTI (Direct Multiconfiguration SCF)       Authors: P.J. Knowles, H.-J. Werner (1984)     S.T. Elbert (1988)


 Number of frozen core orbitals:   18 (   6   3   3   1   3   1   1   0 )
 Number of active  orbitals:        6 (   3   0   0   1   0   1   1   0 )
 Number of external orbitals:     368 (  92  51  51  37  51  37  37  12 )

 State symmetry 1

 Orbital occupancy restrictions for symmetry 7
  1      1       200000                          

 Number of electrons:     5    Spin symmetry=Sextet    Space symmetry=7
 Number of states:        1
 Number of CSFs:          1

 State symmetry 2

 Orbital occupancy restrictions for symmetry 6
  1      1       200000                          

 Number of electrons:     5    Spin symmetry=Sextet    Space symmetry=6
 Number of states:        1
 Number of CSFs:          1

 State symmetry 3

 Orbital occupancy restrictions for symmetry 4
  1      1       200000                          

 Number of electrons:     5    Spin symmetry=Sextet    Space symmetry=4
 Number of states:        1
 Number of CSFs:          1

 State symmetry 4

 Orbital occupancy restrictions for symmetry 1
  1      1       200000                          

 Number of electrons:     5    Spin symmetry=Sextet    Space symmetry=1
 Number of states:        2
 Number of CSFs:          2
 
 Maximum number of shells:             1
 Maximum number of spin couplings:     1

 Storage for configuration lists      46, coupling coefficients      5, address lists    266

 Valence orbitals read from record       3202.2  Type=RHF/CANONICAL (state 1.1)
 Frozen core orbitals read from record   3202.2  Type=RHF/CANONICAL (state 1.1)
 *** IN SYMMETRY 1 ORBITAL  2 SYMMETRY CONTAMINATION OF 0.219D-04 HAS BEEN REMOVED
 *** IN SYMMETRY 1 ORBITAL  3 SYMMETRY CONTAMINATION OF 0.273D-03 HAS BEEN REMOVED
 *** IN SYMMETRY 1 ORBITAL  4 SYMMETRY CONTAMINATION OF 0.306D-03 HAS BEEN REMOVED
 *** IN SYMMETRY 1 ORBITAL  5 SYMMETRY CONTAMINATION OF 0.528D-02 HAS BEEN REMOVED
 *** IN SYMMETRY 1 ORBITAL  6 SYMMETRY CONTAMINATION OF 0.229D-02 HAS BEEN REMOVED
 *** IN SYMMETRY 1 ORBITAL  7 SYMMETRY CONTAMINATION OF 0.116D-01 HAS BEEN REMOVED
 *** IN SYMMETRY 1 ORBITAL  8 SYMMETRY CONTAMINATION OF 0.823D-02 HAS BEEN REMOVED
 *** IN SYMMETRY 1 ORBITAL  9 SYMMETRY CONTAMINATION OF 0.538D-01 HAS BEEN REMOVED

 EXTRA SYMMETRY OF MOS IN SYMMETRY 1:   0 0 0 0 0 0 1 3 2 1   3 1 2 3 1 2 3 2 1 3   2 4 6 5 3 2 1 4 6 5   3 2 1 3 2 4 6 5 1 2
                                        3 4 6 510 9 8 7 2 3   1 4 6 5 2 3 110 9 8   7 2 3 1 2 3 1 2 3 1   2 3 2 3 1 2 3 1 2 3
                                        1 2 3 2 3 1 2 3 1 2   3 1 1 1 1 1 1 1 1 1   1
 *** IN SYMMETRY 2 ORBITAL  1 SYMMETRY CONTAMINATION OF 0.186D-04 HAS BEEN REMOVED
 *** IN SYMMETRY 2 ORBITAL  2 SYMMETRY CONTAMINATION OF 0.343D-03 HAS BEEN REMOVED
 *** IN SYMMETRY 2 ORBITAL  3 SYMMETRY CONTAMINATION OF 0.633D-02 HAS BEEN REMOVED
 EXTRA SYMMETRY OF MOS IN SYMMETRY 2:   0 0 0 1 1 1 1 2 3 1   2 3 1 3 2 1 3 2 4 5   6 1 2 3 1 4 5 6 1 2   3 4 5 6 1 1 1 1 1 1
                                        1 1 1 1 1 1 1 1 1 1   1 1 1 1
 *** IN SYMMETRY 3 ORBITAL  1 SYMMETRY CONTAMINATION OF 0.186D-04 HAS BEEN REMOVED
 *** IN SYMMETRY 3 ORBITAL  2 SYMMETRY CONTAMINATION OF 0.343D-03 HAS BEEN REMOVED
 *** IN SYMMETRY 3 ORBITAL  3 SYMMETRY CONTAMINATION OF 0.633D-02 HAS BEEN REMOVED
 EXTRA SYMMETRY OF MOS IN SYMMETRY 3:   0 0 0 1 1 1 1 2 3 1   2 3 1 3 2 1 3 2 4 5   6 1 2 3 1 4 5 6 1 2   3 4 5 6 1 1 1 1 1 1
                                        1 1 1 1 1 1 1 1 1 1   1 1 1 1
 *** IN SYMMETRY 4 ORBITAL  1 SYMMETRY CONTAMINATION OF 0.306D-03 HAS BEEN REMOVED
 *** IN SYMMETRY 4 ORBITAL  2 SYMMETRY CONTAMINATION OF 0.823D-02 HAS BEEN REMOVED
 EXTRA SYMMETRY OF MOS IN SYMMETRY 4:   0 1 1 1 1 1 2 3 1 2   3 1 1 2 3 1 2 3 4 6   5 1 2 3 1 4 6 5 1 1   1 1 1 1 1 1 1 1 1
 *** IN SYMMETRY 5 ORBITAL  1 SYMMETRY CONTAMINATION OF 0.141D-04 HAS BEEN REMOVED
 *** IN SYMMETRY 5 ORBITAL  2 SYMMETRY CONTAMINATION OF 0.705D-03 HAS BEEN REMOVED
 *** IN SYMMETRY 5 ORBITAL  3 SYMMETRY CONTAMINATION OF 0.452D-02 HAS BEEN REMOVED
 EXTRA SYMMETRY OF MOS IN SYMMETRY 5:   0 0 0 1 1 1 1 2 3 1   3 2 1 3 2 1 3 2 6 4   5 1 2 3 1 6 4 5 1 2   3 6 4 5 1 1 1 1 1 1
                                        1 1 1 1 1 1 1 1 1 1   1 1 1 1
 *** IN SYMMETRY 6 ORBITAL  1 SYMMETRY CONTAMINATION OF 0.684D-03 HAS BEEN REMOVED
 *** IN SYMMETRY 6 ORBITAL  2 SYMMETRY CONTAMINATION OF 0.218D-02 HAS BEEN REMOVED
 EXTRA SYMMETRY OF MOS IN SYMMETRY 6:   0 1 1 1 1 1 2 3 1 2   3 1 1 2 3 1 2 3 6 5   4 1 2 3 1 6 5 4 1 1   1 1 1 1 1 1 1 1 1
 *** IN SYMMETRY 7 ORBITAL  1 SYMMETRY CONTAMINATION OF 0.684D-03 HAS BEEN REMOVED
 *** IN SYMMETRY 7 ORBITAL  2 SYMMETRY CONTAMINATION OF 0.218D-02 HAS BEEN REMOVED
 EXTRA SYMMETRY OF MOS IN SYMMETRY 7:   0 1 1 1 1 1 2 3 1 2   3 1 1 2 3 1 2 3 6 5   4 1 2 3 1 6 5 4 1 1   1 1 1 1 1 1 1 1 1
 EXTRA SYMMETRY OF MOS IN SYMMETRY 8:   1 1 1 1 3 2 1 3 2 1   3 2

 Wavefunction dump at record             4202.2

 Convergence thresholds  0.10E-01 (gradient)  0.10E-05 (energy)  0.10E-02 (step length)

 Weight factors for state symmetry  1:    0.20000
 Weight factors for state symmetry  2:    0.20000
 Weight factors for state symmetry  3:    0.20000
 Weight factors for state symmetry  4:    0.20000   0.20000

 Eigenvalues of redundancy matrix
   1-  3    0.000000    0.000000    1.000000

 Non-redundant active-active orbital rotations:
     1  2  3  4  5
  2   
  3  +   
  4         
  5            
  6               

 Number of orbital rotations:      388   (     0 Core/Active      0 Core/Virtual   1 Active/Active    387 Active/Virtual)
 Total number of variables:        395


 ITER. MIC  NCI  NEG     ENERGY(VAR)     ENERGY(PROJ)   ENERGY CHANGE     GRAD(0)  GRAD(ORB)   GRAD(CI)     STEP       TIME

   1   59   16    3   -3817.07894129   -3817.30986908   -0.23092778    0.13325094 0.00000000 0.00000000  0.10D+01      0.46
   2   18   20    0   -3817.26087948   -3817.28264147   -0.02176198    0.12477653 0.00000001 0.00000000  0.21D+00      0.79
   3   18   20    0   -3817.28350911   -3817.28360701   -0.00009790    0.00815234 0.00000000 0.00000000  0.15D-01      1.11
   4   16   20    0   -3817.28360731   -3817.28360731   -0.00000000    0.00003784 0.00000000 0.00000000  0.71D-04      1.45

 ** WVFN ****  CONVERGENCE REACHED, FINAL GRADIENT:  0.82D-09



 Results for state 1.7
 =====================

 !MCSCF STATE 1.7 Energy            -3817.283644426844
 Nuclear energy                         0.00000000
 Kinetic energy                      4207.15918420
 One electron energy                -5271.54328639
 Two electron energy                 1454.25964196
 Virial ratio                           1.90733045

 !MCSCF STATE 1.7 Dipole moment         0.00000000     0.00000000     0.00000000
 Dipole moment /Debye                   0.00000000     0.00000000     0.00000000



 Results for state 1.6
 =====================

 !MCSCF STATE 1.6 Energy            -3817.283644426845
 Nuclear energy                         0.00000000
 Kinetic energy                      4207.15918420
 One electron energy                -5271.54328639
 Two electron energy                 1454.25964196
 Virial ratio                           1.90733045

 !MCSCF STATE 1.6 Dipole moment         0.00000000     0.00000000     0.00000000
 Dipole moment /Debye                   0.00000000     0.00000000     0.00000000



 Results for state 1.4
 =====================

 !MCSCF STATE 1.4 Energy            -3817.283483694229
 Nuclear energy                         0.00000000
 Kinetic energy                      4207.16153877
 One electron energy                -5271.54429035
 Two electron energy                 1454.26080665
 Virial ratio                           1.90732991

 !MCSCF STATE 1.4 Dipole moment         0.00000000     0.00000000     0.00000000
 Dipole moment /Debye                   0.00000000     0.00000000     0.00000000



 Results for state 1.1
 =====================

 !MCSCF STATE 1.1 Energy            -3817.283780310105
 Nuclear energy                         0.00000000
 Kinetic energy                      4207.15040843
 One electron energy                -5271.53858362
 Two electron energy                 1454.25480331
 Virial ratio                           1.90733238

 !MCSCF STATE 1.1 Dipole moment         0.00000000     0.00000000     0.00000000
 Dipole moment /Debye                   0.00000000     0.00000000     0.00000000

 Results for state 2.1
 =====================

 !MCSCF STATE 2.1 Energy            -3817.283483694229
 Nuclear energy                         0.00000000
 Kinetic energy                      4207.16153877
 One electron energy                -5271.54429035
 Two electron energy                 1454.26080665
 Virial ratio                           1.90732991

 !MCSCF STATE 2.1 Dipole moment         0.00000000     0.00000000     0.00000000
 Dipole moment /Debye                   0.00000000     0.00000000     0.00000000

 State-averaged charge density matrix saved on record  4202.2 (density set 1)


 NATURAL ORBITALS (state averaged)
 =================================

   Orb     Occ        Energy       Coefficients

                                   1 1s      1 1s      1 1s      1 1s      1 1s      1 1s      1 1s      1 1s      1 1s      1 1s   
                                   1 1s      1 1s      1 1s      1 1s      1 1s      1 1s      1 1s      1 1s      1 1s      1 1s   
                                   1 1s      1 1s      1 1s      1 1s      1 1s      1 1s      1 1s      1 1s      1 1s      1 1s   
                                   1 1s      1 1s      1 3d0     1 3d2+    1 3d0     1 3d2+    1 3d0     1 3d2+    1 3d0     1 3d2+ 
                                   1 3d0     1 3d2+    1 3d0     1 3d2+    1 3d0     1 3d2+    1 3d0     1 3d2+    1 3d0     1 3d2+ 
                                   1 3d0     1 3d2+    1 3d0     1 3d2+    1 3d0     1 3d2+    1 3d0     1 3d2+    1 3d0     1 3d2+ 
                                   1 3d0     1 3d2+    1 3d0     1 3d2+    1 3d0     1 3d2+    1 3d0     1 3d2+    1 3d0     1 3d2+ 
                                   1 3d0     1 3d2+    1 3d0     1 3d2+    1 3d0     1 3d2+    1 3d0     1 3d2+    1 5g0     1 5g4+ 
                                   1 5g2+    1 5g0     1 5g4+    1 5g2+    1 5g0     1 5g4+    1 5g2+    1 5g0     1 5g4+    1 5g2+ 
                                   1 5g0     1 5g4+    1 5g2+    1 7i6+    1 7i4+    1 7i2+    1 7i0     1 7i6+    1 7i4+    1 7i2+ 
                                   1 7i0  

   7.1  1.00000    -0.084178     0.000001  0.000002  0.000004  0.000007  0.000013  0.000026  0.000053  0.000115  0.000257  0.000647
                                -0.000056  0.001647  0.003893  0.008846  0.009311  0.002868 -0.014439 -0.073670 -0.027047  0.019680
                                 0.202520  0.160097 -0.149309 -0.295059 -0.469731  0.115957  0.255076  0.730442  0.239116  0.019863
                                -0.005768  0.001720  0.000000  0.000000  0.000000  0.000000  0.000000  0.000000 -0.000000 -0.000000
                                 0.000000  0.000000  0.000000  0.000000  0.000000  0.000000  0.000000  0.000000  0.000000  0.000000
                                 0.000000  0.000000  0.000000  0.000000  0.000000  0.000000  0.000000  0.000000  0.000000  0.000000
                                 0.000000  0.000000  0.000000  0.000000  0.000000  0.000000 -0.000000 -0.000000  0.000000  0.000000
                                -0.000000 -0.000000  0.000000  0.000000 -0.000000 -0.000000  0.000000  0.000000  0.000000  0.000000
                                 0.000000  0.000000  0.000000  0.000000  0.000000  0.000000  0.000000  0.000000  0.000000  0.000000
                                 0.000000  0.000000  0.000000  0.000000  0.000000  0.000000  0.000000  0.000000  0.000000  0.000000
                                 0.000000

   8.1  0.80000     0.014762    -0.000000 -0.000000 -0.000000 -0.000000 -0.000000 -0.000000 -0.000000 -0.000000 -0.000000 -0.000000
                                 0.000000 -0.000000 -0.000000 -0.000000 -0.000000 -0.000000  0.000000  0.000000  0.000000 -0.000000
                                -0.000000 -0.000000  0.000000  0.000000  0.000000 -0.000000  0.000000  0.000000  0.000000  0.000000
                                -0.000000  0.000000 -0.000024  0.000000 -0.000004  0.000000 -0.000275  0.000000  0.000180 -0.000000
                                -0.000524  0.000000 -0.001505  0.000000 -0.004922  0.000000 -0.013584  0.000000 -0.032564  0.000000
                                -0.058631  0.000000 -0.074936  0.000000 -0.060273  0.000000  0.025645  0.000000  0.160547 -0.000000
                                 0.261351 -0.000000  0.292976 -0.000000  0.257736 -0.000000  0.175868 -0.000000  0.077295 -0.000000
                                 0.014629 -0.000000  0.000506 -0.000000  0.000011 -0.000000 -0.000003  0.000000  0.000000  0.000000
                                 0.000000  0.000000  0.000000  0.000000  0.000000  0.000000  0.000000  0.000000  0.000000  0.000000
                                 0.000000  0.000000  0.000000  0.000000  0.000000  0.000000  0.000000  0.000000  0.000000  0.000000
                                 0.000000

   9.1  0.80000     0.014486    -0.000000 -0.000000 -0.000000 -0.000000 -0.000000 -0.000000 -0.000000 -0.000000 -0.000000 -0.000000
                                 0.000000 -0.000000 -0.000000 -0.000000 -0.000000 -0.000000  0.000000  0.000000  0.000000 -0.000000
                                -0.000000 -0.000000  0.000000  0.000000  0.000000 -0.000000 -0.000000 -0.000000 -0.000000 -0.000000
                                 0.000000 -0.000000  0.000000 -0.000024  0.000000 -0.000004  0.000000 -0.000274 -0.000000  0.000180
                                 0.000000 -0.000522  0.000000 -0.001500  0.000000 -0.004906  0.000000 -0.013541  0.000000 -0.032461
                                 0.000000 -0.058444  0.000000 -0.074684  0.000000 -0.060035  0.000000  0.025797  0.000000  0.160639
                                 0.000000  0.261408  0.000000  0.293033  0.000000  0.257754 -0.000000  0.175768  0.000000  0.077152
                                -0.000000  0.014569  0.000000  0.000501 -0.000000  0.000011  0.000000 -0.000003  0.000000  0.000000
                                 0.000000  0.000000  0.000000  0.000000  0.000000  0.000000  0.000000  0.000000  0.000000  0.000000
                                 0.000000  0.000000  0.000000  0.000000  0.000000  0.000000  0.000000  0.000000  0.000000  0.000000
                                 0.000000

                                   1 3d2-    1 3d2-    1 3d2-    1 3d2-    1 3d2-    1 3d2-    1 3d2-    1 3d2-    1 3d2-    1 3d2- 
                                   1 3d2-    1 3d2-    1 3d2-    1 3d2-    1 3d2-    1 3d2-    1 3d2-    1 3d2-    1 3d2-    1 3d2- 
                                   1 3d2-    1 3d2-    1 3d2-    1 5g2-    1 5g4-    1 5g2-    1 5g4-    1 5g2-    1 5g4-    1 5g2- 
                                   1 5g4-    1 5g2-    1 5g4-    1 7i2-    1 7i6-    1 7i4-    1 7i2-    1 7i6-    1 7i4- 

   2.4  0.80000     0.014486    -0.000024 -0.000004 -0.000274  0.000180 -0.000522 -0.001500 -0.004906 -0.013541 -0.032461 -0.058444
                                -0.074684 -0.060035  0.025797  0.160639  0.261408  0.293033  0.257754  0.175768  0.077152  0.014569
                                 0.000501  0.000011 -0.000003  0.000000  0.000000  0.000000  0.000000  0.000000  0.000000  0.000000
                                 0.000000  0.000000  0.000000  0.000000  0.000000  0.000000  0.000000  0.000000  0.000000

                                   1 3d1+    1 3d1+    1 3d1+    1 3d1+    1 3d1+    1 3d1+    1 3d1+    1 3d1+    1 3d1+    1 3d1+ 
                                   1 3d1+    1 3d1+    1 3d1+    1 3d1+    1 3d1+    1 3d1+    1 3d1+    1 3d1+    1 3d1+    1 3d1+ 
                                   1 3d1+    1 3d1+    1 3d1+    1 5g1+    1 5g3+    1 5g1+    1 5g3+    1 5g1+    1 5g3+    1 5g1+ 
                                   1 5g3+    1 5g1+    1 5g3+    1 7i5+    1 7i3+    1 7i1+    1 7i5+    1 7i3+    1 7i1+ 

   2.6  0.80000     0.014643    -0.000024 -0.000004 -0.000274  0.000180 -0.000522 -0.001501 -0.004910 -0.013550 -0.032484 -0.058485
                                -0.074738 -0.060081  0.025772  0.160623  0.261401  0.293005  0.257723  0.175800  0.077218  0.014599
                                 0.000503  0.000011 -0.000003  0.000000  0.000000  0.000000  0.000000  0.000000  0.000000  0.000000
                                 0.000000  0.000000  0.000000  0.000000  0.000000  0.000000  0.000000  0.000000  0.000000

                                   1 3d1-    1 3d1-    1 3d1-    1 3d1-    1 3d1-    1 3d1-    1 3d1-    1 3d1-    1 3d1-    1 3d1- 
                                   1 3d1-    1 3d1-    1 3d1-    1 3d1-    1 3d1-    1 3d1-    1 3d1-    1 3d1-    1 3d1-    1 3d1- 
                                   1 3d1-    1 3d1-    1 3d1-    1 5g1-    1 5g3-    1 5g1-    1 5g3-    1 5g1-    1 5g3-    1 5g1- 
                                   1 5g3-    1 5g1-    1 5g3-    1 7i5-    1 7i3-    1 7i1-    1 7i5-    1 7i3-    1 7i1- 

   2.7  0.80000     0.014643    -0.000024 -0.000004 -0.000274  0.000180 -0.000522 -0.001501 -0.004910 -0.013550 -0.032484 -0.058485
                                -0.074738 -0.060081  0.025772  0.160623  0.261401  0.293005  0.257723  0.175800  0.077218  0.014599
                                 0.000503  0.000011 -0.000003  0.000000  0.000000  0.000000  0.000000  0.000000  0.000000  0.000000
                                 0.000000  0.000000  0.000000  0.000000  0.000000  0.000000  0.000000  0.000000  0.000000
 

 EXTRA SYMMETRY OF MOS IN SYMMETRY 1:   0 0 0 0 0 0 1 2 3 1   2 3 1 2 3 1 2 3 1 3   2 4 6 5 2 3 1 4 6 5   2 3 1 2 3 4 6 5 1 3
                                        2 6 4 510 9 8 7 3 2   1 5 6 4 3 2 1 7 8 9  10 3 2 1 3 2 1 3 2 1   2 3 2 3 1 2 3 1 2 3
                                        1 2 3 2 3 1 2 3 1 2   3 1 1 1 1 1 1 1 1 1   1
 EXTRA SYMMETRY OF MOS IN SYMMETRY 2:   0 0 0 1 1 1 1 2 3 1   2 3 1 2 3 1 3 2 4 5   6 1 3 2 1 6 5 4 1 3   2 6 5 4 1 1 1 1 1 1
                                        1 1 1 1 1 1 1 1 1 1   1 1 1 1
 EXTRA SYMMETRY OF MOS IN SYMMETRY 3:   0 0 0 1 1 1 1 2 3 1   2 3 1 2 3 1 3 2 4 5   6 1 3 2 1 6 5 4 1 3   2 6 5 4 1 1 1 1 1 1
                                        1 1 1 1 1 1 1 1 1 1   1 1 1 1
 EXTRA SYMMETRY OF MOS IN SYMMETRY 4:   0 1 1 1 1 1 2 3 1 2   3 1 1 2 3 1 2 3 4 6   5 1 3 2 1 5 6 4 1 1   1 1 1 1 1 1 1 1 1
 EXTRA SYMMETRY OF MOS IN SYMMETRY 5:   0 0 0 1 1 1 1 2 3 1   2 3 1 2 3 1 3 2 6 4   5 1 3 2 1 5 4 6 1 3   2 5 4 6 1 1 1 1 1 1
                                        1 1 1 1 1 1 1 1 1 1   1 1 1 1
 EXTRA SYMMETRY OF MOS IN SYMMETRY 6:   0 1 1 1 1 1 2 3 1 2   3 1 1 2 3 1 3 2 6 5   4 1 3 2 1 4 5 6 1 1   1 1 1 1 1 1 1 1 1
 EXTRA SYMMETRY OF MOS IN SYMMETRY 7:   0 1 1 1 1 1 2 3 1 2   3 1 1 2 3 1 3 2 6 5   4 1 3 2 1 4 5 6 1 1   1 1 1 1 1 1 1 1 1
 EXTRA SYMMETRY OF MOS IN SYMMETRY 8:   1 1 1 1 3 2 1 2 3 1   2 3

 Natural orbital dump (state averaged) at molpro section  4202.2    (Orbital set 2)


 CI vector for state symmetry 1
 ==============================

 /// / / 0          1.0000000

 TOTAL ENERGIES                     -3817.28364443

 CI vector for state symmetry 2
 ==============================

 /// / 0 /          1.0000000

 TOTAL ENERGIES                     -3817.28364443

 CI vector for state symmetry 3
 ==============================

 /// 0 / /          1.0000000

 TOTAL ENERGIES                     -3817.28348369

 CI vector for state symmetry 4
 ==============================

 /0/ / / /          1.0000000   0.0000000
 //0 / / /         -0.0000000   1.0000000

 TOTAL ENERGIES                     -3817.28378031 -3817.28348369



 **********************************************************************************************************************************
 DATASETS  * FILE   NREC   LENGTH (MB)   RECORD NAMES
              1      23       27.18       500      610      700      900      950      970     1000      129      960     1700   
                                          VAR    BASINP    GEOM    SYMINP    ZMAT    AOBASIS   BASIS     P2S    ABASIS    OPER   
                                         1101     1401     1411     1412     1650     1100     1400     1410     1200     1210   
                                          SR      EKINR    POTR     PVPR    MOLCAS      S      EKIN      POT      H0       H01  
                                         1080     1600     1380   
                                         AOSYM     SMH     JKOP   

              2       6        9.43       200      700     1000      520     3202     4202   
                                        OPTIONS   GEOM     BASIS   MCVARS     RHF     MCSCF   

 PROGRAMS   *        TOTAL     MULTI       POP       RHF       INT
 CPU TIMES  *       156.09      1.88      0.00      3.16    150.41
 REAL TIME  *       164.60 SEC
 DISK USED  *         4.87 GB      
 SF USED    *        31.16 MB      
 GA USED    *         0.00 MB       (max)       0.00 MB       (current)
 **********************************************************************************************************************************


 PROGRAM * MULTI (Direct Multiconfiguration SCF)       Authors: P.J. Knowles, H.-J. Werner (1984)     S.T. Elbert (1988)


 Number of closed-shell orbitals:  18 (   6   3   3   1   3   1   1   0 )
 Number of active  orbitals:        6 (   3   0   0   1   0   1   1   0 )
 Number of external orbitals:     368 (  92  51  51  37  51  37  37  12 )

 State symmetry 1

 Orbital occupancy restrictions for symmetry 7
  1      1       200000                          

 Number of electrons:     5    Spin symmetry=Sextet    Space symmetry=7
 Number of states:        1
 Number of CSFs:          1

 State symmetry 2

 Orbital occupancy restrictions for symmetry 6
  1      1       200000                          

 Number of electrons:     5    Spin symmetry=Sextet    Space symmetry=6
 Number of states:        1
 Number of CSFs:          1

 State symmetry 3

 Orbital occupancy restrictions for symmetry 4
  1      1       200000                          

 Number of electrons:     5    Spin symmetry=Sextet    Space symmetry=4
 Number of states:        1
 Number of CSFs:          1

 State symmetry 4

 Orbital occupancy restrictions for symmetry 1
  1      1       200000                          

 Number of electrons:     5    Spin symmetry=Sextet    Space symmetry=1
 Number of states:        2
 Number of CSFs:          2
 
 Maximum number of shells:             1
 Maximum number of spin couplings:     1

 Storage for configuration lists      46, coupling coefficients      5, address lists    266

 Molecular orbitals read from record     4202.2  Type=MCSCF/NATURAL (state averaged)

 EXTRA SYMMETRY OF MOS IN SYMMETRY 1:   1 1 1 3 2 1 1 2 3 1   2 3 1 2 3 1 2 3 1 3   2 4 6 5 2 3 1 4 6 5   2 3 1 2 3 4 6 5 1 3
                                        2 6 4 510 9 8 7 3 2   1 5 6 4 3 2 1 7 8 9  10 3 2 1 3 2 1 3 2 1   2 3 2 3 1 2 3 1 2 3
                                        1 2 3 2 3 1 2 3 1 2   3 1 1 1 1 1 1 1 1 1   1
 EXTRA SYMMETRY OF MOS IN SYMMETRY 2:   1 1 1 1 1 1 1 2 3 1   2 3 1 2 3 1 3 2 4 5   6 1 3 2 1 6 5 4 1 3   2 6 5 4 1 1 1 1 1 1
                                        1 1 1 1 1 1 1 1 1 1   1 1 1 1
 EXTRA SYMMETRY OF MOS IN SYMMETRY 3:   1 1 1 1 1 1 1 2 3 1   2 3 1 2 3 1 3 2 4 5   6 1 3 2 1 6 5 4 1 3   2 6 5 4 1 1 1 1 1 1
                                        1 1 1 1 1 1 1 1 1 1   1 1 1 1
 EXTRA SYMMETRY OF MOS IN SYMMETRY 4:   1 1 1 1 1 1 2 3 1 2   3 1 1 2 3 1 2 3 4 6   5 1 3 2 1 5 6 4 1 1   1 1 1 1 1 1 1 1 1
 EXTRA SYMMETRY OF MOS IN SYMMETRY 5:   1 1 1 1 1 1 1 2 3 1   2 3 1 2 3 1 3 2 6 4   5 1 3 2 1 5 4 6 1 3   2 5 4 6 1 1 1 1 1 1
                                        1 1 1 1 1 1 1 1 1 1   1 1 1 1
 EXTRA SYMMETRY OF MOS IN SYMMETRY 6:   1 1 1 1 1 1 2 3 1 2   3 1 1 2 3 1 3 2 6 5   4 1 3 2 1 4 5 6 1 1   1 1 1 1 1 1 1 1 1
 EXTRA SYMMETRY OF MOS IN SYMMETRY 7:   1 1 1 1 1 1 2 3 1 2   3 1 1 2 3 1 3 2 6 5   4 1 3 2 1 4 5 6 1 1   1 1 1 1 1 1 1 1 1
 EXTRA SYMMETRY OF MOS IN SYMMETRY 8:   1 1 1 1 3 2 1 2 3 1   2 3

 Wavefunction dump at record             5202.2

 Convergence thresholds  0.10E-01 (gradient)  0.10E-05 (energy)  0.10E-02 (step length)

 Weight factors for state symmetry  1:    0.20000
 Weight factors for state symmetry  2:    0.20000
 Weight factors for state symmetry  3:    0.20000
 Weight factors for state symmetry  4:    0.20000   0.20000

 Eigenvalues of redundancy matrix
   1-  3    0.000000    0.000000    1.000000

 Non-redundant active-active orbital rotations:
     1  2  3  4  5
  2   
  3  +   
  4         
  5            
  6               

[...]
                                 0.000038 -0.000019  0.000006  0.000000  0.000000  0.000000  0.000000  0.000000  0.000000  0.000000
                                 0.000000  0.000000  0.000000  0.000000  0.000000  0.000000  0.000000  0.000000  0.000000  0.000000
                                 0.000000  0.000000  0.000000  0.000000

                                   1 3d1+    1 3d1+    1 3d1+    1 3d1+    1 3d1+    1 3d1+    1 3d1+    1 3d1+    1 3d1+    1 3d1+ 
                                   1 3d1+    1 3d1+    1 3d1+    1 3d1+    1 3d1+    1 3d1+    1 3d1+    1 3d1+    1 3d1+    1 3d1+ 
                                   1 3d1+    1 3d1+    1 3d1+    1 5g1+    1 5g3+    1 5g1+    1 5g3+    1 5g1+    1 5g3+    1 5g1+ 
                                   1 5g3+    1 5g1+    1 5g3+    1 7i5+    1 7i3+    1 7i1+    1 7i5+    1 7i3+    1 7i1+ 

   1.6  2.00000   -15.831522     0.000103  0.000018  0.001152 -0.000749  0.002195  0.006316  0.020570  0.056454  0.133765  0.242241
                                 0.320065  0.294440  0.149399  0.025597  0.000552 -0.000086  0.000092 -0.000071  0.000047 -0.000026
                                 0.000011 -0.000003  0.000001  0.000000  0.000000  0.000000  0.000000  0.000000  0.000000  0.000000
                                 0.000000  0.000000  0.000000  0.000000  0.000000  0.000000  0.000000  0.000000  0.000000

                                   1 3d1-    1 3d1-    1 3d1-    1 3d1-    1 3d1-    1 3d1-    1 3d1-    1 3d1-    1 3d1-    1 3d1- 
                                   1 3d1-    1 3d1-    1 3d1-    1 3d1-    1 3d1-    1 3d1-    1 3d1-    1 3d1-    1 3d1-    1 3d1- 
                                   1 3d1-    1 3d1-    1 3d1-    1 5g1-    1 5g3-    1 5g1-    1 5g3-    1 5g1-    1 5g3-    1 5g1- 
                                   1 5g3-    1 5g1-    1 5g3-    1 7i5-    1 7i3-    1 7i1-    1 7i5-    1 7i3-    1 7i1- 

   1.7  2.00000   -15.831522     0.000103  0.000018  0.001152 -0.000749  0.002195  0.006316  0.020570  0.056454  0.133765  0.242241
                                 0.320065  0.294440  0.149399  0.025597  0.000552 -0.000086  0.000092 -0.000071  0.000047 -0.000026
                                 0.000011 -0.000003  0.000001  0.000000  0.000000  0.000000  0.000000  0.000000  0.000000  0.000000
                                 0.000000  0.000000  0.000000  0.000000  0.000000  0.000000  0.000000  0.000000  0.000000

 Total charge:  11.000000000000
 
 *** IN SYMMETRY 1 ORBITAL  4 SYMMETRY CONTAMINATION OF 0.813D-02 HAS BEEN REMOVED
 *** IN SYMMETRY 1 ORBITAL  5 SYMMETRY CONTAMINATION OF 0.813D-02 HAS BEEN REMOVED

 EXTRA SYMMETRY OF MOS IN SYMMETRY 1:   1 1 1 3 2 1 2 3 1 3   2 1 4 5 6 3 2 1 4 5   6 3 2 1 5 4 6 2 3 1   5 4 6 3 2 1 3 2 1 3
                                        2 1 3 210 9 8 7 3 2   6 5 4 1 3 2 1 910 8   7 3 2 1 3 2 1 2 3 1   3 2 3 2 1 3 2 1 3 2
                                        1 3 2 3 2 1 3 2 1 3   2 1 1 1 1 1 1 1 1 1   1
 EXTRA SYMMETRY OF MOS IN SYMMETRY 2:   1 1 1 3 2 1 2 3 1 1   2 3 5 6 4 1 2 3 1 1   1 3 2 1 4 6 5 1 3 2   1 4 5 6 1 1 1 1 1 1
                                        1 1 1 1 1 1 1 1 1 1   1 1 1 1
 EXTRA SYMMETRY OF MOS IN SYMMETRY 3:   1 1 1 3 2 1 3 2 1 1   2 3 4 5 6 1 3 2 1 1   1 3 2 1 4 6 5 1 3 2   1 4 6 5 1 1 1 1 1 1
                                        1 1 1 1 1 1 1 1 1 1   1 1 1 1
 EXTRA SYMMETRY OF MOS IN SYMMETRY 4:   1 1 1 3 2 1 2 3 1 3   2 1 3 2 1 1 1 1 5 4   6 1 2 3 1 5 6 4 1 1   1 1 1 1 1 1 1 1 1
 EXTRA SYMMETRY OF MOS IN SYMMETRY 5:   1 1 1 2 3 1 3 2 1 1   2 3 4 6 5 1 3 2 1 1   1 2 3 1 4 5 6 1 3 2   1 5 4 6 1 1 1 1 1 1
                                        1 1 1 1 1 1 1 1 1 1   1 1 1 1
 EXTRA SYMMETRY OF MOS IN SYMMETRY 6:   1 1 1 2 3 1 3 2 1 3   2 1 2 3 1 1 1 1 5 4   6 1 2 3 1 5 4 6 1 1   1 1 1 1 1 1 1 1 1
 EXTRA SYMMETRY OF MOS IN SYMMETRY 7:   1 1 1 2 3 1 2 3 1 3   2 1 2 3 1 1 1 1 5 4   6 1 2 3 1 4 5 6 1 1   1 1 1 1 1 1 1 1 1
 EXTRA SYMMETRY OF MOS IN SYMMETRY 8:   1 1 1 3 2 1 1 2 3 1   3 2

 Natural orbital dump at molpro section  5202.2    (Orbital set 2)


 CI vector
 =========

              1.0000000

 TOTAL ENERGIES                     -3779.74134330



 **********************************************************************************************************************************
 DATASETS  * FILE   NREC   LENGTH (MB)   RECORD NAMES
              1      23       99.75       500      610      700      900      950      970     1000      129      960     1700   
                                          VAR    BASINP    GEOM    SYMINP    ZMAT    AOBASIS   BASIS     P2S    ABASIS    OPER   
                                         1101     1401     1411     1412     1650     1100     1400     1410     1200     1210   
                                          SR      EKINR    POTR     PVPR    MOLCAS      S      EKIN      POT      H0       H01  
                                         1080     1600     1380   
                                         AOSYM     SMH     JKOP   

              2      26       73.10       200      700     1000      520     3202     4202     5202     2101     2103     2107   
                                        OPTIONS   GEOM     BASIS   MCVARS     RHF      RHF     MCSCF     RHF      RHF      RHF  
                                         2109     5202(1)  2111     4202(1)  2113     2115     2117     2119     2121     2123   
                                          RHF     MCSCF     RHF      RHF      RHF      RHF      RHF      RHF      RHF      RHF  
                                         2124     2125     2127     2129     2131     2133   
                                          RHF      RHF      RHF      RHF      RHF      RHF  

 PROGRAMS   *        TOTAL     MULTI       POP       RHF  RCCSD(T)       RHF     MULTI       POP       RHF  RCCSD(T)       RHF
 CPU TIMES  *      5478.16      1.45      0.00      2.20    197.47      0.11      4.89      0.01      1.91    203.35      0.13
 REAL TIME  *      6283.08 SEC
 DISK USED  *        22.15 GB      
 SF USED    *         4.93 GB      
 GA USED    *         0.00 MB       (max)       0.00 MB       (current)
 **********************************************************************************************************************************


 PROGRAM * RHF-SCF (CLOSED SHELL)       Authors: W. Meyer, H.-J. Werner


 NUMBER OF ELECTRONS:      15+   15-    SPACE SYMMETRY=1    SPIN SYMMETRY: Singlet 
 CONVERGENCE THRESHOLDS:    1.00E-05 (Density)    1.00E-07 (Energy)
 MAX. NUMBER OF ITERATIONS:        0
 INTERPOLATION TYPE:            DIIS
 INTERPOLATION STEPS:              2 (START)      1 (STEP)
 LEVEL SHIFTS:                  0.00 (CLOSED)  0.00 (OPEN) 

 Number of closed-shell orbitals:   15 (   6   2   2   1   2   1   1   0 )


 Molecular orbitals read from record     5202.2  Type=MCSCF/NATURAL (state 1.1)

 Molecular orbital dump at record        2135.2

 ITERATION    DDIFF          GRAD             ENERGY        2-EL.EN.            DIPOLE MOMENTS         DIIS   ORB.
    1      0.000D+00      0.000D+00     -3779.74134330   2397.083300    0.00000    0.00000    0.00000    0    start

 Final occupancy:   6   2   2   1   2   1   1   0

 !RHF STATE 1.1 Energy              -3779.741343296031
 Nuclear energy                         0.00000000
 One-electron energy                -4978.28299308
 Two-electron energy                 1198.54164978
 Virial quotient                       -0.90652763
 !RHF STATE 1.1 Dipole moment           0.00000000     0.00000000     0.00000000
 Dipole moment /Debye                   0.00000000     0.00000000     0.00000000

 Orbital energies:

         1.1          2.1          3.1          4.1          5.1          6.1          7.1          8.1
   -709.491874  -108.700471   -25.592002   -15.831522   -15.831522    -8.966778    -5.570329    -5.570329

         1.2          2.2          3.2          4.2
    -97.705584   -21.858119    -7.259053    -3.985692

         1.3          2.3          3.3          4.3
    -97.705584   -21.858119    -7.259053    -3.985692

         1.4          2.4          3.4
    -15.831522    -5.570329    -3.212748

         1.5          2.5          3.5          4.5
    -97.705584   -21.858119    -7.259053    -3.985692

         1.6          2.6          3.6
    -15.831522    -5.570329    -3.212748

         1.7          2.7          3.7
    -15.831522    -5.570329    -3.212748

         1.8          2.8
     -3.985692    -2.509971

 HOMO      6.1    -8.966778 =    -243.9985eV
 LUMO      3.2    -7.259053 =    -197.5289eV
 LUMO-HOMO         1.707725 =      46.4696eV


 **********************************************************************************************************************************
 DATASETS  * FILE   NREC   LENGTH (MB)   RECORD NAMES
              1      23       99.75       500      610      700      900      950      970     1000      129      960     1700   
                                          VAR    BASINP    GEOM    SYMINP    ZMAT    AOBASIS   BASIS     P2S    ABASIS    OPER   
                                         1101     1401     1411     1412     1650     1100     1400     1410     1200     1210   
                                          SR      EKINR    POTR     PVPR    MOLCAS      S      EKIN      POT      H0       H01  
                                         1080     1600     1380   
                                         AOSYM     SMH     JKOP   

              2      27       76.36       200      700     1000      520     3202     4202     5202     2101     2103     2107   
                                        OPTIONS   GEOM     BASIS   MCVARS     RHF      RHF     MCSCF     RHF      RHF      RHF  
                                         2109     5202(1)  2111     4202(1)  2113     2115     2117     2119     2121     2123   
                                          RHF     MCSCF     RHF      RHF      RHF      RHF      RHF      RHF      RHF      RHF  
                                         2124     2125     2127     2129     2131     2133     2135   
                                          RHF      RHF      RHF      RHF      RHF      RHF      RHF  

 PROGRAMS   *        TOTAL       RHF     MULTI       POP       RHF  RCCSD(T)       RHF     MULTI       POP       RHF  RCCSD(T)
 CPU TIMES  *      5478.27      0.11      1.45      0.00      2.20    197.47      0.11      4.89      0.01      1.91    203.35
 REAL TIME  *      6283.25 SEC
 DISK USED  *        22.15 GB      
 SF USED    *         4.93 GB      
 GA USED    *         0.00 MB       (max)       0.00 MB       (current)
 **********************************************************************************************************************************
 SETTING SCF(17)        =     -3779.74134330  AU                              
 SETTING _CC_NORM_MAX   =         2.00000000                                  


 PROGRAM * CCSD (Restricted open-shell coupled cluster)     Authors: C. Hampel, H.-J. Werner, 1991, M. Deegan, P.J. Knowles, 1992


 Convergence thresholds:  THRVAR = 1.00D-08  THRDEN = 1.00D-06

 CCSD(T)     terms to be evaluated (factor= 1.000)


 Number of closed-shell orbitals:  15 (   6   2   2   1   2   1   1   0 )
 Number of external orbitals:     377 (  95  52  52  38  52  38  38  12 )

 Memory could be reduced to 180.46 Mwords without degradation in triples

 Number of N-1 electron functions:              30
 Number of N-2 electron functions:             435
 Number of singly external CSFs:              1992
 Number of doubly external CSFs:           6090819
 Total number of CSFs:                     6092811

 Molecular orbitals read from record     2135.2  Type=RHF/CANONICAL (state 1.1)

 Integral transformation finished. Total CPU:   3.33 sec, npass=  1  Memory used:  32.71 MW

 Starting RMP2 calculation

 Wavefunction is spin-projected

 ITER.      SQ.NORM     CORR.ENERGY   TOTAL ENERGY   ENERGY CHANGE        DEN1      VAR(S)    VAR(P)  DIIS     TIME
   1      1.02384321    -0.89702737 -3780.63837067    -0.89702737    -0.00011565  0.10D-27  0.27D-04  1  1     3.96
   2      1.02390189    -0.89714559 -3780.63848889    -0.00011822    -0.00000011  0.15D-31  0.30D-07  2  2     4.58
   3      1.02390386    -0.89714877 -3780.63849206    -0.00000318    -0.00000000  0.11D-34  0.40D-12  3  3     5.22
   4      1.02390387    -0.89714877 -3780.63849207    -0.00000000    -0.00000000  0.14D-39  0.43D-16  4  4     5.89

 Norm of t1 vector:      0.00000000      S-energy:    -0.00000000      T1 diagnostic:  0.00000000
 Norm of t2 vector:      0.15460875      P-energy:    -0.89714877
                                         Alpha-Beta:  -0.61770694
                                         Alpha-Alpha: -0.13972092
                                         Beta-Beta:   -0.13972092

 Spin contamination <S**2-Sz**2-Sz>     0.00000000
  Reference energy                  -3779.741343296024
  RHF-RMP2 correlation energy          -0.897148769195
 !RHF-RMP2 energy                   -3780.638492065219
 (NB above energy spin projected)

 Starting RCCSD calculation

 ITER.      SQ.NORM     CORR.ENERGY   TOTAL ENERGY   ENERGY CHANGE        DEN1      VAR(S)    VAR(P)  DIIS     TIME
   1      1.02545159    -0.86760633 -3780.60894963    -0.86760633    -0.00766315  0.96D-04  0.55D-03  0  0    10.48
   2      1.02735704    -0.87480698 -3780.61615028    -0.00720065    -0.00031371  0.11D-05  0.59D-04  1  1    15.24
   3      1.02789768    -0.87490823 -3780.61625153    -0.00010125    -0.00003623  0.84D-07  0.88D-05  2  2    19.77
   4      1.02826034    -0.87531452 -3780.61665781    -0.00040628    -0.00000023  0.45D-08  0.30D-07  3  3    24.83
   5      1.02827893    -0.87532244 -3780.61666574    -0.00000792    -0.00000000  0.96D-10  0.22D-09  4  4    29.80
   6      1.02828011    -0.87532282 -3780.61666612    -0.00000038    -0.00000000  0.60D-12  0.15D-11  5  5    34.77

 Norm of t1 vector:      0.01014429      S-energy:    -0.00000000      T1 diagnostic:  0.00130962
                                                                       D1 diagnostic:  0.00377036
 Norm of t2 vector:      0.16786067      P-energy:    -0.87532282
                                         Alpha-Beta:  -0.61306371
                                         Alpha-Alpha: -0.13112955
                                         Beta-Beta:   -0.13112955

 Doubles amplitudes (print threshold =  0.500E-01):

         I         J         SYM. A    SYM. B    A         B      T(IJ, AB) [Alpha-Beta]

         6         6         2         2         1         1     -0.07138171
         6         6         3         3         1         1     -0.07138171
         6         6         5         5         1         1     -0.07138171

 Spin contamination <S**2-Sz**2-Sz>     0.00000000

 Memory could be reduced to 176.85 Mwords without degradation in triples
 

  Correlated core orbitals:             1.3       2.1       3.1       4.1       5.1       6.1       1.2       2.2       3.2       1.3
                                        2.3       3.3       1.4       1.5       2.5       3.5       1.6       1.7
  Orbital energies:                     0.0000    0.0000    0.0000  -15.8315  -15.8315   -8.9668  -97.7056  -21.8581   -7.2591  -97.7056
                                      -21.8581   -7.2591  -15.8315  -97.7056  -21.8581   -7.2591  -15.8315  -15.8315
 
  RCCSD core-core energy               -0.875322822577
 

 RESULTS
 =======

  Reference energy                  -3779.741343296024
  RCCSD singles energy                 -0.000000000000
  RCCSD pair energy                    -0.875322822577
  RCCSD correlation energy             -0.875322822577
  Triples (T) contribution             -0.004115028306
  Total correlation energy             -0.879437850884
 
  RHF-RCCSD energy                  -3780.616666118601
  RHF-RCCSD[T] energy               -3780.620884680016
  RHF-RCCSD-T energy                -3780.620725654945
 !RHF-RCCSD(T) energy               -3780.620781146908

 Program statistics:

 Available memory in ccsd:               999997950
 Min. memory needed in ccsd:              17040855
 Max. memory used in ccsd:                24744360
 Max. memory used in cckext:              18614198 ( 6 integral passes)
 Max. memory used in cckint:              32707339 ( 1 integral passes)



 **********************************************************************************************************************************
 DATASETS  * FILE   NREC   LENGTH (MB)   RECORD NAMES
              1      23       99.75       500      610      700      900      950      970     1000      129      960     1700   
                                          VAR    BASINP    GEOM    SYMINP    ZMAT    AOBASIS   BASIS     P2S    ABASIS    OPER   
                                         1101     1401     1411     1412     1650     1100     1400     1410     1200     1210   
                                          SR      EKINR    POTR     PVPR    MOLCAS      S      EKIN      POT      H0       H01  
                                         1080     1600     1380   
                                         AOSYM     SMH     JKOP   

              2      27       76.36       200      700     1000      520     3202     4202     5202     2101     2103     2107   
                                        OPTIONS   GEOM     BASIS   MCVARS     RHF      RHF     MCSCF     RHF      RHF      RHF  
                                         2109     5202(1)  2111     4202(1)  2113     2115     2117     2119     2121     2123   
                                          RHF     MCSCF     RHF      RHF      RHF      RHF      RHF      RHF      RHF      RHF  
                                         2124     2125     2127     2129     2131     2133     2135   
                                          RHF      RHF      RHF      RHF      RHF      RHF      RHF  

 PROGRAMS   *        TOTAL  RCCSD(T)       RHF     MULTI       POP       RHF  RCCSD(T)       RHF     MULTI       POP       RHF
 CPU TIMES  *      5645.02    166.75      0.11      1.45      0.00      2.20    197.47      0.11      4.89      0.01      1.91
 REAL TIME  *      6474.50 SEC
 DISK USED  *        22.15 GB      
 SF USED    *         4.93 GB      
 GA USED    *         0.00 MB       (max)       0.00 MB       (current)
 **********************************************************************************************************************************
 SETTING CCSD(17)       =     -3780.62078115  AU                              
 Output type csv         
                                                                                                                                                                                                                                                                

         SCF,CCSD
   -3817.283691,   -3818.570302
   -3817.224533,   -3818.520328
   -3817.263162,   -3818.600813
   -3817.063758,   -3818.321161
   -3817.060225,   -3818.310824
   -3816.582515,   -3817.803067
   -3815.692440,   -3816.880706
   -3814.343553,   -3815.502115
   -3813.760286,   -3814.910884
   -3813.356441,   -3814.522298
   -3812.529461,   -3813.653205
   -3808.792450,   -3809.876726
   -3804.444166,   -3805.479003
   -3799.464375,   -3800.439805
   -3793.576770,   -3794.524681
   -3787.008579,   -3787.924291
   -3779.741343,   -3780.620781
                                                  

 RCCSD(T)/USERDEF energy=  -3780.620781146908

        RCCSD(T)        RHF-SCF         MULTI           RHF-SCF         RCCSD(T)        RHF-SCF         MULTI           RHF-SCF 
  -3780.62078115  -3779.74134330  -3779.74134330  -3779.74134330  -3787.92429066  -3787.00857911  -3787.00857911  -3787.00915118
 **********************************************************************************************************************************
 Molpro calculation terminated
 Variable memory released
