<?xml version="1.0"?>
<molpro xmlns="http://www.molpro.net/schema/molpro-output"
  xmlns:xsd="http://www.w3.org/1999/XMLSchema"
  xmlns:cml="http://www.xml-cml.org/schema"
  xmlns:stm="http://www.xml-cml.org/schema"
  xmlns:xhtml="http://www.w3.org/1999/xhtml">
 <!--

 Nodes     nprocs
 nid00009    11
 Number of processes for MPI-2 version of Molpro:   nprocs(total)=   12   nprocs(compute)=   11   nprocs(helper)=    1

 Using customized tuning parameters: mindgm=7; mindgv=16; mindgc=1; mindgr=1; noblas=0; minvec=7
 default implementation of scratch files=sf

 --><job>
  <!--

 Variables initialized (889), CPU time= 0.01 sec
 Commands  initialized (702), CPU time= 0.02 sec, 572 directives.
 Default parameters read. Elapsed time= 0.12 sec

 Checking input...
 Passed
1


                                         ***  PROGRAM SYSTEM MOLPRO  ***
                                       Copyright, TTI GmbH Stuttgart, 2015
                                    Version 2015.1 linked Dec 29 2018 15:55:43


 **********************************************************************************************************************************
 LABEL *   Calculation for Nb atom, singlet and triplet
  64 bit mpp version                                                                     DATE: 30-Sep-22          TIME: 19:15:43
 **********************************************************************************************************************************

 SHA1:             19cd028119e0e09f93f0674bd8af7968d9b3eff6
 **********************************************************************************************************************************
  -->
  <!--

 THRESHOLDS:

 ZERO    =  1.00D-12  ONEINT  =  1.00D-12  TWOINT  =  1.00D-15  PREFAC  =  1.00D-14  LOCALI  =  1.00D-09  EORDER  =  1.00D-04
 ENERGY  =  0.00D+00  ETEST   =  0.00D+00  EDENS   =  0.00D+00  THRDEDEF=  1.00D-06  GRADIENT=  1.00D-02  STEP    =  1.00D-03
 ORBITAL =  1.00D-05  CIVEC   =  1.00D-05  COEFF   =  1.00D-04  PRINTCI =  5.00D-02  PUNCHCI =  9.90D+01  OPTGRAD =  3.00D-04
 OPTENERG=  1.00D-06  OPTSTEP =  3.00D-04  THRGRAD =  1.00D-10  COMPRESS=  1.00D-11  VARMIN  =  1.00D-07  VARMAX  =  1.00D-03
 THRDOUB =  0.00D+00  THRDIV  =  1.00D-05  THRRED  =  1.00D-07  THRPSP  =  1.00D+00  THRDC   =  1.00D-10  THRCS   =  1.00D-10
 THRNRM  =  1.00D-08  THREQ   =  0.00D+00  THRDE   =  1.00D+00  THRREF  =  1.00D-05  SPARFAC =  1.00D+00  THRDLP  =  1.00D-07
 THRDIA  =  1.00D-10  THRDLS  =  1.00D-07  THRGPS  =  0.00D+00  THRKEX  =  0.00D+00  THRDIS  =  2.00D-01  THRVAR  =  1.00D-10
 THRLOC  =  1.00D-06  THRGAP  =  1.00D-06  THRLOCT = -1.00D+00  THRGAPT = -1.00D+00  THRORB  =  1.00D-06  THRMLTP =  0.00D+00
 THRCPQCI=  1.00D-10  KEXTA   =  0.00D+00  THRCOARS=  0.00D+00  SYMTOL  =  1.00D-06  GRADTOL =  1.00D-06  THROVL  =  1.00D-08
 THRORTH =  1.00D-08  GRID    =  1.00D-06  GRIDMAX =  1.00D-03  DTMAX   =  0.00D+00  THROCCDE=  1.00D-01  THROCCDE=  1.00D-01



 THRESHOLDS:

 ZERO    =  1.00D-12  ONEINT  =  1.00D-15  TWOINT  =  1.00D-15  PREFAC  =  1.00D-14  LOCALI  =  1.00D-09  EORDER  =  1.00D-04
 ENERGY  =  0.00D+00  ETEST   =  0.00D+00  EDENS   =  0.00D+00  THRDEDEF=  1.00D-06  GRADIENT=  1.00D-02  STEP    =  1.00D-03
 ORBITAL =  1.00D-05  CIVEC   =  1.00D-05  COEFF   =  1.00D-04  PRINTCI =  5.00D-02  PUNCHCI =  9.90D+01  OPTGRAD =  3.00D-04
 OPTENERG=  1.00D-06  OPTSTEP =  3.00D-04  THRGRAD =  1.00D-10  COMPRESS=  1.00D-11  VARMIN  =  1.00D-07  VARMAX  =  1.00D-03
 THRDOUB =  0.00D+00  THRDIV  =  1.00D-05  THRRED  =  1.00D-07  THRPSP  =  1.00D+00  THRDC   =  1.00D-10  THRCS   =  1.00D-10
 THRNRM  =  1.00D-08  THREQ   =  0.00D+00  THRDE   =  1.00D+00  THRREF  =  1.00D-05  SPARFAC =  1.00D+00  THRDLP  =  1.00D-07
 THRDIA  =  1.00D-10  THRDLS  =  1.00D-07  THRGPS  =  0.00D+00  THRKEX  =  0.00D+00  THRDIS  =  2.00D-01  THRVAR  =  1.00D-10
 THRLOC  =  1.00D-06  THRGAP  =  1.00D-06  THRLOCT = -1.00D+00  THRGAPT = -1.00D+00  THRORB  =  1.00D-06  THRMLTP =  0.00D+00
 THRCPQCI=  1.00D-10  KEXTA   =  0.00D+00  THRCOARS=  0.00D+00  SYMTOL  =  1.00D-06  GRADTOL =  1.00D-06  THROVL  =  1.00D-08
 THRORTH =  1.00D-08  GRID    =  1.00D-06  GRIDMAX =  1.00D-03  DTMAX   =  0.00D+00  THROCCDE=  1.00D-01  THROCCDE=  1.00D-01



Geometry recognized as XYZ


 Variable memory set to 1000000000 words,  buffer space   230000 words

 SETTING BASIS          =    USERDEF
 SETTING DKROLL         =         1.00000000
 SETTING DKHO           =        10.00000000
 SETTING DKHP           =         4.00000000

 DO I                   =         2.00000000

 Running procedure=ID5
  --><jobstep command="RHF-SCF" commandset="SCFPRO">
   <!--


 Recomputing integrals since basis changed


 Using spherical harmonics



 PROGRAM * SEWARD (Integral evaluation for generally contracted gaussian basis sets)     Author: Roland Lindh, 1990

 Geometry written to block  1 of record 700

 Orientation using atomic masses
 Molecule type: Atom
 Symmetry elements: X,Y,Z
 Rotational constants:       0.0000000      0.0000000      0.0000000 GHz  (calculated with average atomic masses)

 Point group  D2h


   --><cml:molecule>
    <cml:symmetry pointGroup="D2h"/>
    <cml:atomArray>
     <cml:atom id="a1" elementType="Nb" x3="0.0" y3="0.0" z3="0.0"/>
    </cml:atomArray>
    <cml:bondArray>
    </cml:bondArray>
   </cml:molecule><!--

 ATOMIC COORDINATES

 NR  ATOM    CHARGE       X              Y              Z

   1  NB     41.00    0.000000000    0.000000000    0.000000000

 NUCLEAR CHARGE:                   41
 NUMBER OF PRIMITIVE AOS:         370
 NUMBER OF SYMMETRY AOS:          258
 NUMBER OF CONTRACTIONS:          206   (  45Ag  +  28B3u +  28B2u +  22B1g +  28B1u +  22B2g +  22B3g +  11Au  )
 NUMBER OF CORE ORBITALS:          18   (   6Ag  +   3B3u +   3B2u +   1B1g +   3B1u +   1B2g +   1B3g +   0Au  )
 NUMBER OF VALENCE ORBITALS:        6   (   3Ag  +   0B3u +   0B2u +   1B1g +   0B1u +   1B2g +   1B3g +   0Au  )


 NUCLEAR REPULSION ENERGY    0.00000000

 One-electron integrals computed with SEWARD

 10nd-order Douglas-Kroll-Hess method activated. McWeeny DKH parametrization is used.

 Computing Douglas-Kroll / X2C integrals

 AO integral compression algorithm  1   Integral accuracy      1.0D-15

     255.853 MB (compressed) written to integral file ( 69.3%)

     Node minimum: 16.515 MB, node maximum: 29.098 MB


 NUMBER OF SORTED TWO-ELECTRON INTEGRALS:    2646061.     BUFFER LENGTH:  32768
 NUMBER OF SEGMENTS:   1  SEGMENT LENGTH:    2646061      RECORD LENGTH: 524288

 Memory used in sort:       3.20 MW

 SORT1 READ    46137703. AND WROTE     1737385. INTEGRALS IN      5 RECORDS. CPU TIME:     1.29 SEC, REAL TIME:     1.37 SEC
 SORT2 READ    18999049. AND WROTE    29098917. INTEGRALS IN    913 RECORDS. CPU TIME:     0.14 SEC, REAL TIME:     0.22 SEC

 Node minimum:     2633072.  Node maximum:     2647741. integrals

 OPERATOR DM      FOR CENTER  0  COORDINATES:    0.000000    0.000000    0.000000

 EXTRA SYMMETRY OF AOS IN SYMMETRY 1:   1 1 1 1 1 1 1 1 1 2   3 2 3 2 3 2 3 2 3 2   3 2 3 2 3 4 5 6 4 5   6 4 5 6 4 5 6 7 8 9
                                       10 7 8 910
 EXTRA SYMMETRY OF AOS IN SYMMETRY 2:   1 1 1 1 1 1 1 1 1 2   3 2 3 2 3 2 3 2 3 4   5 6 4 5 6 4 5 6
 EXTRA SYMMETRY OF AOS IN SYMMETRY 3:   1 1 1 1 1 1 1 1 1 2   3 2 3 2 3 2 3 2 3 4   5 6 4 5 6 4 5 6
 EXTRA SYMMETRY OF AOS IN SYMMETRY 4:   1 1 1 1 1 1 1 1 2 3   2 3 2 3 2 3 4 5 6 4   5 6
 EXTRA SYMMETRY OF AOS IN SYMMETRY 5:   1 1 1 1 1 1 1 1 1 2   3 2 3 2 3 2 3 2 3 4   5 6 4 5 6 4 5 6
 EXTRA SYMMETRY OF AOS IN SYMMETRY 6:   1 1 1 1 1 1 1 1 2 3   2 3 2 3 2 3 4 5 6 4   5 6
 EXTRA SYMMETRY OF AOS IN SYMMETRY 7:   1 1 1 1 1 1 1 1 2 3   2 3 2 3 2 3 4 5 6 4   5 6
 EXTRA SYMMETRY OF AOS IN SYMMETRY 8:   1 1 1 1 1 2 3 2 3 2   3

 Eigenvalues of metric

         1 0.406E-04 0.416E-03 0.416E-03 0.330E-02 0.393E-02 0.393E-02 0.772E-01 0.774E-01
         2 0.173E-03 0.102E-02 0.632E-01 0.632E-01 0.110E+00 0.198E+00 0.250E+00 0.250E+00
         3 0.173E-03 0.102E-02 0.632E-01 0.632E-01 0.110E+00 0.198E+00 0.250E+00 0.250E+00
         4 0.416E-03 0.393E-02 0.774E-01 0.774E-01 0.124E+00 0.455E+00 0.455E+00 0.569E+00
         5 0.173E-03 0.102E-02 0.632E-01 0.632E-01 0.110E+00 0.198E+00 0.250E+00 0.250E+00
         6 0.416E-03 0.393E-02 0.774E-01 0.774E-01 0.124E+00 0.455E+00 0.455E+00 0.569E+00
         7 0.416E-03 0.393E-02 0.774E-01 0.774E-01 0.124E+00 0.455E+00 0.455E+00 0.569E+00
         8 0.632E-01 0.250E+00 0.250E+00 0.262E+00 0.715E+00 0.892E+00 0.892E+00 0.145E+01


 **********************************************************************************************************************************
 DATASETS  * FILE   NREC   LENGTH (MB)   RECORD NAMES
              1      22       20.44       500      610      700      900      950      970     1000      129      960     1700
                                          VAR    BASINP    GEOM    SYMINP    ZMAT    AOBASIS   BASIS     P2S    ABASIS    OPER
                                         1101     1401     1411     1412     1650     1100     1400     1410     1200     1210
                                          SR      EKINR    POTR     PVPR    MOLCAS      S      EKIN      POT      H0       H01
                                         1080     1600
                                         AOSYM     SMH

 PROGRAMS   *        TOTAL       INT
 CPU TIMES  *         4.35      3.97
 REAL TIME  *         5.41 SEC
 DISK USED  *       456.49 MB
 GA USED    *         0.00 MB       (max)       0.00 MB       (current)
 **********************************************************************************************************************************


 PROGRAM * RHF-SCF (OPEN SHELL)       Authors: W. Meyer, H.-J. Werner


 NUMBER OF ELECTRONS:      23+   18-    SPACE SYMMETRY=1    SPIN SYMMETRY: Sextet
 CONVERGENCE THRESHOLDS:    1.00E-05 (Density)    1.00E-07 (Energy)
 MAX. NUMBER OF ITERATIONS:       60
 INTERPOLATION TYPE:            DIIS
 INTERPOLATION STEPS:              2 (START)      1 (STEP)
 LEVEL SHIFTS:                 -0.60 (CLOSED) -0.30 (OPEN)

 Number of closed-shell orbitals:   18 (   6   3   3   1   3   1   1   0 )
 Number of open-shell orbitals:      5 (   2   0   0   1   0   1   1   0 )



 Extra symmetries of mos in symmetry 1:   1   1   1   3   2   1   3   2
 Orbital guess generated from atomic densities. Full valence occupancy:    9   3   3   2   3   2   2   0


 Molecular orbital dump at record        4202.2

 ITERATION    DDIFF          GRAD             ENERGY        2-EL.EN.            DIPOLE MOMENTS         DIIS   ORB.
    1      0.000D+00      0.000D+00     -1301.24291079   1867.866273    0.00000    0.00000    0.00000    0    start
    2      0.000D+00      0.318D+00     -1290.80440471   1005.971143    0.00000    0.00000    0.00000    1    diag,B
    3      0.118D+03      0.232D+00     -1327.11965819   1681.272460    0.00000    0.00000    0.00000    2    diag,B
    4      0.748D+02      0.107D+00     -1330.48027289   1603.037899    0.00000    0.00000    0.00000    3    diag,B
    5      0.183D+02      0.327D-01     -1331.06285248   1556.949295    0.00000    0.00000    0.00000    4    diag,B
    6      0.112D+02      0.679D-02     -1331.11505640   1552.529105    0.00000    0.00000    0.00000    5    diag,B
    7      0.288D+01      0.424D-02     -1331.14971886   1552.949662    0.00000    0.00000    0.00000    6    fixocc
    8      0.265D+01      0.302D-02     -1331.16862200   1552.754752    0.00000    0.00000    0.00000    7    diag,B
    9      0.920D+00      0.316D-02     -1331.11469162   1554.105895    0.00000    0.00000    0.00000    8    diag,B
   10      0.627D+00      0.295D-02     -1331.09708377   1553.795211    0.00000    0.00000    0.00000    9    orth
   11      0.347D+00      0.226D-02     -1331.09401262   1551.192032    0.00000    0.00000    0.00000    9    diag,B
   12      0.170D+01      0.861D-03     -1331.09414481   1551.534365    0.00000    0.00000    0.00000    9    diag,B
   13      0.161D+00      0.364D-03     -1331.09449687   1551.348031    0.00000    0.00000    0.00000    9    diag,B
   14      0.151D+00      0.232D-03     -1331.09476059   1551.101236    0.00000    0.00000    0.00000    9    diag,B
   15      0.161D+00      0.226D-03     -1331.09487994   1551.173008    0.00000    0.00000    0.00000    9    diag,B
   16      0.892D-01      0.105D-03     -1331.09496406   1551.188384    0.00000    0.00000    0.00000    9    diag,B
   17      0.401D-01      0.112D-03     -1331.09476646   1551.140831    0.00000    0.00000    0.00000    9    diag,B
   18      0.662D-01      0.103D-03     -1331.09467044   1551.069019    0.00000    0.00000    0.00000    9    diag,B
   19      0.593D-01      0.620D-04     -1331.09466763   1551.044277    0.00000    0.00000    0.00000    9    diag,B
   20      0.461D-01      0.515D-04     -1331.09467958   1551.049612    0.00000    0.00000    0.00000    9    orth
   21      0.152D-01      0.474D-04     -1331.09472416   1551.013811    0.00000    0.00000    0.00000    9    diag,B
   22      0.187D-01      0.362D-04     -1331.09474877   1550.991524    0.00000    0.00000    0.00000    9    diag,B
   23      0.615D-02      0.226D-04     -1331.09475854   1550.964073    0.00000    0.00000    0.00000    9    diag,B
   24      0.330D-02      0.147D-04     -1331.09475893   1550.964257    0.00000    0.00000    0.00000    9    diag,B
   25      0.130D-02      0.139D-04     -1331.09475847   1550.964409    0.00000    0.00000    0.00000    9    diag,B
   26      0.391D-03      0.142D-04     -1331.09475905   1550.958799    0.00000    0.00000    0.00000    9    diag,B
   27      0.471D-02      0.114D-04     -1331.09475823   1550.957363    0.00000    0.00000    0.00000    9    diag,B
   28      0.303D-02      0.797D-05     -1331.09475859   1550.952859    0.00000    0.00000    0.00000    9    diag,B
   29      0.253D-02      0.390D-05     -1331.09475841   1550.950457    0.00000    0.00000    0.00000    9    diag,B
   30      0.196D-02      0.301D-05     -1331.09475872   1550.950424    0.00000    0.00000    0.00000    9    orth
   31      0.138D-02      0.288D-05     -1331.09475833   1550.949643    0.00000    0.00000    0.00000    9    diag,B
   32      0.108D-03      0.288D-05     -1331.09475813   1550.949806    0.00000    0.00000    0.00000    9    diag,B
   33      0.936D-03      0.271D-05     -1331.09475831   1550.950020    0.00000    0.00000    0.00000    9    diag,B
   34      0.509D-03      0.248D-05     -1331.09475809   1550.950634    0.00000    0.00000    0.00000    9    diag,B
   35      0.729D-03      0.206D-05     -1331.09475824   1550.950902    0.00000    0.00000    0.00000    9    diag,B
   36      0.135D-02      0.122D-05     -1331.09475776   1550.950808    0.00000    0.00000    0.00000    9    diag,B
   37      0.164D-02      0.458D-06     -1331.09475837   1550.950574    0.00000    0.00000    0.00000    9    diag,B
   38      0.456D-03      0.261D-06     -1331.09475854   1550.950547    0.00000    0.00000    0.00000    9    diag,B
   39      0.653D-04      0.216D-06     -1331.09475837   1550.950543    0.00000    0.00000    0.00000    9    diag,B
   40      0.134D-04      0.223D-06     -1331.09475817   1550.950564    0.00000    0.00000    0.00000    9    orth
   41      0.104D-03      0.186D-06     -1331.09475792   1550.950556    0.00000    0.00000    0.00000    9    diag,B
   42      0.448D-04      0.123D-06     -1331.09475836   1550.950518    0.00000    0.00000    0.00000    9    diag,B
   43      0.504D-04      0.717D-07     -1331.09475813   1550.950516    0.00000    0.00000    0.00000    9    diag,B
   44      0.276D-04      0.488D-07     -1331.09475841   1550.950492    0.00000    0.00000    0.00000    9    diag,B
   45      0.635D-04      0.322D-07     -1331.09475839   1550.950499    0.00000    0.00000    0.00000    9    diag,B
   46      0.103D-04      0.276D-07     -1331.09475850   1550.950508    0.00000    0.00000    0.00000    9    diag,B
   47      0.183D-04      0.260D-07     -1331.09475831   1550.950512    0.00000    0.00000    0.00000    9    diag,B
   48      0.612D-05      0.264D-07     -1331.09475841   1550.950513    0.00000    0.00000    0.00000    9    diag,B
   49      0.973D-05      0.265D-07     -1331.09475835   1550.950526    0.00000    0.00000    0.00000    0    orth

 Final alpha occupancy:   8   3   3   2   3   2   2   0
 Final beta  occupancy:   6   3   3   1   3   1   1   0

 !RHF STATE 1.1 Energy              -1331.094758348056
   --><property name="Energy" method="RHF" principal="true" stateSymmetry="1" stateNumber="1"
     value="-1331.09475834806"/><!--
 Nuclear energy                         0.00000000
 One-electron energy                -2106.57002144
 Two-electron energy                  775.47526309
 Virial quotient                       -3.13947982
 !RHF STATE 1.1 Dipole moment           0.00000000     0.00000000     0.00000000
 Dipole moment /Debye                   0.00000000     0.00000000     0.00000000
   --><property name="Dipole moment" method="RHF" principal="true" stateSymmetry="1"
     stateNumber="1" value="0.0 0.0 0.0"/><!--

 ELECTRON ORBITALS
 =================


   Orb  Occ    Energy  Couls-En    Coefficients

                                   1 1s      1 1s      1 1s      1 1s      1 1s      1 1s      1 1s      1 1s      1 1s      1 3d0
                                   1 3d2+    1 3d0     1 3d2+    1 3d0     1 3d2+    1 3d0     1 3d2+    1 3d0     1 3d2+    1 3d0
                                   1 3d2+    1 3d0     1 3d2+    1 3d0     1 3d2+    1 5g0     1 5g4+    1 5g2+    1 5g0     1 5g4+
                                   1 5g2+    1 5g0     1 5g4+    1 5g2+    1 5g0     1 5g4+    1 5g2+    1 7i6+    1 7i4+    1 7i2+
                                   1 7i0     1 7i6+    1 7i4+    1 7i2+    1 7i0

   1.1   2   -88.3670 -226.3729 17.994930  3.067715  6.474472  5.857703 -3.703289 -0.999400  0.713069 46.566311-60.843504 -0.020337
                                 0.000000  0.016127 -0.000000 -0.011728  0.000000  0.007294 -0.000000 -0.001786  0.000000 -0.001072
                                 0.000000  0.004692 -0.000000  0.026225 -0.000000 -0.000009  0.000053 -0.000000  0.000010 -0.000061
                                 0.000000 -0.000006  0.000039 -0.000000  0.000002 -0.000011  0.000000 -0.000000  0.000002  0.000000
                                 0.000001  0.000000  0.000000  0.000000  0.000000

   2.1   2   -13.3808  -65.6681-22.783993 -2.722613 -7.354685 -6.319379  4.249700  0.995498 -1.478618-50.296906 70.044641 -0.579066
                                 0.000000  0.434053 -0.000000 -0.352237  0.000000  0.202747 -0.000000 -0.064073  0.000000  0.000835
                                -0.000000  0.211851 -0.000000  0.719993 -0.000000  0.000724 -0.000777  0.000000 -0.000588  0.000822
                                -0.000000  0.000297 -0.000406  0.000000 -0.000078  0.000120 -0.000000 -0.000000  0.000236  0.000000
                                 0.000086  0.000000 -0.000031 -0.000000 -0.000013

   3.1   2    -2.4469  -32.0156 16.917081  0.719610  5.536422  3.938700 -3.127428 -0.444565  2.394997 34.417652-48.403196  0.322249
                                -0.000000 -0.236001  0.000000  0.183830 -0.000000 -0.104236  0.000000  0.031775 -0.000000  0.001463
                                 0.000000 -0.091585  0.000000 -0.336761  0.000000  0.000615 -0.000594  0.000000  0.000782 -0.001126
                                 0.000000  0.000125  0.000400 -0.000000  0.000052 -0.000045  0.000000 -0.000000  0.000103  0.000000
                                 0.000069 -0.000000  0.000156  0.000000  0.000056

   4.1   2   -11.0526  -67.8004  0.000000  0.000000  0.000000  0.000000 -0.000000 -0.000000  0.000000  0.000001 -0.000001 -0.000002
                                -8.181723  0.000002  6.240268 -0.000001 -4.912209  0.000001  2.897903 -0.000000 -0.860162 -0.000000
                                -0.116344  0.000001  2.831320  0.000003 10.274495  0.000000 -0.000000  0.007040 -0.000000  0.000000
                                -0.004457  0.000000 -0.000000  0.002459 -0.000000  0.000000 -0.000628 -0.000262  0.000000 -0.000085
                                -0.000000  0.000095 -0.000000  0.000005 -0.000000

   5.1   2   -11.1013  -67.8871  1.773542  0.198087  0.578268  0.486864 -0.332834 -0.074096  0.131715  3.914240 -5.456859 -8.229514
                                 0.000002  6.272423 -0.000002 -4.941879  0.000001  2.912798 -0.000001 -0.866242  0.000000 -0.112837
                                 0.000000  2.843122 -0.000001 10.322547 -0.000003  0.008274  0.000043  0.000000 -0.005928 -0.000469
                                -0.000000  0.003020  0.000058  0.000000 -0.000795 -0.000045 -0.000000  0.000000 -0.000130  0.000000
                                 0.000088 -0.000000  0.000041 -0.000000 -0.000026

   6.1   2    -0.2495  -12.6200  5.021019 -1.692497  2.150805  0.970761 -1.193782 -0.045652  1.895065 11.075716-15.701854  0.196679
                                -0.000000 -0.201645  0.000000  0.120727 -0.000000 -0.076849  0.000000  0.017306 -0.000000  0.019328
                                -0.000000 -0.059749  0.000000 -0.243449  0.000000  0.000430 -0.000700  0.000000  0.000491 -0.000438
                                 0.000000 -0.000035  0.000322 -0.000000 -0.000377  0.000713 -0.000000  0.000000 -0.000041  0.000000
                                 0.000012 -0.000000  0.000062  0.000000  0.000020

   7.1   +    -0.6079  -24.4895  0.000000 -0.000000  0.000000  0.000000 -0.000000 -0.000000  0.000000  0.000000 -0.000000  0.000000
                                 4.110031 -0.000000 -2.877349  0.000000  1.756710 -0.000000 -1.208346  0.000000  0.252729  0.000000
                                 0.357498 -0.000000 -0.982756 -0.000000 -4.036530  0.000000 -0.000000  0.004996  0.000000 -0.000000
                                 0.007161  0.000000 -0.000000  0.008788  0.000000 -0.000000  0.003231 -0.000929  0.000000  0.000090
                                 0.000000 -0.000861  0.000000  0.000025  0.000000

   8.1   +    -0.6557  -24.8645 -0.945013  0.077440 -0.369100 -0.190129  0.200033  0.011543 -0.262871 -1.962134  2.773452  4.090275
                                -0.000000 -2.875173  0.000000  1.771517 -0.000000 -1.198464  0.000000  0.256193 -0.000000  0.337275
                                -0.000000 -0.985018  0.000000 -4.008447  0.000000  0.006012 -0.000309  0.000000  0.010218  0.001004
                                 0.000000  0.011126 -0.000145  0.000000  0.004177 -0.000067  0.000000  0.000000 -0.000409  0.000000
                                 0.000336  0.000000 -0.000362  0.000000  0.000243

   9.1   0     0.0350   -4.9161  1.383174 -3.879785  2.079057 -0.289114 -0.814694  0.060873  5.251858  4.601177 -6.886800  0.040014
                                -0.000000 -0.054713  0.000000  0.027727 -0.000000 -0.020899  0.000000  0.003753 -0.000000  0.014717
                                -0.000000 -0.013905  0.000000 -0.059678  0.000000  0.000111 -0.000245  0.000000  0.000085 -0.000100
                                 0.000000 -0.000085  0.000201 -0.000000 -0.000154  0.000181 -0.000000  0.000000 -0.000009  0.000000
                                 0.000002 -0.000000  0.000016  0.000000  0.000003

  10.1   0     0.0884   -5.4733  0.126600 -0.074295  0.079280  0.011012 -0.038160  0.001033  0.098443  0.289425 -0.414358 -0.626874
                                -0.000000 -0.733072 -0.000000 -0.719005 -0.000000 -0.241834 -0.000000 -0.110401 -0.000000  2.134184
                                 0.000000  0.094917  0.000000  0.132962  0.000000 -0.000648 -0.000019 -0.000000 -0.000858 -0.000115
                                -0.000000 -0.001287 -0.000058 -0.000000  0.001715  0.000176 -0.000000  0.000000  0.000042 -0.000000
                                -0.000033  0.000000  0.000016 -0.000000 -0.000013

                                   1 2px     1 2px     1 2px     1 2px     1 2px     1 2px     1 2px     1 2px     1 2px     1 4f1+
                                   1 4f3+    1 4f1+    1 4f3+    1 4f1+    1 4f3+    1 4f1+    1 4f3+    1 4f1+    1 4f3+    1 6h1+
                                   1 6h3+    1 6h5+    1 6h1+    1 6h3+    1 6h5+    1 6h1+    1 6h3+    1 6h5+

   1.2   2   -34.0848 -118.2871 -7.787241 -0.711231  2.470958  1.880954  1.342544 -0.314119  0.062233 -1.602583 10.006573  0.004089
                                -0.000216 -0.002936  0.000505  0.001773 -0.000235 -0.000838  0.000126  0.000240 -0.000035 -0.000054
                                 0.000186  0.000002  0.000021 -0.000078  0.000006 -0.000007  0.000026 -0.000000

   2.2   2    -4.0796  -42.7151  4.953600  0.333049 -1.418519 -1.153688 -0.792389  0.181885 -0.024422  1.500673 -5.574336  0.013175
                                 0.001427  0.015320 -0.001175  0.006112  0.001458 -0.000206 -0.000048  0.000100  0.000131  0.000229
                                 0.001076 -0.001400 -0.000142  0.000136  0.000328  0.000012  0.000164 -0.000122

   3.2   2    -0.4677  -36.4257 -0.048081  0.007118  0.045953  0.031467  0.014315 -0.003746 -0.001264 -0.026370  0.090798 -0.067969
                                 0.562227 -0.021587  0.178827 -0.050521  0.422451 -0.007145  0.065167 -0.009871  0.085232 -0.001805
                                 0.005547 -0.000049 -0.000331  0.001023 -0.000044 -0.000641  0.002029 -0.000051

   4.2   0    -0.1068  -14.5458  0.874153 -0.770636 -0.480374 -0.544242 -0.230143  0.066253  0.054021  0.446084 -1.585212  0.020149
                                 0.024656  0.009594  0.007430  0.009513  0.020118 -0.010833  0.005464 -0.008789  0.006459  0.000357
                                 0.000387 -0.000456 -0.000144 -0.000152  0.000608 -0.000096 -0.000097  0.000766

   5.2   0     0.0370   -4.4331  0.022715 -7.944982  6.464044 -1.184175  0.341600  0.143960  2.354056 -0.021198 -0.089064  0.014226
                                 0.004180  0.005455  0.001234  0.010219  0.003583 -0.000695  0.001213  0.002235  0.001554  0.000260
                                 0.000078 -0.000098  0.000011 -0.000036  0.000166  0.000076 -0.000020  0.000166

                                   1 2py     1 2py     1 2py     1 2py     1 2py     1 2py     1 2py     1 2py     1 2py     1 4f1-
                                   1 4f3-    1 4f1-    1 4f3-    1 4f1-    1 4f3-    1 4f1-    1 4f3-    1 4f1-    1 4f3-    1 6h1-
                                   1 6h3-    1 6h5-    1 6h1-    1 6h3-    1 6h5-    1 6h1-    1 6h3-    1 6h5-

   1.3   2   -34.0848 -118.2871 -7.787241 -0.711231  2.470958  1.880954  1.342544 -0.314119  0.062233 -1.602583 10.006572  0.004089
                                 0.000216 -0.002936 -0.000505  0.001773  0.000235 -0.000838 -0.000126  0.000240  0.000035 -0.000054
                                -0.000186  0.000002  0.000021  0.000078  0.000006 -0.000007 -0.000026 -0.000000

   2.3   2    -4.0796  -42.7151  4.953600  0.333049 -1.418519 -1.153688 -0.792389  0.181885 -0.024422  1.500673 -5.574336  0.013175
                                -0.001427  0.015320  0.001175  0.006112 -0.001458 -0.000206  0.000048  0.000100 -0.000131  0.000229
                                -0.001076 -0.001400 -0.000142 -0.000136  0.000328  0.000012 -0.000164 -0.000122

   3.3   2    -0.4677  -36.4257  0.048081 -0.007118 -0.045953 -0.031467 -0.014315  0.003746  0.001264  0.026370 -0.090798  0.067968
                                 0.562227  0.021587  0.178827  0.050520  0.422451  0.007145  0.065167  0.009871  0.085232  0.001805
                                 0.005547  0.000049  0.000331  0.001023  0.000044  0.000641  0.002029  0.000051

   4.3   0    -0.1068  -14.5458  0.874153 -0.770636 -0.480374 -0.544242 -0.230143  0.066253  0.054021  0.446084 -1.585212  0.020149
                                -0.024656  0.009594 -0.007430  0.009514 -0.020118 -0.010833 -0.005464 -0.008789 -0.006459  0.000357
                                -0.000387 -0.000456 -0.000144  0.000152  0.000608 -0.000096  0.000097  0.000766

   5.3   0     0.0370   -4.4331  0.022715 -7.944982  6.464044 -1.184175  0.341600  0.143960  2.354056 -0.021198 -0.089064  0.014226
                                -0.004180  0.005455 -0.001234  0.010219 -0.003583 -0.000695 -0.001213  0.002235 -0.001554  0.000260
                                -0.000078 -0.000098  0.000011  0.000036  0.000166  0.000076  0.000020  0.000166

                                   1 3d2-    1 3d2-    1 3d2-    1 3d2-    1 3d2-    1 3d2-    1 3d2-    1 3d2-    1 5g2-    1 5g4-
                                   1 5g2-    1 5g4-    1 5g2-    1 5g4-    1 5g2-    1 5g4-    1 7i2-    1 7i6-    1 7i4-    1 7i2-
                                   1 7i6-    1 7i4-

   1.4   2   -11.0075  -67.7818 -8.215103  6.265316 -4.931683  2.909317 -0.863526 -0.116828  2.839758 10.312759  0.003610  0.000000
                                -0.002930 -0.000000  0.001345  0.000000 -0.000377 -0.000000  0.000065 -0.000259  0.000000 -0.000019
                                 0.000096 -0.000000

   2.4   +    -0.5895  -24.4152  4.062656 -2.834204  1.728470 -1.190578  0.249314  0.353114 -0.969393 -3.973518  0.002330  0.000000
                                 0.005306 -0.000000  0.005515  0.000000  0.002418 -0.000000  0.000200 -0.000930  0.000000  0.000162
                                -0.000864  0.000000

   3.4   0     0.0903   -5.4240 -0.655279 -0.776594 -0.741204 -0.250825 -0.113222  2.182057  0.096266  0.133322 -0.000283 -0.000000
                                -0.000450  0.000000 -0.000722  0.000000  0.000946 -0.000000 -0.000020  0.000099 -0.000000 -0.000010
                                 0.000047 -0.000000

   4.4   0     0.2717   -7.8521  0.028150 -4.593732 -1.530717 -1.525264 -0.213114  4.270144 -0.263061 -1.887432  0.000874  0.000000
                                 0.001349 -0.000000  0.001694 -0.000000 -0.003747  0.000000  0.000059 -0.000296  0.000000  0.000016
                                -0.000055  0.000000

                                   1 2pz     1 2pz     1 2pz     1 2pz     1 2pz     1 2pz     1 2pz     1 2pz     1 2pz     1 4f0
                                   1 4f2+    1 4f0     1 4f2+    1 4f0     1 4f2+    1 4f0     1 4f2+    1 4f0     1 4f2+    1 6h2+
                                   1 6h4+    1 6h0     1 6h2+    1 6h4+    1 6h0     1 6h2+    1 6h4+    1 6h0

   1.5   2   -34.2986 -118.5024 -7.783716 -0.705955  2.465401  1.881357  1.341910 -0.314622  0.061801 -1.599666  9.999929  0.005074
                                -0.000000 -0.003766 -0.000000  0.002251  0.000000 -0.001065 -0.000000  0.000305  0.000000  0.000000
                                 0.000193  0.000073 -0.000000 -0.000076 -0.000032  0.000000  0.000027  0.000011

   2.5   2    -4.2860  -43.0445  4.976535  0.319365 -1.416556 -1.169456 -0.800739  0.186692 -0.023511  1.511489 -5.612669  0.014688
                                -0.000000  0.018785  0.000000  0.006273 -0.000000 -0.000078  0.000000  0.000051 -0.000000  0.000000
                                -0.000016  0.000939 -0.000000  0.000376 -0.000062  0.000000  0.000061  0.000120

   3.5   2    -0.5858  -37.0613  0.000000  0.000000 -0.000000 -0.000000 -0.000000  0.000000 -0.000000  0.000000 -0.000000  0.000000
                                 0.578564  0.000000  0.184017  0.000000  0.422899  0.000000  0.050367  0.000000  0.070269  0.008488
                                -0.000000  0.000000  0.001217 -0.000000  0.000000  0.002702 -0.000000  0.000000

   4.5   0    -0.1494  -15.3702  0.952970 -0.597043 -0.654568 -0.601573 -0.261356  0.073151  0.059543  0.492287 -1.739500  0.027617
                                -0.000000  0.013111 -0.000000  0.012390 -0.000000 -0.014536 -0.000000 -0.009867 -0.000000  0.000000
                                -0.000268  0.000612 -0.000000  0.000258 -0.000313 -0.000000  0.000336 -0.000184

   5.5   0     0.0348   -4.5027  0.017912 -7.365286  6.007234 -1.113233  0.317691  0.135459  2.259922 -0.018347 -0.086784  0.028911
                                -0.000000  0.010580 -0.000000  0.022140 -0.000000  0.002046 -0.000000  0.007618 -0.000000 -0.000000
                                -0.000074  0.000583 -0.000000  0.000059  0.000062 -0.000000  0.000041  0.000217

                                   1 3d1+    1 3d1+    1 3d1+    1 3d1+    1 3d1+    1 3d1+    1 3d1+    1 3d1+    1 5g1+    1 5g3+
                                   1 5g1+    1 5g3+    1 5g1+    1 5g3+    1 5g1+    1 5g3+    1 7i5+    1 7i3+    1 7i1+    1 7i5+
                                   1 7i3+    1 7i1+

   1.6   2   -11.0990  -67.8975 -8.232241  6.275052 -4.943468  2.914065 -0.866434 -0.113370  2.845989 10.328436  0.006011  0.003152
                                -0.004782 -0.000960  0.002249  0.000997 -0.000617 -0.000194 -0.000031  0.000144  0.000043  0.000039
                                -0.000025 -0.000019

   2.6   +    -0.6452  -24.8052  4.109944 -2.889575  1.777472 -1.206156  0.256815  0.342673 -0.988952 -4.032916  0.004103  0.002887
                                 0.008715  0.000482  0.008643  0.003106  0.003489  0.000739 -0.000483  0.000223  0.000247 -0.000402
                                 0.000206  0.000175

   3.6   0     0.0888   -5.4605 -0.633126 -0.742036 -0.724345 -0.243541 -0.111079  2.144753  0.095331  0.133810 -0.000478 -0.000216
                                -0.000733 -0.000016 -0.001061 -0.000209  0.001564 -0.000185  0.000053 -0.000019 -0.000025  0.000014
                                -0.000013 -0.000009

   4.6   0     0.2648   -7.8664  0.005334 -4.529164 -1.485543 -1.490124 -0.205736  4.206302 -0.260925 -1.853623  0.001468  0.000617
                                 0.002197  0.000003  0.002417  0.000628 -0.005873  0.000709 -0.000161  0.000055  0.000074  0.000005
                                 0.000028  0.000010

                                   1 3d1-    1 3d1-    1 3d1-    1 3d1-    1 3d1-    1 3d1-    1 3d1-    1 3d1-    1 5g1-    1 5g3-
                                   1 5g1-    1 5g3-    1 5g1-    1 5g3-    1 5g1-    1 5g3-    1 7i5-    1 7i3-    1 7i1-    1 7i5-
                                   1 7i3-    1 7i1-

   1.7   2   -11.0990  -67.8975 -8.232241  6.275052 -4.943468  2.914065 -0.866434 -0.113370  2.845989 10.328436  0.006011 -0.003152
                                -0.004782  0.000960  0.002249 -0.000997 -0.000617  0.000194 -0.000031 -0.000144  0.000043  0.000039
                                 0.000025 -0.000019

   2.7   +    -0.6452  -24.8052  4.109944 -2.889575  1.777472 -1.206156  0.256815  0.342673 -0.988952 -4.032916  0.004103 -0.002887
                                 0.008715 -0.000482  0.008643 -0.003106  0.003489 -0.000739 -0.000483 -0.000223  0.000247 -0.000402
                                -0.000206  0.000175

   3.7   0     0.0888   -5.4605 -0.633126 -0.742036 -0.724345 -0.243541 -0.111079  2.144753  0.095331  0.133810 -0.000478  0.000216
                                -0.000733  0.000016 -0.001061  0.000209  0.001564  0.000185  0.000053  0.000019 -0.000025  0.000014
                                 0.000013 -0.000009

   4.7   0     0.2648   -7.8664  0.005334 -4.529164 -1.485543 -1.490124 -0.205736  4.206302 -0.260925 -1.853623  0.001468 -0.000617
                                 0.002197 -0.000003  0.002417 -0.000628 -0.005873 -0.000709 -0.000161 -0.000055  0.000074  0.000005
                                -0.000028  0.000010

                                   1 4f2-    1 4f2-    1 4f2-    1 4f2-    1 4f2-    1 6h4-    1 6h2-    1 6h4-    1 6h2-    1 6h4-
                                   1 6h2-

   1.8   0     0.1408  -31.8856  0.479604  0.162879  0.420066  0.130277  0.243358 -0.000000  0.006878 -0.000000  0.002211 -0.000000
                                 0.004472

   2.8   0     0.5211  -12.6766 -0.205797 -0.102645 -0.074652 -0.217747  1.054626  0.000000 -0.002773  0.000000 -0.000680 -0.000000
                                 0.003660

 HOMO      3.2    -0.467709 =     -12.7270eV
 LUMO      4.5    -0.149430 =      -4.0662eV
 LUMO-HOMO         0.318279 =       8.6608eV


 **********************************************************************************************************************************
 DATASETS  * FILE   NREC   LENGTH (MB)   RECORD NAMES
              1      22       20.44       500      610      700      900      950      970     1000      129      960     1700
                                          VAR    BASINP    GEOM    SYMINP    ZMAT    AOBASIS   BASIS     P2S    ABASIS    OPER
                                         1101     1401     1411     1412     1650     1100     1400     1410     1200     1210
                                          SR      EKINR    POTR     PVPR    MOLCAS      S      EKIN      POT      H0       H01
                                         1080     1600
                                         AOSYM     SMH

              2       5        5.56       200      700     1000      520     4202
                                        OPTIONS   GEOM     BASIS   MCVARS     RHF

 PROGRAMS   *        TOTAL       RHF       INT
 CPU TIMES  *         5.18      0.83      3.97
 REAL TIME  *         6.50 SEC
 DISK USED  *       753.12 MB
 SF USED    *         0.02 MB
 GA USED    *         0.00 MB       (max)       0.00 MB       (current)
 **********************************************************************************************************************************
   -->
   <time start="19:15:44" end="19:15:49" cpu="5.18" system="0.96" real="6.5"/>
   <storage units="megabyte" memory="8001.84" sf="0.02" df="296.63" eaf="456.49" ga="0.0"/>
  </jobstep><!--
  --><jobstep command="POP" commandset="POP">
   <!--


 PROGRAM * POP (Mulliken population analysis)


 Density matrix read from record         4202.2  Type=RHF/CHARGE (state 1.1)

 Population analysis by basis function type

 Unique atom        s        p        d        f        g    Total    Charge
   1  NB      7.99243 12.00184 15.00528  5.99772  0.00228 41.00000  + 0.00000


 **********************************************************************************************************************************
 DATASETS  * FILE   NREC   LENGTH (MB)   RECORD NAMES
              1      22       20.44       500      610      700      900      950      970     1000      129      960     1700
                                          VAR    BASINP    GEOM    SYMINP    ZMAT    AOBASIS   BASIS     P2S    ABASIS    OPER
                                         1101     1401     1411     1412     1650     1100     1400     1410     1200     1210
                                          SR      EKINR    POTR     PVPR    MOLCAS      S      EKIN      POT      H0       H01
                                         1080     1600
                                         AOSYM     SMH

              2       5        5.56       200      700     1000      520     4202
                                        OPTIONS   GEOM     BASIS   MCVARS     RHF

 PROGRAMS   *        TOTAL       POP       RHF       INT
 CPU TIMES  *         5.19      0.00      0.83      3.97
 REAL TIME  *         6.51 SEC
 DISK USED  *       753.12 MB
 SF USED    *         0.02 MB
 GA USED    *         0.00 MB       (max)       0.00 MB       (current)
 **********************************************************************************************************************************
   -->
   <time start="19:15:49" end="19:15:49" cpu="0.01" system="0.01" real="0.01"/>
   <storage units="megabyte" memory="8001.84" sf="0.02" df="296.63" eaf="456.49" ga="0.0"/>
  </jobstep><!--
  --><jobstep command="MULTI" commandset="MULTI">
   <!--


 PROGRAM * MULTI (Direct Multiconfiguration SCF)       Authors: P.J. Knowles, H.-J. Werner (1984)     S.T. Elbert (1988)


 Number of closed-shell orbitals:  18 (   6   3   3   1   3   1   1   0 )
 Number of active  orbitals:        5 (   2   0   0   1   0   1   1   0 )
 Number of external orbitals:     183 (  37  25  25  20  25  20  20  11 )

 State symmetry 1

 Number of electrons:     5    Spin symmetry=Sextet    Space symmetry=1
 Number of states:        1
 Number of CSFs:          1   (1 determinants, 1 intermediate states)

 Molecular orbitals read from record     4202.2  Type=RHF/CANONICAL (state 1.1)
 *** IN SYMMETRY 1 ORBITAL  1 SYMMETRY CONTAMINATION OF 0.611D-03 HAS BEEN REMOVED
 *** IN SYMMETRY 1 ORBITAL  2 SYMMETRY CONTAMINATION OF 0.152D-01 HAS BEEN REMOVED
 *** IN SYMMETRY 1 ORBITAL  3 SYMMETRY CONTAMINATION OF 0.112D-01 HAS BEEN REMOVED
 *** IN SYMMETRY 1 ORBITAL  4 SYMMETRY CONTAMINATION OF 0.414D-03 HAS BEEN REMOVED
 *** IN SYMMETRY 1 ORBITAL  5 SYMMETRY CONTAMINATION OF 0.262D+00 HAS BEEN REMOVED
 *** IN SYMMETRY 1 ORBITAL  6 SYMMETRY CONTAMINATION OF 0.231D-01 HAS BEEN REMOVED
 *** IN SYMMETRY 1 ORBITAL  7 SYMMETRY CONTAMINATION OF 0.167D-02 HAS BEEN REMOVED
 *** IN SYMMETRY 1 ORBITAL  8 SYMMETRY CONTAMINATION OF 0.305D+00 HAS BEEN REMOVED

 EXTRA SYMMETRY OF MOS IN SYMMETRY 1:   1 1 1 3 2 1 3 2 1 2   3 1 2 3 1 2 3 4 6 5   2 3 4 6 1 5 1 2 310   9 8 7 4 6 5 2 3 4 6
                                        510 9 8 7
 *** IN SYMMETRY 2 ORBITAL  1 SYMMETRY CONTAMINATION OF 0.434D-03 HAS BEEN REMOVED
 *** IN SYMMETRY 2 ORBITAL  2 SYMMETRY CONTAMINATION OF 0.268D-02 HAS BEEN REMOVED
 *** IN SYMMETRY 2 ORBITAL  3 SYMMETRY CONTAMINATION OF 0.250D+00 HAS BEEN REMOVED
 EXTRA SYMMETRY OF MOS IN SYMMETRY 2:   1 1 3 1 1 2 1 1 3 2   1 2 3 4 5 6 1 2 3 4   5 6 1 2 3 4 5 6
 *** IN SYMMETRY 3 ORBITAL  1 SYMMETRY CONTAMINATION OF 0.434D-03 HAS BEEN REMOVED
 *** IN SYMMETRY 3 ORBITAL  2 SYMMETRY CONTAMINATION OF 0.268D-02 HAS BEEN REMOVED
 *** IN SYMMETRY 3 ORBITAL  3 SYMMETRY CONTAMINATION OF 0.250D+00 HAS BEEN REMOVED
 EXTRA SYMMETRY OF MOS IN SYMMETRY 3:   1 1 3 1 1 2 1 1 3 2   1 2 3 4 5 6 1 2 3 4   5 6 1 2 3 4 5 6
 *** IN SYMMETRY 4 ORBITAL  1 SYMMETRY CONTAMINATION OF 0.239D-03 HAS BEEN REMOVED
 *** IN SYMMETRY 4 ORBITAL  2 SYMMETRY CONTAMINATION OF 0.115D-02 HAS BEEN REMOVED
 EXTRA SYMMETRY OF MOS IN SYMMETRY 4:   1 1 1 1 1 2 3 1 2 3   1 4 6 5 2 3 1 2 3 4   6 5
 *** IN SYMMETRY 5 ORBITAL  1 SYMMETRY CONTAMINATION OF 0.492D-03 HAS BEEN REMOVED
 *** IN SYMMETRY 5 ORBITAL  2 SYMMETRY CONTAMINATION OF 0.258D-02 HAS BEEN REMOVED
 *** IN SYMMETRY 5 ORBITAL  3 SYMMETRY CONTAMINATION OF 0.941D-02 HAS BEEN REMOVED
 EXTRA SYMMETRY OF MOS IN SYMMETRY 5:   1 1 3 1 1 2 1 1 3 2   1 3 2 6 4 5 1 2 3 6   4 5 1 2 3 6 4 5
 *** IN SYMMETRY 6 ORBITAL  1 SYMMETRY CONTAMINATION OF 0.527D-03 HAS BEEN REMOVED
 *** IN SYMMETRY 6 ORBITAL  2 SYMMETRY CONTAMINATION OF 0.217D-02 HAS BEEN REMOVED
 EXTRA SYMMETRY OF MOS IN SYMMETRY 6:   1 1 1 1 1 2 3 1 2 3   1 6 5 4 2 3 1 2 3 6   5 4
 *** IN SYMMETRY 7 ORBITAL  1 SYMMETRY CONTAMINATION OF 0.527D-03 HAS BEEN REMOVED
 *** IN SYMMETRY 7 ORBITAL  2 SYMMETRY CONTAMINATION OF 0.217D-02 HAS BEEN REMOVED
 EXTRA SYMMETRY OF MOS IN SYMMETRY 7:   1 1 1 1 1 2 3 1 2 3   1 6 5 4 2 3 1 2 3 6   5 4
 EXTRA SYMMETRY OF MOS IN SYMMETRY 8:   1 1 1 3 2 1 3 2 1 3   2

 Wavefunction dump at record             5202.2

 Convergence thresholds  0.10E-01 (gradient)  0.10E-05 (energy)  0.10E-02 (step length)

 Number of orbital rotations:      656   (    15 Core/Active    507 Core/Virtual   0 Active/Active    134 Active/Virtual)
 Total number of variables:        657


 ITER. MIC  NCI  NEG     ENERGY(VAR)     ENERGY(PROJ)   ENERGY CHANGE     GRAD(0)  GRAD(ORB)   GRAD(CI)     STEP       TIME

   1   17    7    0   -1331.03761700   -1331.03816242   -0.00054541    0.04508799 0.00000000 0.00000000  0.21D-01      0.53
   2   16    5    0   -1331.03816350   -1331.03816351   -0.00000001    0.00016435 0.00000000 0.00000000  0.11D-03      0.96

 ** WVFN ****  CONVERGENCE REACHED, FINAL GRADIENT:  0.12D-07


 First order charge density matrix for state 1.1 saved on record  5202.2 (density set 1)

 Results for state 1.1
 =====================

 !MCSCF STATE 1.1 Energy            -1331.038163521209
   --><property name="Energy" method="MCSCF" principal="true" stateSymmetry="1" stateNumber="1"
     value="-1331.03816352121"/><!--
 Nuclear energy                         0.00000000
 Kinetic energy                       423.87136117
 One electron energy                -2106.45864296
 Two electron energy                  775.42047944
 Virial ratio                           4.14019367

 !MCSCF STATE 1.1 Dipole moment         0.00000000     0.00000000     0.00000000
 Dipole moment /Debye                   0.00000000     0.00000000     0.00000000
   --><property name="Dipole moment" method="MCSCF" principal="true" stateSymmetry="1"
     stateNumber="1" value="0.0 0.0 0.0"/><!--


 *** WARNING (BLKOP):    4 NON ZERO ELEMENTS IN SYM  2

 *** WARNING (BLKOP):    4 NON ZERO ELEMENTS IN SYM  3

 NATURAL ORBITALS
 ================

   Orb     Occ        Energy       Coefficients

                                   1 1s      1 1s      1 1s      1 1s      1 1s      1 1s      1 1s      1 1s      1 1s      1 3d0
                                   1 3d2+    1 3d0     1 3d2+    1 3d0     1 3d2+    1 3d0     1 3d2+    1 3d0     1 3d2+    1 3d0
                                   1 3d2+    1 3d0     1 3d2+    1 3d0     1 3d2+    1 5g0     1 5g4+    1 5g2+    1 5g0     1 5g4+
                                   1 5g2+    1 5g0     1 5g4+    1 5g2+    1 5g0     1 5g4+    1 5g2+    1 7i6+    1 7i4+    1 7i2+
                                   1 7i0     1 7i6+    1 7i4+    1 7i2+    1 7i0

   1.1  2.00000   -88.372041    17.994538  3.067705  6.474340  5.857614 -3.703216 -0.999393  0.713005 46.565479-60.842330 -0.000000
                                -0.000000  0.000000  0.000000 -0.000000 -0.000000  0.000000  0.000000 -0.000000 -0.000000 -0.000000
                                -0.000000  0.000000  0.000000  0.000000  0.000000  0.000000  0.000000  0.000000  0.000000  0.000000
                                 0.000000  0.000000  0.000000  0.000000  0.000000  0.000000  0.000000  0.000000  0.000000  0.000000
                                 0.000000  0.000000  0.000000  0.000000  0.000000

   2.1  2.00000   -13.371248   -22.852230 -2.730169 -7.376956 -6.338081  4.262506  0.998326 -1.483763-50.447469 70.254645 -0.000000
                                -0.000000  0.000000  0.000000 -0.000000 -0.000000  0.000000  0.000000 -0.000000 -0.000000 -0.000000
                                -0.000000  0.000000  0.000000  0.000000  0.000000  0.000000  0.000000  0.000000  0.000000  0.000000
                                 0.000000  0.000000  0.000000  0.000000  0.000000  0.000000  0.000000  0.000000  0.000000  0.000000
                                 0.000000  0.000000  0.000000  0.000000  0.000000

   3.1  2.00000   -11.145715    -0.000000 -0.000000 -0.000000 -0.000000  0.000000  0.000000 -0.000000 -0.000000  0.000000 -8.246806
                                 0.000000  6.283933 -0.000000 -4.953224  0.000000  2.918348 -0.000000 -0.868710  0.000000 -0.111098
                                 0.000000  2.850878 -0.000000 10.342720 -0.000000  0.000000  0.000000  0.000000  0.000000  0.000000
                                 0.000000  0.000000  0.000000  0.000000  0.000000  0.000000  0.000000  0.000000  0.000000  0.000000
                                 0.000000  0.000000  0.000000  0.000000  0.000000

   4.1  2.00000   -11.025505    -0.000000 -0.000000 -0.000000 -0.000000  0.000000  0.000000 -0.000000 -0.000000  0.000000  0.000000
                                -8.188486  0.000000  6.246085  0.000000 -4.915677  0.000000  2.900464  0.000000 -0.860546  0.000000
                                -0.117356  0.000000  2.832575  0.000000 10.283147  0.000000  0.000000  0.000000  0.000000  0.000000
                                 0.000000  0.000000  0.000000  0.000000  0.000000  0.000000  0.000000  0.000000  0.000000  0.000000
                                 0.000000  0.000000  0.000000  0.000000  0.000000

   5.1  2.00000    -2.442179    16.939139  0.718874  5.544970  3.943326 -3.131961 -0.444755  2.400631 34.462333-48.466351 -0.000000
                                -0.000000  0.000000  0.000000 -0.000000 -0.000000  0.000000  0.000000 -0.000000 -0.000000 -0.000000
                                -0.000000  0.000000  0.000000  0.000000  0.000000  0.000000  0.000000  0.000000  0.000000  0.000000
                                 0.000000  0.000000  0.000000  0.000000  0.000000  0.000000  0.000000  0.000000  0.000000  0.000000
                                 0.000000  0.000000  0.000000  0.000000  0.000000

   6.1  2.00000    -0.248505     5.043173 -1.697276  2.162909  0.974035 -1.199025 -0.045653  1.904179 11.121281-15.766491  0.000000
                                 0.000000 -0.000000 -0.000000  0.000000  0.000000 -0.000000 -0.000000  0.000000  0.000000  0.000000
                                 0.000000 -0.000000 -0.000000 -0.000000 -0.000000  0.000000  0.000000  0.000000  0.000000  0.000000
                                 0.000000  0.000000  0.000000  0.000000  0.000000  0.000000  0.000000  0.000000  0.000000  0.000000
                                 0.000000  0.000000  0.000000  0.000000  0.000000

   7.1  1.00000    -0.355323     0.000000  0.000000  0.000000  0.000000 -0.000000 -0.000000  0.000000  0.000000 -0.000000  4.127772
                                -0.000000 -2.912371  0.000000  1.801336 -0.000000 -1.211128  0.000000  0.260588 -0.000000  0.334368
                                -0.000000 -0.998155  0.000000 -4.054080  0.000000  0.000000  0.000000  0.000000  0.000000  0.000000
                                 0.000000  0.000000  0.000000  0.000000  0.000000  0.000000  0.000000  0.000000  0.000000  0.000000
                                 0.000000  0.000000  0.000000  0.000000  0.000000

   8.1  1.00000    -0.267848     0.000000  0.000000  0.000000  0.000000 -0.000000 -0.000000  0.000000  0.000000 -0.000000 -0.000000
                                 4.087858  0.000000 -2.853490 -0.000000  1.738033  0.000000 -1.201383 -0.000000  0.250100 -0.000000
                                 0.360117  0.000000 -0.974431  0.000000 -4.007971  0.000000  0.000000  0.000000  0.000000  0.000000
                                 0.000000  0.000000  0.000000  0.000000  0.000000  0.000000  0.000000  0.000000  0.000000  0.000000
                                 0.000000  0.000000  0.000000  0.000000  0.000000

                                   1 2px     1 2px     1 2px     1 2px     1 2px     1 2px     1 2px     1 2px     1 2px     1 4f1+
                                   1 4f3+    1 4f1+    1 4f3+    1 4f1+    1 4f3+    1 4f1+    1 4f3+    1 4f1+    1 4f3+    1 6h1+
                                   1 6h3+    1 6h5+    1 6h1+    1 6h3+    1 6h5+    1 6h1+    1 6h3+    1 6h5+

   1.2  2.00000   -34.075193    -7.787971 -0.711846  2.471687  1.881002  1.342685 -0.314089  0.062286 -1.602957 10.007630  0.000000
                                 0.000000  0.000000  0.000000  0.000000  0.000000  0.000000  0.000000  0.000000  0.000000  0.000000
                                 0.000000  0.000000  0.000000  0.000000  0.000000  0.000000  0.000000  0.000000

   2.2  2.00000    -4.063419     4.952151  0.333295 -1.418109 -1.152761 -0.791742  0.181600 -0.024423  1.499793 -5.571256  0.000000
                                 0.000000  0.000000  0.000000  0.000000  0.000000  0.000000  0.000000  0.000000  0.000000  0.000000
                                 0.000000  0.000000  0.000000  0.000000  0.000000  0.000000  0.000000  0.000000

   3.2  2.00000    -0.437603    -0.000000 -0.000000  0.000000  0.000000  0.000000 -0.000000  0.000000 -0.000000  0.000000  0.000000
                                 0.565480  0.000000  0.178857  0.000000  0.425927  0.000000  0.068440  0.000000  0.090455  0.000000
                                 0.000000  0.000000  0.000000  0.000000  0.000000  0.000000  0.000000  0.000000

                                   1 2py     1 2py     1 2py     1 2py     1 2py     1 2py     1 2py     1 2py     1 2py     1 4f1-
                                   1 4f3-    1 4f1-    1 4f3-    1 4f1-    1 4f3-    1 4f1-    1 4f3-    1 4f1-    1 4f3-    1 6h1-
                                   1 6h3-    1 6h5-    1 6h1-    1 6h3-    1 6h5-    1 6h1-    1 6h3-    1 6h5-

   1.3  2.00000   -34.075193    -7.787971 -0.711846  2.471687  1.881002  1.342685 -0.314089  0.062286 -1.602957 10.007630  0.000000
                                 0.000000  0.000000  0.000000  0.000000  0.000000  0.000000  0.000000  0.000000  0.000000  0.000000
                                 0.000000  0.000000  0.000000  0.000000  0.000000  0.000000  0.000000  0.000000

   2.3  2.00000    -4.063419     4.952151  0.333295 -1.418109 -1.152761 -0.791742  0.181600 -0.024423  1.499793 -5.571256  0.000000
                                 0.000000  0.000000  0.000000  0.000000  0.000000  0.000000  0.000000  0.000000  0.000000  0.000000
                                 0.000000  0.000000  0.000000  0.000000  0.000000  0.000000  0.000000  0.000000

   3.3  2.00000    -0.437603    -0.000000 -0.000000  0.000000  0.000000  0.000000 -0.000000  0.000000 -0.000000  0.000000  0.000000
                                 0.565480  0.000000  0.178857  0.000000  0.425927  0.000000  0.068440  0.000000  0.090455  0.000000
                                 0.000000  0.000000  0.000000  0.000000  0.000000  0.000000  0.000000  0.000000

                                   1 3d2-    1 3d2-    1 3d2-    1 3d2-    1 3d2-    1 3d2-    1 3d2-    1 3d2-    1 5g2-    1 5g4-
                                   1 5g2-    1 5g4-    1 5g2-    1 5g4-    1 5g2-    1 5g4-    1 7i2-    1 7i6-    1 7i4-    1 7i2-
                                   1 7i6-    1 7i4-

   1.4  2.00000   -10.991149    -8.214774  6.265962 -4.931262  2.909614 -0.863269 -0.117705  2.839190 10.313731  0.000000  0.000000
                                 0.000000  0.000000  0.000000  0.000000  0.000000  0.000000  0.000000  0.000000  0.000000  0.000000
                                 0.000000  0.000000

   2.4  1.00000    -0.261951     4.053182 -2.821053  1.717860 -1.187726  0.247760  0.355592 -0.964808 -3.961498  0.000000  0.000000
                                 0.000000  0.000000  0.000000  0.000000  0.000000  0.000000  0.000000  0.000000  0.000000  0.000000
                                 0.000000  0.000000

                                   1 2pz     1 2pz     1 2pz     1 2pz     1 2pz     1 2pz     1 2pz     1 2pz     1 2pz     1 4f0
                                   1 4f2+    1 4f0     1 4f2+    1 4f0     1 4f2+    1 4f0     1 4f2+    1 4f0     1 4f2+    1 6h2+
                                   1 6h4+    1 6h0     1 6h2+    1 6h4+    1 6h0     1 6h2+    1 6h4+    1 6h0

   1.5  2.00000   -34.333021    -7.782609 -0.704757  2.464056  1.881347  1.341688 -0.314699  0.061698 -1.599039  9.998275  0.000000
                                 0.000000  0.000000  0.000000  0.000000  0.000000  0.000000  0.000000  0.000000  0.000000  0.000000
                                 0.000000  0.000000  0.000000  0.000000  0.000000  0.000000  0.000000  0.000000

   2.5  2.00000    -4.318368     4.984329  0.318597 -1.418062 -1.172369 -0.802631  0.187444 -0.023477  1.514669 -5.623613  0.000000
                                 0.000000  0.000000  0.000000  0.000000  0.000000  0.000000  0.000000  0.000000  0.000000  0.000000
                                 0.000000  0.000000  0.000000  0.000000  0.000000  0.000000  0.000000  0.000000

   3.5  2.00000    -0.597816    -0.000000 -0.000000  0.000000  0.000000  0.000000 -0.000000  0.000000 -0.000000  0.000000  0.000000
                                 0.580099  0.000000  0.184303  0.000000  0.422480  0.000000  0.048499  0.000000  0.068857  0.000000
                                 0.000000  0.000000  0.000000  0.000000  0.000000  0.000000  0.000000  0.000000

                                   1 3d1+    1 3d1+    1 3d1+    1 3d1+    1 3d1+    1 3d1+    1 3d1+    1 3d1+    1 5g1+    1 5g3+
                                   1 5g1+    1 5g3+    1 5g1+    1 5g3+    1 5g1+    1 5g3+    1 7i5+    1 7i3+    1 7i1+    1 7i5+
                                   1 7i3+    1 7i1+

   1.6  2.00000   -11.116678    -8.231591  6.273971 -4.943415  2.913629 -0.866587 -0.112666  2.846146 10.327029  0.000000  0.000000
                                 0.000000  0.000000  0.000000  0.000000  0.000000  0.000000  0.000000  0.000000  0.000000  0.000000
                                 0.000000  0.000000

   2.6  1.00000    -0.332248     4.119221 -2.899541  1.786059 -1.209026  0.258056  0.341028 -0.992580 -4.044386  0.000000  0.000000
                                 0.000000  0.000000  0.000000  0.000000  0.000000  0.000000  0.000000  0.000000  0.000000  0.000000
                                 0.000000  0.000000

                                   1 3d1-    1 3d1-    1 3d1-    1 3d1-    1 3d1-    1 3d1-    1 3d1-    1 3d1-    1 5g1-    1 5g3-
                                   1 5g1-    1 5g3-    1 5g1-    1 5g3-    1 5g1-    1 5g3-    1 7i5-    1 7i3-    1 7i1-    1 7i5-
                                   1 7i3-    1 7i1-

   1.7  2.00000   -11.116678    -8.231591  6.273971 -4.943415  2.913629 -0.866587 -0.112666  2.846146 10.327029  0.000000  0.000000
                                 0.000000  0.000000  0.000000  0.000000  0.000000  0.000000  0.000000  0.000000  0.000000  0.000000
                                 0.000000  0.000000

   2.7  1.00000    -0.332248     4.119221 -2.899541  1.786059 -1.209026  0.258056  0.341028 -0.992580 -4.044386  0.000000  0.000000
                                 0.000000  0.000000  0.000000  0.000000  0.000000  0.000000  0.000000  0.000000  0.000000  0.000000
                                 0.000000  0.000000


 EXTRA SYMMETRY OF MOS IN SYMMETRY 1:   1 1 2 3 1 1 2 3 1 2   3 1 2 3 1 2 3 4 6 5   2 3 4 1 6 5 1 2 310   9 8 7 4 6 5 2 3 4 6
                                        510 9 8 7
 EXTRA SYMMETRY OF MOS IN SYMMETRY 2:   1 1 3 1 1 2 1 1 2 3   1 2 3 4 5 6 1 2 3 4   5 6 1 2 3 4 5 6
 EXTRA SYMMETRY OF MOS IN SYMMETRY 3:   1 1 3 1 1 2 1 1 2 3   1 2 3 4 5 6 1 2 3 4   5 6 1 2 3 4 5 6
 EXTRA SYMMETRY OF MOS IN SYMMETRY 5:   1 1 3 1 1 2 1 1 3 2   1 2 3 6 4 5 1 2 3 6   4 5 1 2 3 6 4 5

 Natural orbital dump at molpro section  5202.2    (Orbital set 2)


 CI vector
 =========

 aa a a a          1.0000000

 TOTAL ENERGIES                     -1331.03816351



 **********************************************************************************************************************************
 DATASETS  * FILE   NREC   LENGTH (MB)   RECORD NAMES
              1      23       38.55       500      610      700      900      950      970     1000      129      960     1700
                                          VAR    BASINP    GEOM    SYMINP    ZMAT    AOBASIS   BASIS     P2S    ABASIS    OPER
                                         1101     1401     1411     1412     1650     1100     1400     1410     1200     1210
                                          SR      EKINR    POTR     PVPR    MOLCAS      S      EKIN      POT      H0       H01
                                         1080     1600     1380
                                         AOSYM     SMH     JKOP

              2       6        8.27       200      700     1000      520     4202     5202
                                        OPTIONS   GEOM     BASIS   MCVARS     RHF     MCSCF

 PROGRAMS   *        TOTAL     MULTI       POP       RHF       INT
 CPU TIMES  *         6.80      1.60      0.00      0.83      3.97
 REAL TIME  *         8.34 SEC
 DISK USED  *       753.12 MB
 SF USED    *        72.77 MB
 GA USED    *         0.00 MB       (max)       0.00 MB       (current)
 **********************************************************************************************************************************
   -->
   <time start="19:15:49" end="19:15:51" cpu="1.61" system="0.18" real="1.83"/>
   <storage units="megabyte" memory="8001.84" sf="72.77" df="296.63" eaf="456.49" ga="0.0"/>
  </jobstep><!--
  --><jobstep command="RHF-SCF" commandset="SCFPRO">
   <!--


 PROGRAM * RHF-SCF (OPEN SHELL)       Authors: W. Meyer, H.-J. Werner


 NUMBER OF ELECTRONS:      23+   18-    SPACE SYMMETRY=1    SPIN SYMMETRY: Sextet
 CONVERGENCE THRESHOLDS:    1.00E-05 (Density)    1.00E-07 (Energy)
 MAX. NUMBER OF ITERATIONS:        0
 INTERPOLATION TYPE:            DIIS
 INTERPOLATION STEPS:              2 (START)      1 (STEP)
 LEVEL SHIFTS:                 -0.60 (CLOSED) -0.30 (OPEN)

 Number of closed-shell orbitals:   18 (   6   3   3   1   3   1   1   0 )
 Number of open-shell orbitals:      5 (   2   0   0   1   0   1   1   0 )



 Extra symmetries of mos in symmetry 1:   1   1   1   3   2   1   3   2
 Molecular orbitals read from record     5202.2  Type=MCSCF/NATURAL (state 1.1)

 Molecular orbital dump at record        2103.2

 ITERATION    DDIFF          GRAD             ENERGY        2-EL.EN.            DIPOLE MOMENTS         DIIS   ORB.
    1      0.000D+00      0.000D+00     -1331.03816363   1550.840959    0.00000    0.00000    0.00000    0    start

 Final alpha occupancy:   8   3   3   2   3   2   2   0
 Final beta  occupancy:   6   3   3   1   3   1   1   0

 !RHF STATE 1.1 Energy              -1331.038163627260
   --><property name="Energy" method="RHF" principal="true" stateSymmetry="1" stateNumber="1"
     value="-1331.03816362726"/><!--
 Nuclear energy                         0.00000000
 One-electron energy                -2106.45864296
 Two-electron energy                  775.42047933
 Virial quotient                       -3.14019367
 !RHF STATE 1.1 Dipole moment           0.00000000     0.00000000     0.00000000
 Dipole moment /Debye                   0.00000000     0.00000000     0.00000000
   --><property name="Dipole moment" method="RHF" principal="true" stateSymmetry="1"
     stateNumber="1" value="0.0 0.0 0.0"/><!--

 Orbital energies:

         1.1          2.1          3.1          4.1          5.1          6.1          7.1          8.1          9.1         10.1
    -88.372041   -13.371248    -2.442179   -11.025505   -11.145715    -0.248505    -0.267848    -0.355323     0.036959     0.088073

         1.2          2.2          3.2          4.2          5.2
    -34.075193    -4.063419    -0.437603    -0.057291     0.040492

         1.3          2.3          3.3          4.3          5.3
    -34.075193    -4.063419    -0.437603    -0.057291     0.040492

         1.4          2.4          3.4          4.4
    -10.991149    -0.261951     0.092609     0.282066

         1.5          2.5          3.5          4.5          5.5
    -34.333021    -4.318368    -0.597816    -0.106548     0.035808

         1.6          2.6          3.6          4.6
    -11.116678    -0.332248     0.089209     0.269736

         1.7          2.7          3.7          4.7
    -11.116678    -0.332248     0.089209     0.269736

         1.8          2.8
      0.214569     0.529709

 HOMO      2.4    -0.261951 =      -7.1280eV
 LUMO      4.5    -0.106548 =      -2.8993eV
 LUMO-HOMO         0.155403 =       4.2287eV


 **********************************************************************************************************************************
 DATASETS  * FILE   NREC   LENGTH (MB)   RECORD NAMES
              1      23       38.55       500      610      700      900      950      970     1000      129      960     1700
                                          VAR    BASINP    GEOM    SYMINP    ZMAT    AOBASIS   BASIS     P2S    ABASIS    OPER
                                         1101     1401     1411     1412     1650     1100     1400     1410     1200     1210
                                          SR      EKINR    POTR     PVPR    MOLCAS      S      EKIN      POT      H0       H01
                                         1080     1600     1380
                                         AOSYM     SMH     JKOP

              2       7       10.96       200      700     1000      520     4202     5202     2103
                                        OPTIONS   GEOM     BASIS   MCVARS     RHF     MCSCF     RHF

 PROGRAMS   *        TOTAL       RHF     MULTI       POP       RHF       INT
 CPU TIMES  *         6.85      0.04      1.60      0.00      0.83      3.97
 REAL TIME  *         8.41 SEC
 DISK USED  *       753.12 MB
 SF USED    *        72.77 MB
 GA USED    *         0.00 MB       (max)       0.00 MB       (current)
 **********************************************************************************************************************************
   -->
   <time start="19:15:51" end="19:15:51" cpu="0.05" system="0.01" real="0.07"/>
   <storage units="megabyte" memory="8001.84" sf="72.77" df="296.63" eaf="456.49" ga="0.0"/>
  </jobstep><!--
 SETTING SCF(2)         =     -1331.03816363  AU
 SETTING _CC_NORM_MAX   =         2.00000000
  --><jobstep command="RCCSD(T)" commandset="CCSD">
   <!--


 PROGRAM * CCSD (Restricted open-shell coupled cluster)     Authors: C. Hampel, H.-J. Werner, 1991, M. Deegan, P.J. Knowles, 1992


 Convergence thresholds:  THRVAR = 1.00D-08  THRDEN = 1.00D-06

 CCSD(T)     terms to be evaluated (factor= 1.000)


 Number of closed-shell orbitals:  18 (   6   3   3   1   3   1   1   0 )
 Number of active  orbitals:        5 (   2   0   0   1   0   1   1   0 )
 Number of external orbitals:     183 (  37  25  25  20  25  20  20  11 )

 Memory could be reduced to 35.35 Mwords without degradation in triples

 Number of N-1 electron functions:              41
 Number of N-2 electron functions:             820
 Number of singly external CSFs:              1185
 Number of doubly external CSFs:           2757388
 Total number of CSFs:                     2758573

 Molecular orbitals read from record     2103.2  Type=RHF/CANONICAL (state 1.1)

 Integral transformation finished. Total CPU:   1.16 sec, npass=  1  Memory used:   8.85 MW

 Starting RMP2 calculation

 Wavefunction is spin-projected

 ITER.      SQ.NORM     CORR.ENERGY   TOTAL ENERGY   ENERGY CHANGE        DEN1      VAR(S)    VAR(P)  DIIS     TIME
   1      1.34966971    -1.60602106 -1332.64418458    -1.60602106    -0.00776710  0.47D-03  0.75D-02  1  1     2.30
   2      1.37502543    -1.61480907 -1332.65297260    -0.00878801    -0.00031451  0.55D-04  0.46D-03  2  2     2.72
   3      1.38274371    -1.61640284 -1332.65456636    -0.00159377    -0.00001287  0.84D-05  0.17D-04  3  3     3.16
   4      1.38422872    -1.61658855 -1332.65475207    -0.00018571    -0.00000043  0.66D-06  0.22D-06  4  4     3.68
   5      1.38435378    -1.61659928 -1332.65476281    -0.00001073    -0.00000003  0.57D-07  0.88D-08  5  5     4.05
   6      1.38435510    -1.61659853 -1332.65476205     0.00000075    -0.00000000  0.13D-08  0.12D-08  6  6     4.61

 Norm of t1 vector:      0.17039992      S-energy:    -0.08725763      T1 diagnostic:  0.01710535
 Norm of t2 vector:      0.59608637      P-energy:    -1.52934090
                                         Alpha-Beta:  -0.97841721
                                         Alpha-Alpha: -0.34425416
                                         Beta-Beta:   -0.20666953

 Singles amplitudes (print threshold =  0.500E-01):

         I         SYM. A    A   T(IA) [Beta-Beta]

         3         1         2      0.05367868

 Spin contamination <S**2-Sz**2-Sz>     0.00000000
  Reference energy                  -1331.038163522018
   --><property name="energy" method="Reference" stateSymmetry="1" stateNumber="1"
     value="-1331.03816352202"/><!--
  RHF-RMP2 correlation energy          -1.616598532085
   --><property name="energy" method="RHF-RMP2 correlation" stateSymmetry="1" stateNumber="1"
     value="-1.61659853208504"/><!--
 !RHF-RMP2 energy                   -1332.654762054103
   --><property name="energy" method="RHF-RMP2" principal="true" stateSymmetry="1"
     stateNumber="1" value="-1332.6547620541"/><!--
 (NB above energy spin projected)

 Starting RCCSD calculation

 ITER.      SQ.NORM     CORR.ENERGY   TOTAL ENERGY   ENERGY CHANGE        DEN1      VAR(S)    VAR(P)  DIIS     TIME
   1      1.31096921    -1.39129260 -1332.42945612    -1.39129260    -0.08459273  0.11D-01  0.19D-01  0  0     7.29
   2      1.43221082    -1.47133409 -1332.50949761    -0.08004149    -0.01787321  0.35D-02  0.12D-01  1  1     9.50
   3      1.50299177    -1.47077867 -1332.50894219     0.00055542    -0.01012531  0.36D-02  0.74D-02  2  2    11.70
   4      1.67134423    -1.48945503 -1332.52761855    -0.01867635    -0.00804108  0.45D-02  0.47D-02  3  3    13.87
   5      1.61495103    -1.48550499 -1332.52366851     0.00395004    -0.00814551  0.37D-02  0.54D-02  4  4    16.06
   6      1.56311748    -1.48211609 -1332.52027961     0.00338889    -0.00612144  0.92D-03  0.51D-02  5  5    18.28
   7      1.72688658    -1.49515392 -1332.53331744    -0.01303783    -0.00294786  0.39D-03  0.25D-02  6  6    20.49
   8      1.91451147    -1.50881738 -1332.54698090    -0.01366346    -0.00182752  0.46D-03  0.16D-02  6  1    22.74
   9      2.07482797    -1.51386505 -1332.55202857    -0.00504766    -0.00105316  0.75D-03  0.72D-03  6  2    25.00
  10      2.11642222    -1.51565079 -1332.55381431    -0.00178574    -0.00098860  0.94D-03  0.58D-03  6  6    27.22
  11      2.11819976    -1.51564346 -1332.55380699     0.00000733    -0.00098940  0.95D-03  0.57D-03  6  5    29.47
  12      2.11261642    -1.51645091 -1332.55461443    -0.00080745    -0.00079971  0.50D-03  0.57D-03  6  4    31.70
  13      2.09506480    -1.51642765 -1332.55459117     0.00002326    -0.00058447  0.12D-03  0.55D-03  6  3    33.95
  14      2.15364715    -1.51763913 -1332.55580265    -0.00121148    -0.00036186  0.53D-04  0.36D-03  6  1    36.16
  15      2.20337116    -1.51893343 -1332.55709695    -0.00129430    -0.00024028  0.24D-04  0.25D-03  6  2    38.44
  16      2.28856083    -1.52165050 -1332.55981403    -0.00271708    -0.00014972  0.24D-04  0.13D-03  6  6    40.66
  17      2.34592769    -1.52350025 -1332.56166377    -0.00184975    -0.00010545  0.25D-04  0.80D-04  6  1    42.87
  18      2.37665067    -1.52449733 -1332.56266085    -0.00099708    -0.00009273  0.26D-04  0.68D-04  6  6    45.13
  19      2.40856952    -1.52545937 -1332.56362290    -0.00096204    -0.00008658  0.29D-04  0.63D-04  6  2    47.35
  20      2.41335325    -1.52552680 -1332.56369032    -0.00006743    -0.00008451  0.29D-04  0.62D-04  6  3    49.58
  21      2.42520376    -1.52542003 -1332.56358355     0.00010677    -0.00008513  0.36D-04  0.63D-04  6  1    51.80
  22      2.41869657    -1.52550131 -1332.56366483    -0.00008128    -0.00008601  0.37D-04  0.62D-04  6  5    54.06
  23      2.40521989    -1.52525891 -1332.56342243     0.00024240    -0.00008441  0.38D-04  0.60D-04  6  4    56.30
  24      2.41686721    -1.52551456 -1332.56367808    -0.00025565    -0.00008653  0.39D-04  0.62D-04  6  6    58.53
  25      2.41599757    -1.52550474 -1332.56366826     0.00000982    -0.00008618  0.38D-04  0.62D-04  6  2    60.79
  26      2.40399126    -1.52527652 -1332.56344004     0.00022822    -0.00007815  0.32D-04  0.56D-04  6  5    63.02
  27      2.41329823    -1.52552278 -1332.56368630    -0.00024626    -0.00007803  0.32D-04  0.56D-04  6  6    65.24
  28      2.40893673    -1.52528986 -1332.56345338     0.00023292    -0.00007729  0.29D-04  0.56D-04  6  4    67.32
  29      2.42301931    -1.52565168 -1332.56381520    -0.00036182    -0.00007952  0.33D-04  0.58D-04  6  6    69.53
  30      2.38983972    -1.52465413 -1332.56281766     0.00099754    -0.00007596  0.26D-04  0.55D-04  6  4    71.71
  31      2.39258613    -1.52466637 -1332.56282990    -0.00001224    -0.00007512  0.26D-04  0.54D-04  6  6    73.92
  32      2.40787103    -1.52511309 -1332.56327661    -0.00044672    -0.00007529  0.29D-04  0.54D-04  6  4    76.14
  33      2.39795056    -1.52485638 -1332.56301990     0.00025672    -0.00007503  0.26D-04  0.55D-04  6  6    78.35
  34      2.39561561    -1.52481736 -1332.56298088     0.00003901    -0.00007569  0.26D-04  0.55D-04  6  4    80.56
  35      2.42025343    -1.52543254 -1332.56359606    -0.00061518    -0.00007565  0.32D-04  0.54D-04  6  6    82.75
  36      2.40173564    -1.52499081 -1332.56315434     0.00044172    -0.00007386  0.27D-04  0.53D-04  6  3    85.00
  37      2.38764173    -1.52464086 -1332.56280438     0.00034995    -0.00007162  0.23D-04  0.50D-04  6  1    87.22
  38      2.39788667    -1.52495240 -1332.56311592    -0.00031154    -0.00007089  0.25D-04  0.50D-04  6  3    89.46
  39      2.41884108    -1.52567452 -1332.56383804    -0.00072211    -0.00007110  0.31D-04  0.50D-04  6  1    91.67
  40      2.41717958    -1.52542598 -1332.56358951     0.00024853    -0.00007221  0.30D-04  0.50D-04  6  6    93.87
  41      2.40347493    -1.52522407 -1332.56338759     0.00020191    -0.00007335  0.32D-04  0.51D-04  6  4    96.11
  42      2.41313152    -1.52544181 -1332.56360533    -0.00021774    -0.00007241  0.30D-04  0.51D-04  6  6    98.32
  43      2.41944741    -1.52568755 -1332.56385108    -0.00024575    -0.00007022  0.25D-04  0.50D-04  6  2   100.41
  44      2.42240051    -1.52579085 -1332.56395437    -0.00010329    -0.00006734  0.21D-04  0.49D-04  6  5   102.67
  45      2.42741338    -1.52588125 -1332.56404478    -0.00009041    -0.00006541  0.21D-04  0.47D-04  6  6   104.86
  46      2.43343880    -1.52588536 -1332.56404888    -0.00000410    -0.00006066  0.22D-04  0.42D-04  6  4   107.15
  47      2.46033631    -1.52644347 -1332.56460699    -0.00055812    -0.00004866  0.22D-04  0.32D-04  6  2   109.26
  48      2.46865410    -1.52663620 -1332.56479972    -0.00019273    -0.00004296  0.15D-04  0.30D-04  6  1   111.45
  49      2.48557946    -1.52692210 -1332.56508562    -0.00028590    -0.00003957  0.12D-04  0.29D-04  6  3   113.63
  50      2.49790795    -1.52696282 -1332.56512634    -0.00004072    -0.00003730  0.10D-04  0.29D-04  6  1   115.80
  51      2.50513560    -1.52690195 -1332.56506548     0.00006087    -0.00003402  0.98D-05  0.26D-04  6  6   117.96
  52      2.51031437    -1.52660453 -1332.56476805     0.00029743    -0.00003162  0.96D-05  0.24D-04  6  5   120.12
  53      2.50868573    -1.52633318 -1332.56449670     0.00027135    -0.00003058  0.10D-04  0.23D-04  6  1   122.29
  54      2.51547998    -1.52657640 -1332.56473993    -0.00024323    -0.00003139  0.88D-05  0.25D-04  6  4   124.45
  55      2.53255802    -1.52688245 -1332.56504597    -0.00030604    -0.00003063  0.85D-05  0.25D-04  6  2   126.67
  56      2.54011645    -1.52698292 -1332.56514644    -0.00010047    -0.00002954  0.91D-05  0.25D-04  6  3   128.83
  57      2.53841980    -1.52694502 -1332.56510854     0.00003790    -0.00002905  0.11D-04  0.24D-04  6  1   131.03
  58      2.54072788    -1.52698414 -1332.56514766    -0.00003913    -0.00002924  0.11D-04  0.24D-04  6  3   133.19
  59      2.54465979    -1.52702223 -1332.56518575    -0.00003809    -0.00002927  0.10D-04  0.24D-04  6  6   135.43
  60      2.53777785    -1.52698088 -1332.56514441     0.00004134    -0.00002973  0.97D-05  0.25D-04  6  5   137.63
  61      2.53406954    -1.52700749 -1332.56517101    -0.00002661    -0.00002987  0.95D-05  0.27D-04  6  2   139.86
  62      2.54829466    -1.52717456 -1332.56533809    -0.00016707    -0.00002966  0.10D-04  0.27D-04  6  4   141.99
  63      2.55844769    -1.52723068 -1332.56539420    -0.00005612    -0.00002820  0.93D-05  0.27D-04  6  6   144.14
  64      2.56745450    -1.52723919 -1332.56540272    -0.00000851    -0.00002742  0.12D-04  0.25D-04  6  1   146.34
  65      2.57025964    -1.52724108 -1332.56540461    -0.00000189    -0.00002729  0.12D-04  0.25D-04  6  6   148.50
  66      2.56925052    -1.52723532 -1332.56539884     0.00000577    -0.00002750  0.12D-04  0.25D-04  6  1   150.69
  67      2.56840370    -1.52722408 -1332.56538760     0.00001124    -0.00002727  0.12D-04  0.25D-04  6  6   152.87
  68      2.53888025    -1.52674326 -1332.56490678     0.00048082    -0.00001697  0.77D-05  0.13D-04  6  4   155.05
  69      2.52930727    -1.52661613 -1332.56477965     0.00012713    -0.00001614  0.82D-05  0.12D-04  6  3   157.16
  70      2.53822671    -1.52665840 -1332.56482192    -0.00004227    -0.00001647  0.89D-05  0.12D-04  6  5   159.33
  71      2.52646856    -1.52665181 -1332.56481533     0.00000659    -0.00001719  0.90D-05  0.13D-04  6  2   161.52
  72      2.52207915    -1.52661419 -1332.56477772     0.00003761    -0.00001718  0.95D-05  0.13D-04  6  3   163.62
  73      2.52826359    -1.52659134 -1332.56475486     0.00002286    -0.00001701  0.10D-04  0.12D-04  6  2   165.85
  74      2.52808378    -1.52674529 -1332.56490881    -0.00015395    -0.00001566  0.56D-05  0.13D-04  6  3   168.02
  75      2.53776963    -1.52687871 -1332.56504224    -0.00013343    -0.00001507  0.45D-05  0.13D-04  6  2   170.14
  76      2.53353649    -1.52685362 -1332.56501715     0.00002509    -0.00001429  0.48D-05  0.12D-04  6  5   172.33
  77      2.53754969    -1.52684101 -1332.56500453     0.00001261    -0.00001338  0.56D-05  0.10D-04  6  1   174.42
  78      2.53757236    -1.52685392 -1332.56501744    -0.00001291    -0.00001360  0.56D-05  0.11D-04  6  3   176.60
  79      2.54187924    -1.52694796 -1332.56511149    -0.00009404    -0.00001330  0.45D-05  0.11D-04  6  5   178.78
  80      2.54461877    -1.52692560 -1332.56508912     0.00002237    -0.00001256  0.43D-05  0.10D-04  6  2   180.98
  81      2.54574591    -1.52695418 -1332.56511770    -0.00002858    -0.00001225  0.39D-05  0.10D-04  6  1   183.16
  82      2.54600030    -1.52693569 -1332.56509921     0.00001849    -0.00001205  0.38D-05  0.98D-05  6  5   185.31
  83      2.54325769    -1.52688999 -1332.56505351     0.00004570    -0.00001180  0.40D-05  0.95D-05  6  2   187.43
  84      2.53989118    -1.52683836 -1332.56500188     0.00005163    -0.00001166  0.42D-05  0.94D-05  6  5   189.60
  85      2.53889475    -1.52682311 -1332.56498663     0.00001525    -0.00001167  0.44D-05  0.93D-05  6  2   191.69
  86      2.54192330    -1.52686016 -1332.56502368    -0.00003704    -0.00001172  0.41D-05  0.95D-05  6  3   193.89
  87      2.54196376    -1.52686001 -1332.56502353     0.00000015    -0.00001171  0.41D-05  0.95D-05  6  1   196.09
  88      2.54198722    -1.52686451 -1332.56502803    -0.00000450    -0.00001171  0.40D-05  0.95D-05  6  5   198.26
  89      2.54061964    -1.52687833 -1332.56504185    -0.00001382    -0.00001161  0.40D-05  0.95D-05  6  6   200.41
  90      2.53625855    -1.52688227 -1332.56504579    -0.00000393    -0.00001135  0.40D-05  0.93D-05  6  4   202.61
  91      2.52688755    -1.52690129 -1332.56506481    -0.00001903    -0.00001074  0.41D-05  0.87D-05  6  3   204.80
  92      2.52745117    -1.52690962 -1332.56507314    -0.00000833    -0.00001076  0.40D-05  0.87D-05  6  2   207.00
  93      2.52628707    -1.52688027 -1332.56504379     0.00002936    -0.00001072  0.42D-05  0.86D-05  6  3   209.15
  94      2.52606296    -1.52687681 -1332.56504033     0.00000346    -0.00001073  0.42D-05  0.85D-05  6  6   211.29
  95      2.52715628    -1.52689502 -1332.56505854    -0.00001821    -0.00001071  0.40D-05  0.87D-05  6  2   213.47
  96      2.52656741    -1.52690402 -1332.56506754    -0.00000900    -0.00001069  0.38D-05  0.89D-05  6  3   215.69
  97      2.52526071    -1.52687952 -1332.56504304     0.00002450    -0.00001058  0.38D-05  0.88D-05  6  4   217.85
  98      2.52102167    -1.52681076 -1332.56497428     0.00006876    -0.00001041  0.38D-05  0.86D-05  6  5   220.04
  99      2.51317610    -1.52669160 -1332.56485512     0.00011916    -0.00001018  0.40D-05  0.82D-05  6  1   222.26

 Norm of t1 vector:      0.30757857      S-energy:    -0.08477721      T1 diagnostic:  0.03323565
                                                                       D1 diagnostic:  0.14454218
 Norm of t2 vector:      1.19103800      P-energy:    -1.44191440
                                         Alpha-Beta:  -1.00172600
                                         Alpha-Alpha: -0.27634316
                                         Beta-Beta:   -0.16384524

 Singles amplitudes (print threshold =  0.500E-01):

         I         SYM. A    A   T(IA) [Alpha-Alpha]

         6         1         3      0.08609418
         6         1         6      0.10999543
         6         1         7      0.05311733
         6         1         9     -0.05557786
        11         2         3     -0.05193454
        14         3         3      0.05193469

         I         SYM. A    A   T(IA) [Beta-Beta]

         3         1         2      0.06075129
         6         1         2      0.14709935
         6         1         3      0.06331710
         6         1         6      0.07730816

 Doubles amplitudes (print threshold =  0.500E-01):

         I         J         SYM. A    SYM. B    A         B      T(IJ, AB) [Alpha-Alpha]

        14        11         2         3         3         3      0.06498755
        14        11         3         2         3         3     -0.06498755
        19        11         3         8         3         1     -0.05317918
        19        11         8         3         1         3      0.05317918
        19        14         2         8         3         1     -0.05317917
        19        14         8         2         1         3      0.05317917

         I         J         SYM. A    SYM. B    A         B      T(IJ, AB) [Beta-Beta]

        14        11         2         3         3         3      0.06498755
        14        11         3         2         3         3     -0.06498755
        19        11         3         8         3         1     -0.05317918
        19        11         8         3         1         3      0.05317918
        19        14         2         8         3         1     -0.05317917
        19        14         8         2         1         3      0.05317917

         I         J         SYM. A    SYM. B    A         B      T(IJ, AB) [Alpha-Beta]

         6         6         2         2         1         1     -0.16258882
         6         6         3         3         1         1     -0.16258886
         6         6         5         5         1         1     -0.68101191
         7         6         2         2         1         1      0.07312531
         7         6         3         3         1         1     -0.07312534
         8         6         5         5         1         1      0.06359007
        11        11         2         2         3         3     -0.13798831
        11        11         3         3         3         3     -0.15840533
        11        11         5         5         3         3     -0.23680107
        11        11         8         8         1         1     -0.08249014
        14        14         2         2         3         3     -0.15840530
        14        14         3         3         3         3     -0.13798831
        14        14         5         5         3         3     -0.23680110
        14        14         8         8         1         1     -0.08249013
        19        19         2         2         3         3     -0.06009105
        19        19         3         3         3         3     -0.06009106
        19        19         5         5         3         3     -0.12834757
        11         6         2         1         1         1     -0.09971922
        11         6         3         4         1         1      0.08806486
        11         6         5         6         1         1      0.05820928
         6        11         2         1         1         1     -0.08299418
         6        11         3         4         1         1      0.07195834
         7        11         2         1         3         1      0.05881090
         7        11         2         1         3         2     -0.08979626
         7        11         5         6         3         1      0.07988580
         8        11         2         1         3         1     -0.07963206
         8        11         3         4         3         1      0.07699033
        16        14         2         1         3         1      0.05713780
        16        14         2         1         3         2     -0.07876819
        16        14         3         4         3         1      0.05012371
        16        14         5         6         3         1      0.12963824
        14         6         2         4         1         1     -0.08806486
        14         6         3         1         1         1     -0.09971920
        14         6         5         7         1         1     -0.05820919
         6        14         2         4         1         1     -0.07195797
         6        14         3         1         1         1     -0.08299454
         7        14         3         1         3         1     -0.05881101
         7        14         3         1         3         2     -0.08979621
         7        14         5         7         3         1      0.07988577
         8        14         2         4         3         1     -0.07698999
         8        14         3         1         3         1     -0.07963240
        16        11         2         4         3         1     -0.05012388
        16        11         3         1         3         1      0.05713765
        16        11         3         1         3         2      0.07876816
        16        11         5         7         3         1     -0.12963822
        16         6         2         3         1         1      0.07033871
        16         6         3         2         1         1      0.07033869
         7        19         5         1         3         2     -0.05658046
         8        19         2         6         3         1     -0.05772890
         8        19         3         7         3         1      0.05772891
         8        19         5         1         3         1     -0.05077256
        21        11         5         1         3         1      0.08395382
        21        11         8         4         1         1      0.05296749
        23        14         5         1         3         1      0.08395408
        23        14         8         4         1         1     -0.05296718
        19        11         3         8         3         1     -0.07201903
        19        11         5         2         3         3     -0.08682355
        11        19         2         5         3         3     -0.08682355
        11        19         8         3         1         3     -0.07201903
        21         6         5         2         1         1      0.07096326
        19        14         2         8         3         1     -0.07201902
        19        14         5         3         3         3     -0.08682356
        14        19         3         5         3         3     -0.08682356
        14        19         8         2         1         3     -0.07201902
        23         6         5         3         1         1      0.07096328
        21        14         5         4         3         1      0.09944962
        23        11         5         4         3         1     -0.09944987

 ?CONVERGENCE NOT REACHED AFTER MAX. ITERATIONS

 ?ERROR: NO CONVERGENCE. TRIPLES WILL NOT BE DONE. THIS CAN BE AVOIDED USING THE NOCHECK OPTION.

 Spin contamination <S**2-Sz**2-Sz>     0.00000000


  Correlated core orbitals:             1.1       2.1       3.1       4.1       5.1       6.1       1.2       2.2       3.2       1.3
                                        2.3       3.3       1.4       1.5       2.5       3.5       1.6       1.7
  Orbital energies:                   -88.3811  -13.3809   -2.5705  -11.0376  -11.1576   -0.2696  -34.0925   -4.1667   -0.4995  -34.0925
                                       -4.1667   -0.4995  -11.0030  -34.3505   -4.4232   -0.6582  -11.1286  -11.1286

  RCCSD core-core energy               -1.085117408312
   --><property name="core-core energy" method="RCCSD" stateSymmetry="1" stateNumber="1"
     value="-1.08511740831185"/><!--
  RCCSD core-valence energy            -0.382776161300
   --><property name="core-valence energy" method="RCCSD" stateSymmetry="1" stateNumber="1"
     value="-0.382776161299595"/><!--
  RCCSD valence correlation energy     -0.058798032055
   --><property name="valence correlation energy" method="RCCSD" stateSymmetry="1"
     stateNumber="1" value="-0.587980320549647E-01"/><!--


 RESULTS
 =======

  Reference energy                  -1331.038163522018
   --><property name="energy" method="Reference" stateSymmetry="1" stateNumber="1"
     value="-1331.03816352202"/><!--
  RCCSD singles energy                 -0.084777205527
   --><property name="energy" method="RCCSD singles" stateSymmetry="1" stateNumber="1"
     value="-0.847772055273639E-01"/><!--
  RCCSD pair energy                    -1.441914396139
   --><property name="energy" method="RCCSD pair" stateSymmetry="1" stateNumber="1"
     value="-1.44191439613905"/><!--
  RCCSD correlation energy             -1.526691601666
   --><property name="energy" method="RCCSD correlation" stateSymmetry="1" stateNumber="1"
     value="-1.52669160166641"/><!--

 !RHF-RCCSD energy                  -1332.564855123685
   --><property name="energy" method="RHF-RCCSD" principal="true" stateSymmetry="1"
     stateNumber="1" value="-1332.56485512368"/><!--

 Program statistics:

 Available memory in ccsd:               999995438
 Min. memory needed in ccsd:               7787263
 Max. memory used in ccsd:                11327517
 Max. memory used in cckext:               9478881 (99 integral passes)
 Max. memory used in cckint:               8853682 ( 1 integral passes)


 ? Error
 ? No convergence. This error exit can be avoided using the NOCHECK option
 ? The problem occurs in ccsd
   --><error type="Error" location="ccsd"
     message="No convergence. This error exit can be avoided using the NOCHECK option"/><!--
  --></jobstep><!--
  -->
  <input>
  <!--
 --></job><!--
--></molpro>
