<?xml version="1.0"?>
<molpro xmlns="http://www.molpro.net/schema/molpro-output"
  xmlns:xsd="http://www.w3.org/1999/XMLSchema"
  xmlns:cml="http://www.xml-cml.org/schema"
  xmlns:stm="http://www.xml-cml.org/schema"
  xmlns:xhtml="http://www.w3.org/1999/xhtml">
 <!--

 Nodes     nprocs
 nid01324    11
 Number of processes for MPI-2 version of Molpro:   nprocs(total)=   12   nprocs(compute)=   11   nprocs(helper)=    1

 Using customized tuning parameters: mindgm=7; mindgv=16; mindgc=1; mindgr=1; noblas=0; minvec=7
 default implementation of scratch files=sf

 --><job>
  <!--

 Variables initialized (889), CPU time= 0.02 sec
 Commands  initialized (702), CPU time= 0.01 sec, 572 directives.
 Default parameters read. Elapsed time= 0.12 sec

 Checking input...
 Passed
1


                                         ***  PROGRAM SYSTEM MOLPRO  ***
                                       Copyright, TTI GmbH Stuttgart, 2015
                                    Version 2015.1 linked Dec 29 2018 15:55:43


 **********************************************************************************************************************************
 LABEL *   Calculation for Lu atom, singlet and triplet
  64 bit mpp version                                                                     DATE: 16-Apr-23          TIME: 20:28:35
 **********************************************************************************************************************************

 SHA1:             19cd028119e0e09f93f0674bd8af7968d9b3eff6
 **********************************************************************************************************************************
  -->
  <!--

 THRESHOLDS:

 ZERO    =  1.00D-12  ONEINT  =  1.00D-12  TWOINT  =  1.00D-15  PREFAC  =  1.00D-14  LOCALI  =  1.00D-09  EORDER  =  1.00D-04
 ENERGY  =  0.00D+00  ETEST   =  0.00D+00  EDENS   =  0.00D+00  THRDEDEF=  1.00D-06  GRADIENT=  1.00D-02  STEP    =  1.00D-03
 ORBITAL =  1.00D-05  CIVEC   =  1.00D-05  COEFF   =  1.00D-04  PRINTCI =  5.00D-02  PUNCHCI =  9.90D+01  OPTGRAD =  3.00D-04
 OPTENERG=  1.00D-06  OPTSTEP =  3.00D-04  THRGRAD =  1.00D-10  COMPRESS=  1.00D-11  VARMIN  =  1.00D-07  VARMAX  =  1.00D-03
 THRDOUB =  0.00D+00  THRDIV  =  1.00D-05  THRRED  =  1.00D-07  THRPSP  =  1.00D+00  THRDC   =  1.00D-10  THRCS   =  1.00D-10
 THRNRM  =  1.00D-08  THREQ   =  0.00D+00  THRDE   =  1.00D+00  THRREF  =  1.00D-05  SPARFAC =  1.00D+00  THRDLP  =  1.00D-07
 THRDIA  =  1.00D-10  THRDLS  =  1.00D-07  THRGPS  =  0.00D+00  THRKEX  =  0.00D+00  THRDIS  =  2.00D-01  THRVAR  =  1.00D-10
 THRLOC  =  1.00D-06  THRGAP  =  1.00D-06  THRLOCT = -1.00D+00  THRGAPT = -1.00D+00  THRORB  =  1.00D-06  THRMLTP =  0.00D+00
 THRCPQCI=  1.00D-10  KEXTA   =  0.00D+00  THRCOARS=  0.00D+00  SYMTOL  =  1.00D-06  GRADTOL =  1.00D-06  THROVL  =  1.00D-08
 THRORTH =  1.00D-08  GRID    =  1.00D-06  GRIDMAX =  1.00D-03  DTMAX   =  0.00D+00  THROCCDE=  1.00D-01  THROCCDE=  1.00D-01



 THRESHOLDS:

 ZERO    =  1.00D-12  ONEINT  =  1.00D-15  TWOINT  =  1.00D-15  PREFAC  =  1.00D-14  LOCALI  =  1.00D-09  EORDER  =  1.00D-04
 ENERGY  =  0.00D+00  ETEST   =  0.00D+00  EDENS   =  0.00D+00  THRDEDEF=  1.00D-06  GRADIENT=  1.00D-02  STEP    =  1.00D-03
 ORBITAL =  1.00D-05  CIVEC   =  1.00D-05  COEFF   =  1.00D-04  PRINTCI =  5.00D-02  PUNCHCI =  9.90D+01  OPTGRAD =  3.00D-04
 OPTENERG=  1.00D-06  OPTSTEP =  3.00D-04  THRGRAD =  1.00D-10  COMPRESS=  1.00D-11  VARMIN  =  1.00D-07  VARMAX  =  1.00D-03
 THRDOUB =  0.00D+00  THRDIV  =  1.00D-05  THRRED  =  1.00D-07  THRPSP  =  1.00D+00  THRDC   =  1.00D-10  THRCS   =  1.00D-10
 THRNRM  =  1.00D-08  THREQ   =  0.00D+00  THRDE   =  1.00D+00  THRREF  =  1.00D-05  SPARFAC =  1.00D+00  THRDLP  =  1.00D-07
 THRDIA  =  1.00D-10  THRDLS  =  1.00D-07  THRGPS  =  0.00D+00  THRKEX  =  0.00D+00  THRDIS  =  2.00D-01  THRVAR  =  1.00D-10
 THRLOC  =  1.00D-06  THRGAP  =  1.00D-06  THRLOCT = -1.00D+00  THRGAPT = -1.00D+00  THRORB  =  1.00D-06  THRMLTP =  0.00D+00
 THRCPQCI=  1.00D-10  KEXTA   =  0.00D+00  THRCOARS=  0.00D+00  SYMTOL  =  1.00D-06  GRADTOL =  1.00D-06  THROVL  =  1.00D-08
 THRORTH =  1.00D-08  GRID    =  1.00D-06  GRIDMAX =  1.00D-03  DTMAX   =  0.00D+00  THROCCDE=  1.00D-01  THROCCDE=  1.00D-01



Geometry recognized as XYZ


 Variable memory set to 1000000000 words,  buffer space   230000 words

 SETTING BASIS          =    USERDEF

 DO I                   =         4.00000000

 Running procedure=IEF1S2
  --><jobstep command="RHF-SCF" commandset="SCFPRO">
   <!--


 Recomputing integrals since basis changed


 Using spherical harmonics



 PROGRAM * SEWARD (Integral evaluation for generally contracted gaussian basis sets)     Author: Roland Lindh, 1990

 Geometry written to block  1 of record 700

 Orientation using atomic masses
 Molecule type: Atom
 Symmetry elements: X,Y,Z
 Rotational constants:       0.0000000      0.0000000      0.0000000 GHz  (calculated with average atomic masses)

 Point group  D2h


   --><cml:molecule>
    <cml:symmetry pointGroup="D2h"/>
    <cml:atomArray>
     <cml:atom id="a1" elementType="Lu" x3="0.0" y3="0.0" z3="0.0"/>
    </cml:atomArray>
    <cml:bondArray>
    </cml:bondArray>
   </cml:molecule><!--

 ATOMIC COORDINATES

 NR  ATOM    CHARGE       X              Y              Z

   1  LU     11.00    0.000000000    0.000000000    0.000000000

 NUCLEAR CHARGE:                   11
 NUMBER OF PRIMITIVE AOS:         254
 NUMBER OF SYMMETRY AOS:          211
 NUMBER OF CONTRACTIONS:          211   (  53Ag  +  35B3u +  35B2u +  15B1g +  35B1u +  15B2g +  15B3g +   8Au  )
 NUMBER OF CORE ORBITALS:           0   (   0Ag  +   0B3u +   0B2u +   0B1g +   0B1u +   0B2g +   0B3g +   0Au  )
 NUMBER OF VALENCE ORBITALS:       10   (   4Ag  +   1B3u +   1B2u +   1B1g +   1B1u +   1B2g +   1B3g +   0Au  )


 NUCLEAR REPULSION ENERGY    0.00000000

 EXTRA SYMMETRY OF AOS IN SYMMETRY 1:   1 1 1 1 1 1 1 1 1 1   1 1 1 1 1 1 1 1 1 1   1 1 1 1 2 3 2 3 2 3   2 3 2 3 2 3 2 3 2 3
                                        2 3 2 3 2 3 2 3 2 3   4 5 6
 EXTRA SYMMETRY OF AOS IN SYMMETRY 2:   1 1 1 1 1 1 1 1 1 1   1 1 1 1 1 1 1 1 1 2   3 2 3 2 3 2 3 2 3 2   3 2 3 2 3
 EXTRA SYMMETRY OF AOS IN SYMMETRY 3:   1 1 1 1 1 1 1 1 1 1   1 1 1 1 1 1 1 1 1 2   3 2 3 2 3 2 3 2 3 2   3 2 3 2 3
 EXTRA SYMMETRY OF AOS IN SYMMETRY 4:   1 1 1 1 1 1 1 1 1 1   1 1 1 2 3
 EXTRA SYMMETRY OF AOS IN SYMMETRY 5:   1 1 1 1 1 1 1 1 1 1   1 1 1 1 1 1 1 1 1 2   3 2 3 2 3 2 3 2 3 2   3 2 3 2 3
 EXTRA SYMMETRY OF AOS IN SYMMETRY 6:   1 1 1 1 1 1 1 1 1 1   1 1 1 2 3
 EXTRA SYMMETRY OF AOS IN SYMMETRY 7:   1 1 1 1 1 1 1 1 1 1   1 1 1 2 3

 Eigenvalues of metric

         1 0.220E-03 0.699E-03 0.164E-02 0.341E-02 0.636E-02 0.703E-02 0.703E-02 0.107E-01
         2 0.188E-02 0.630E-02 0.160E-01 0.342E-01 0.615E-01 0.619E-01 0.619E-01 0.103E+00
         3 0.188E-02 0.630E-02 0.160E-01 0.342E-01 0.615E-01 0.619E-01 0.619E-01 0.103E+00
         4 0.703E-02 0.255E-01 0.664E-01 0.140E+00 0.237E+00 0.378E+00 0.589E+00 0.842E+00
         5 0.188E-02 0.630E-02 0.160E-01 0.342E-01 0.615E-01 0.619E-01 0.619E-01 0.103E+00
         6 0.703E-02 0.255E-01 0.664E-01 0.140E+00 0.237E+00 0.378E+00 0.589E+00 0.842E+00
         7 0.703E-02 0.255E-01 0.664E-01 0.140E+00 0.237E+00 0.378E+00 0.589E+00 0.842E+00
         8 0.619E-01 0.160E+00 0.321E+00 0.581E+00 0.950E+00 0.142E+01 0.195E+01 0.256E+01


 Contracted 2-electron integrals neglected if value below      1.0D-15
 AO integral compression algorithm  1   Integral accuracy      1.0D-15

     309.330 MB (compressed) written to integral file ( 57.5%)

     Node minimum: 15.466 MB, node maximum: 39.846 MB


 NUMBER OF SORTED TWO-ELECTRON INTEGRALS:    3022985.     BUFFER LENGTH:  32768
 NUMBER OF SEGMENTS:   1  SEGMENT LENGTH:    3022985      RECORD LENGTH: 524288

 Memory used in sort:       3.58 MW

 SORT1 READ    67269079. AND WROTE     2127308. INTEGRALS IN      7 RECORDS. CPU TIME:     1.31 SEC, REAL TIME:     1.37 SEC
 SORT2 READ    23132947. AND WROTE    32824560. INTEGRALS IN   1210 RECORDS. CPU TIME:     0.09 SEC, REAL TIME:     0.28 SEC

 Node minimum:     2944897.  Node maximum:     3022985. integrals

 OPERATOR DM      FOR CENTER  0  COORDINATES:    0.000000    0.000000    0.000000


 **********************************************************************************************************************************
 DATASETS  * FILE   NREC   LENGTH (MB)   RECORD NAMES
              1      19       20.23       500      610      700      900      950      970     1000      129      960     1100
                                          VAR    BASINP    GEOM    SYMINP    ZMAT    AOBASIS   BASIS     P2S    ABASIS      S
                                         1400     1410     1420     1200     1210     1080     1600     1650     1700
                                           T        V       ECP      H0       H01     AOSYM     SMH    MOLCAS    OPER

 PROGRAMS   *        TOTAL       INT
 CPU TIMES  *         9.27      8.83
 REAL TIME  *        10.85 SEC
 DISK USED  *       584.69 MB
 GA USED    *         0.00 MB       (max)       0.00 MB       (current)
 **********************************************************************************************************************************


 PROGRAM * RHF-SCF (OPEN SHELL)       Authors: W. Meyer, H.-J. Werner


 NUMBER OF ELECTRONS:       6+    5-    SPACE SYMMETRY=2    SPIN SYMMETRY: Doublet
 CONVERGENCE THRESHOLDS:    1.00E-05 (Density)    1.00E-07 (Energy)
 MAX. NUMBER OF ITERATIONS:       60
 INTERPOLATION TYPE:            DIIS
 INTERPOLATION STEPS:              2 (START)      1 (STEP)
 LEVEL SHIFTS:                 -0.60 (CLOSED) -0.30 (OPEN)

 Number of closed-shell orbitals:    5 (   2   1   1   0   1   0   0   0 )
 Number of open-shell orbitals:      1 (   0   1   0   0   0   0   0   0 )



 Extra symmetries of mos in symmetry 2:   1   3   2
 Extra symmetries of mos in symmetry 3:   1   3   2
 Extra symmetries of mos in symmetry 5:   1   3   2
 Orbital guess generated from atomic densities. Full valence occupancy:    4   1   1   1   1   1   1   0


 Molecular orbital dump at record        4202.2

 ITERATION    DDIFF          GRAD             ENERGY        2-EL.EN.            DIPOLE MOMENTS         DIIS   ORB.
    1      0.000D+00      0.000D+00       -38.86484781     50.241155    0.00000    0.00000    0.00000    0    start
    2      0.000D+00      0.456D-02       -38.86980981     50.610456    0.00000    0.00000    0.00000    1    diag,B
    3      0.270D-02      0.106D-02       -38.87055003     50.695357    0.00000    0.00000    0.00000    2    diag,B
    4      0.886D-03      0.648D-03       -38.87133929     50.729352    0.00000    0.00000    0.00000    3    diag,B
    5      0.114D-02      0.623D-03       -38.87209323     50.730871    0.00000    0.00000    0.00000    4    diag,B
    6      0.886D-03      0.804D-03       -38.87319396     50.756129    0.00000    0.00000    0.00000    5    diag,B
    7      0.170D-02      0.107D-02       -38.87168180     50.777178    0.00000    0.00000    0.00000    6    fixocc
    8      0.128D-02      0.347D-03       -38.87180766     50.799630    0.00000    0.00000    0.00000    7    diag,B
    9      0.668D-03      0.215D-03       -38.87184276     50.792702    0.00000    0.00000    0.00000    8    diag,B
   10      0.330D-03      0.192D-03       -38.87186329     50.789422    0.00000    0.00000    0.00000    9    orth
   11      0.211D-03      0.185D-03       -38.87188923     50.785125    0.00000    0.00000    0.00000    9    diag,B
   12      0.216D-03      0.181D-03       -38.87201056     50.779981    0.00000    0.00000    0.00000    9    diag,B
   13      0.919D-03      0.158D-03       -38.87221007     50.775269    0.00000    0.00000    0.00000    9    diag,B
   14      0.165D-02      0.127D-03       -38.87228146     50.776134    0.00000    0.00000    0.00000    9    diag,B
   15      0.658D-03      0.109D-03       -38.87236586     50.784061    0.00000    0.00000    0.00000    9    diag,B
   16      0.131D-02      0.590D-04       -38.87237772     50.787757    0.00000    0.00000    0.00000    9    diag,B
   17      0.479D-03      0.491D-04       -38.87238446     50.787648    0.00000    0.00000    0.00000    9    diag,B
   18      0.841D-04      0.667D-04       -38.87237549     50.789375    0.00000    0.00000    0.00000    9    diag,B
   19      0.238D-03      0.162D-04       -38.87237607     50.789121    0.00000    0.00000    0.00000    9    diag,B
   20      0.115D-03      0.148D-04       -38.87237635     50.788239    0.00000    0.00000    0.00000    9    orth
   21      0.353D-04      0.944D-05       -38.87237656     50.788820    0.00000    0.00000    0.00000    9    diag,B
   22      0.520D-04      0.664D-05       -38.87237666     50.789064    0.00000    0.00000    0.00000    9    diag,B
   23      0.181D-04      0.197D-05       -38.87237667     50.789115    0.00000    0.00000    0.00000    9    diag,B
   24      0.106D-04      0.927D-06       -38.87237667     50.789130    0.00000    0.00000    0.00000    9    diag,B
   25      0.813D-05      0.277D-06       -38.87237667     50.789133    0.00000    0.00000    0.00000    0    orth

 Final alpha occupancy:   2   2   1   0   1   0   0   0
 Final beta  occupancy:   2   1   1   0   1   0   0   0

 !RHF STATE 1.2 Energy                -38.872376672049
   --><property name="Energy" method="RHF" principal="true" stateSymmetry="2" stateNumber="1"
     value="-38.8723766720486"/><!--
 Nuclear energy                         0.00000000
 One-electron energy                  -64.26694317
 Two-electron energy                   25.39456650
 Virial quotient                       -2.99882911
 !RHF STATE 1.2 Dipole moment           0.00000000     0.00000000     0.00000000
 Dipole moment /Debye                   0.00000000     0.00000000     0.00000000
   --><property name="Dipole moment" method="RHF" principal="true" stateSymmetry="2"
     stateNumber="1" value="0.0 0.0 0.0"/><!--

 ELECTRON ORBITALS
 =================


   Orb  Occ    Energy  Couls-En    Coefficients

                                   1 1s      1 1s      1 1s      1 1s      1 1s      1 1s      1 1s      1 1s      1 1s      1 1s
                                   1 1s      1 1s      1 1s      1 1s      1 1s      1 1s      1 1s      1 1s      1 1s      1 1s
                                   1 1s      1 1s      1 1s      1 1s      1 3d0     1 3d2+    1 3d0     1 3d2+    1 3d0     1 3d2+
                                   1 3d0     1 3d2+    1 3d0     1 3d2+    1 3d0     1 3d2+    1 3d0     1 3d2+    1 3d0     1 3d2+
                                   1 3d0     1 3d2+    1 3d0     1 3d2+    1 3d0     1 3d2+    1 3d0     1 3d2+    1 3d0     1 3d2+
                                   1 5g0     1 5g4+    1 5g2+

   1.1   2    -2.5961  -10.5307 -0.000000  0.000000 -0.000000  0.000000 -0.000000  0.000001 -0.000004  0.000014 -0.000038  0.000116
                                -0.000297  0.000806 -0.001793  0.004921 -0.011560  0.025122 -0.056473  0.100629  0.012839 -0.582872
                                 0.677850  0.639555  0.027018 -0.008787  0.000000  0.000000 -0.000000 -0.000000  0.000000  0.000000
                                -0.000001 -0.000000  0.000004  0.000000 -0.000010 -0.000000  0.000022  0.000000 -0.000039 -0.000000
                                 0.000050 -0.000000 -0.000197 -0.000000  0.001423 -0.000000  0.001054  0.000000 -0.000112  0.000000
                                -0.000005  0.000000 -0.000000

   2.1   2    -0.2243   -3.3159  0.000000 -0.000000  0.000000 -0.000000  0.000000 -0.000000  0.000001 -0.000004  0.000011 -0.000034
                                 0.000086 -0.000237  0.000524 -0.001452  0.003408 -0.007510  0.017220 -0.031839 -0.002734  0.201208
                                -0.295096 -0.396548  0.708540  0.471452 -0.000000 -0.000000  0.000001  0.000000 -0.000004 -0.000000
                                 0.000017  0.000000 -0.000055 -0.000000  0.000156  0.000000 -0.000364 -0.000000  0.000987  0.000000
                                -0.002918 -0.000000  0.003709  0.000000  0.025322  0.000001  0.052332  0.000003  0.051118  0.000002
                                 0.000005 -0.000000  0.000000

   3.1   0     0.0829   -3.3146  0.000000 -0.000000  0.000000 -0.000000  0.000000 -0.000000  0.000000 -0.000000  0.000000 -0.000000
                                 0.000000 -0.000000  0.000000 -0.000000  0.000000 -0.000000  0.000000 -0.000000  0.000000 -0.000001
                                 0.000001 -0.000002  0.000021 -0.000032 -0.000000 -0.000001  0.000000  0.000006 -0.000000 -0.000030
                                 0.000000  0.000121 -0.000000 -0.000381  0.000000  0.001102 -0.000000 -0.002583  0.000000  0.007389
                                -0.000002 -0.023155  0.000002  0.027810  0.000016  0.240932  0.000025  0.385150  0.000042  0.622418
                                 0.000000  0.000037  0.000011

   4.1   0     0.0946   -3.2434  0.000000 -0.000000  0.000000 -0.000000  0.000000 -0.000000  0.000000 -0.000000  0.000001 -0.000002
                                 0.000006 -0.000015  0.000034 -0.000088  0.000210 -0.000421  0.000856 -0.001429  0.002612 -0.003802
                                 0.008267 -0.020511  0.175298 -0.266770 -0.000001  0.000000  0.000005 -0.000000 -0.000026  0.000000
                                 0.000106 -0.000000 -0.000333  0.000000  0.000972 -0.000000 -0.002281  0.000000  0.006734 -0.000000
                                -0.021776  0.000002  0.025365 -0.000002  0.245596 -0.000017  0.360346 -0.000025  0.631910 -0.000044
                                 0.000027 -0.000000 -0.000000

                                   1 2px     1 2px     1 2px     1 2px     1 2px     1 2px     1 2px     1 2px     1 2px     1 2px
                                   1 2px     1 2px     1 2px     1 2px     1 2px     1 2px     1 2px     1 2px     1 2px     1 4f1+
                                   1 4f3+    1 4f1+    1 4f3+    1 4f1+    1 4f3+    1 4f1+    1 4f3+    1 4f1+    1 4f3+    1 4f1+
                                   1 4f3+    1 4f1+    1 4f3+    1 4f1+    1 4f3+

   1.2   2    -1.3747   -7.9591  0.000000 -0.000000  0.000000 -0.000001  0.000003 -0.000014  0.000057 -0.000187  0.000612 -0.001559
                                 0.004665 -0.011630  0.039786 -0.103498 -0.072013  0.552211  0.545799  0.063523 -0.010414  0.000000
                                 0.000000 -0.000001 -0.000000  0.000005  0.000000 -0.000013 -0.000000  0.000049  0.000000 -0.000026
                                 0.000000  0.001942  0.000000  0.000959  0.000000

   2.2   +     0.4306   -2.2933 -0.000000  0.000000 -0.000000  0.000000 -0.000000  0.000000 -0.000000  0.000000 -0.000000  0.000000
                                -0.000000  0.000000 -0.000001  0.000001  0.000001 -0.000008 -0.000011  0.000017  0.000037 -0.000000
                                -0.000052  0.000000  0.000324 -0.000000 -0.001315  0.000000  0.004396 -0.000000 -0.011273  0.000001
                                 0.040720 -0.000002 -0.065205  0.000033  1.030251

   3.2   0     0.7066   -1.9979  0.000000 -0.000000  0.000000 -0.000000  0.000000 -0.000000  0.000000 -0.000001  0.000004 -0.000010
                                 0.000025 -0.000057  0.000114 -0.000220  0.000552 -0.001479  0.002595 -0.007103  0.001467 -0.000059
                                 0.000000  0.000366 -0.000000 -0.001490  0.000000  0.004940 -0.000000 -0.012907  0.000000  0.045166
                                -0.000001 -0.086379  0.000003  1.040825 -0.000033

   4.2   0     0.0408   -2.0787 -0.000000  0.000000 -0.000000  0.000000 -0.000000  0.000001 -0.000003  0.000010 -0.000038  0.000084
                                -0.000341  0.000961 -0.005018  0.015487  0.021507 -0.137073 -0.103163  0.012155  1.004547 -0.000000
                                 0.000000  0.000002 -0.000000 -0.000010  0.000000  0.000032 -0.000000 -0.000086  0.000001  0.000247
                                -0.000002 -0.000698  0.000003  0.003191 -0.000049

                                   1 2py     1 2py     1 2py     1 2py     1 2py     1 2py     1 2py     1 2py     1 2py     1 2py
                                   1 2py     1 2py     1 2py     1 2py     1 2py     1 2py     1 2py     1 2py     1 2py     1 4f1-
                                   1 4f3-    1 4f1-    1 4f3-    1 4f1-    1 4f3-    1 4f1-    1 4f3-    1 4f1-    1 4f3-    1 4f1-
                                   1 4f3-    1 4f1-    1 4f3-    1 4f1-    1 4f3-

   1.3   2    -1.3747   -7.9591  0.000000 -0.000000  0.000000 -0.000001  0.000003 -0.000014  0.000057 -0.000187  0.000612 -0.001559
                                 0.004665 -0.011630  0.039786 -0.103498 -0.072013  0.552211  0.545799  0.063522 -0.010414  0.000000
                                -0.000000 -0.000001  0.000000  0.000005 -0.000000 -0.000013  0.000000  0.000049 -0.000000 -0.000026
                                 0.000000  0.001942  0.000000  0.000959  0.000000

   2.3   0     0.7286   -1.9757  0.000000 -0.000000  0.000000 -0.000000  0.000000 -0.000000  0.000000 -0.000000  0.000000 -0.000000
                                 0.000000 -0.000000  0.000000 -0.000000  0.000000 -0.000000  0.000001 -0.000001  0.000000 -0.000000
                                -0.000059  0.000000  0.000369 -0.000000 -0.001503  0.000000  0.004981 -0.000000 -0.013020  0.000000
                                 0.045545 -0.000001 -0.086734  0.000010  1.040976

   3.3   0     0.7066   -1.9979  0.000000 -0.000000  0.000000 -0.000000  0.000000 -0.000000  0.000000 -0.000001  0.000004 -0.000010
                                 0.000025 -0.000057  0.000114 -0.000220  0.000552 -0.001479  0.002594 -0.007101  0.001466 -0.000059
                                 0.000000  0.000366 -0.000000 -0.001490  0.000000  0.004940 -0.000000 -0.012907  0.000000  0.045166
                                -0.000000 -0.086379  0.000001  1.040825 -0.000010

                                   1 3d2-    1 3d2-    1 3d2-    1 3d2-    1 3d2-    1 3d2-    1 3d2-    1 3d2-    1 3d2-    1 3d2-
                                   1 3d2-    1 3d2-    1 3d2-    1 5g2-    1 5g4-

   1.4   0     0.0829   -3.3146 -0.000001  0.000006 -0.000030  0.000121 -0.000381  0.001102 -0.002583  0.007389 -0.023155  0.027810
                                 0.240931  0.385151  0.622417  0.000011 -0.000037

   2.4   0     0.3206   -2.7777  0.000002 -0.000014  0.000072 -0.000284  0.000902 -0.002536  0.005900 -0.014976  0.040965 -0.057413
                                -0.263348 -0.772408  0.954768 -0.000018  0.000022

                                   1 2pz     1 2pz     1 2pz     1 2pz     1 2pz     1 2pz     1 2pz     1 2pz     1 2pz     1 2pz
                                   1 2pz     1 2pz     1 2pz     1 2pz     1 2pz     1 2pz     1 2pz     1 2pz     1 2pz     1 4f0
                                   1 4f2+    1 4f0     1 4f2+    1 4f0     1 4f2+    1 4f0     1 4f2+    1 4f0     1 4f2+    1 4f0
                                   1 4f2+    1 4f0     1 4f2+    1 4f0     1 4f2+

   1.5   2    -1.3843   -7.9609  0.000000 -0.000000  0.000000 -0.000001  0.000003 -0.000014  0.000058 -0.000188  0.000616 -0.001569
                                 0.004686 -0.011673  0.039792 -0.103319 -0.070977  0.546031  0.548937  0.067300 -0.010390  0.000000
                                -0.000000 -0.000001  0.000000  0.000004 -0.000000 -0.000011  0.000000  0.000044 -0.000000  0.000037
                                 0.000000  0.002004  0.000000  0.001849  0.000000

   2.5   0     0.7082   -1.9961 -0.000000  0.000000 -0.000000  0.000000 -0.000000  0.000000 -0.000000  0.000000 -0.000000  0.000000
                                -0.000000  0.000000 -0.000000  0.000001 -0.000001  0.000001 -0.000008  0.000019 -0.000007  0.000000
                                 0.000059 -0.000000 -0.000366  0.000001  0.001491 -0.000003 -0.004944  0.000007  0.012919 -0.000024
                                -0.045201  0.000045  0.086530 -0.000542 -1.040912

   3.5   0     0.7080   -1.9965  0.000000 -0.000000  0.000000 -0.000000  0.000000 -0.000000  0.000002 -0.000007  0.000020 -0.000055
                                 0.000145 -0.000337  0.000790 -0.001712  0.001876 -0.001816  0.013475 -0.033148  0.011497 -0.000059
                                 0.000000  0.000366 -0.000000 -0.001490  0.000001  0.004941 -0.000003 -0.012910  0.000007  0.045177
                                -0.000024 -0.086311  0.000045  1.040599 -0.000542

                                   1 3d1+    1 3d1+    1 3d1+    1 3d1+    1 3d1+    1 3d1+    1 3d1+    1 3d1+    1 3d1+    1 3d1+
                                   1 3d1+    1 3d1+    1 3d1+    1 5g1+    1 5g3+

   1.6   0     0.0999   -3.2477 -0.000001  0.000005 -0.000026  0.000103 -0.000323  0.000944 -0.002217  0.006602 -0.021528  0.024878
                                 0.247676  0.354379  0.649094  0.000025  0.000000

   2.6   0     0.3175   -2.8452  0.000002 -0.000014  0.000071 -0.000283  0.000898 -0.002526  0.005878 -0.014985  0.041223 -0.057427
                                -0.272629 -0.777799  0.938641 -0.000030 -0.000000

                                   1 3d1-    1 3d1-    1 3d1-    1 3d1-    1 3d1-    1 3d1-    1 3d1-    1 3d1-    1 3d1-    1 3d1-
                                   1 3d1-    1 3d1-    1 3d1-    1 5g1-    1 5g3-

   1.7   0     0.0999   -3.2477 -0.000001  0.000005 -0.000026  0.000103 -0.000323  0.000944 -0.002217  0.006602 -0.021528  0.024878
                                 0.247676  0.354378  0.649095  0.000025  0.000000

   2.7   0     0.3175   -2.8452  0.000002 -0.000014  0.000071 -0.000283  0.000898 -0.002526  0.005878 -0.014985  0.041223 -0.057427
                                -0.272630 -0.777799  0.938640 -0.000030 -0.000000

                                   1 4f2-    1 4f2-    1 4f2-    1 4f2-    1 4f2-    1 4f2-    1 4f2-    1 4f2-

   1.8   0     0.7082   -1.9961 -0.000059  0.000366 -0.001491  0.004944 -0.012919  0.045201 -0.086530  1.040912

   2.8   0     2.1751   -0.5310  0.000232 -0.001428  0.006077 -0.018424  0.062174 -0.157980  1.303623 -0.658347

 HOMO      2.2     0.430570 =      11.7164eV
 LUMO      1.4     0.082923 =       2.2564eV
 LUMO-HOMO        -0.347647 =      -9.4600eV


 **********************************************************************************************************************************
 DATASETS  * FILE   NREC   LENGTH (MB)   RECORD NAMES
              1      19       20.25       500      610      700      900      950      970     1000      129      960     1100
                                          VAR    BASINP    GEOM    SYMINP    ZMAT    AOBASIS   BASIS     P2S    ABASIS      S
                                         1400     1410     1420     1200     1210     1080     1600     1650     1700
                                           T        V       ECP      H0       H01     AOSYM     SMH    MOLCAS    OPER

              2       5        5.58       200      700     1000      520     4202
                                        OPTIONS   GEOM     BASIS   MCVARS     RHF

 PROGRAMS   *        TOTAL       RHF       INT
 CPU TIMES  *         9.97      0.71      8.83
 REAL TIME  *        11.67 SEC
 DISK USED  *       881.30 MB
 SF USED    *         0.03 MB
 GA USED    *         0.00 MB       (max)       0.00 MB       (current)
 **********************************************************************************************************************************
   -->
   <time start="20:28:35" end="20:28:46" cpu="9.97" system="1.14" real="11.67"/>
   <storage units="megabyte" memory="8001.84" sf="0.03" df="296.62" eaf="584.69" ga="0.0"/>
  </jobstep><!--
  --><jobstep command="RHF-SCF" commandset="SCFPRO">
   <!--


 PROGRAM * RHF-SCF (OPEN SHELL)       Authors: W. Meyer, H.-J. Werner


 NUMBER OF ELECTRONS:       6+    5-    SPACE SYMMETRY=2    SPIN SYMMETRY: Doublet
 CONVERGENCE THRESHOLDS:    1.00E-05 (Density)    1.00E-07 (Energy)
 MAX. NUMBER OF ITERATIONS:        0
 INTERPOLATION TYPE:            DIIS
 INTERPOLATION STEPS:              2 (START)      1 (STEP)
 LEVEL SHIFTS:                 -0.60 (CLOSED) -0.30 (OPEN)

 Number of closed-shell orbitals:    5 (   2   1   1   0   1   0   0   0 )
 Number of open-shell orbitals:      1 (   0   1   0   0   0   0   0   0 )


 Molecular orbitals read from record     4202.2  Type=RHF/CANONICAL (state 1.2)

 Molecular orbital dump at record        2108.2

 ITERATION    DDIFF          GRAD             ENERGY        2-EL.EN.            DIPOLE MOMENTS         DIIS   ORB.
    1      0.000D+00      0.000D+00       -38.87237667     50.789133    0.00000    0.00000    0.00000    0    start

 Final alpha occupancy:   2   2   1   0   1   0   0   0
 Final beta  occupancy:   2   1   1   0   1   0   0   0

 !RHF STATE 1.2 Energy                -38.872376672049
   --><property name="Energy" method="RHF" principal="true" stateSymmetry="2" stateNumber="1"
     value="-38.8723766720486"/><!--
 Nuclear energy                         0.00000000
 One-electron energy                  -64.26694317
 Two-electron energy                   25.39456650
 Virial quotient                       -2.99882911
 !RHF STATE 1.2 Dipole moment           0.00000000     0.00000000     0.00000000
 Dipole moment /Debye                   0.00000000     0.00000000     0.00000000
   --><property name="Dipole moment" method="RHF" principal="true" stateSymmetry="2"
     stateNumber="1" value="0.0 0.0 0.0"/><!--

 Orbital energies:

         1.1          2.1          3.1          4.1
     -2.596093    -0.224339     0.082924     0.094641

         1.2          2.2          3.2          4.2
     -1.374713     0.430570     0.706600     0.040762

         1.3          2.3          3.3
     -1.374712     0.728574     0.706600

         1.4          2.4
      0.082923     0.320582

         1.5          2.5          3.5
     -1.384334     0.708177     0.708036

         1.6          2.6
      0.099933     0.317513

         1.7          2.7
      0.099933     0.317513

         1.8          2.8
      0.708178     2.175132

 HOMO      2.2     0.430570 =      11.7164eV
 LUMO      1.4     0.082923 =       2.2564eV
 LUMO-HOMO        -0.347647 =      -9.4600eV


 **********************************************************************************************************************************
 DATASETS  * FILE   NREC   LENGTH (MB)   RECORD NAMES
              1      19       20.25       500      610      700      900      950      970     1000      129      960     1100
                                          VAR    BASINP    GEOM    SYMINP    ZMAT    AOBASIS   BASIS     P2S    ABASIS      S
                                         1400     1410     1420     1200     1210     1080     1600     1650     1700
                                           T        V       ECP      H0       H01     AOSYM     SMH    MOLCAS    OPER

              2       6        8.37       200      700     1000      520     4202     2108
                                        OPTIONS   GEOM     BASIS   MCVARS     RHF      RHF

 PROGRAMS   *        TOTAL       RHF       RHF       INT
 CPU TIMES  *        10.04      0.06      0.71      8.83
 REAL TIME  *        11.77 SEC
 DISK USED  *       881.30 MB
 SF USED    *         0.03 MB
 GA USED    *         0.00 MB       (max)       0.00 MB       (current)
 **********************************************************************************************************************************
   -->
   <time start="20:28:46" end="20:28:46" cpu="0.07" system="0.02" real="0.1"/>
   <storage units="megabyte" memory="8001.84" sf="0.03" df="296.62" eaf="584.69" ga="0.0"/>
  </jobstep><!--
 SETTING SCF(4)         =       -38.87237667  AU
 SETTING _CC_NORM_MAX   =         2.00000000
  --><jobstep command="RCCSD(T)" commandset="CCSD">
   <!--


 PROGRAM * CCSD (Restricted open-shell coupled cluster)     Authors: C. Hampel, H.-J. Werner, 1991, M. Deegan, P.J. Knowles, 1992


 Convergence thresholds:  THRVAR = 1.00D-08  THRDEN = 1.00D-06

 CCSD(T)     terms to be evaluated (factor= 1.000)


 Number of closed-shell orbitals:   5 (   2   1   1   0   1   0   0   0 )
 Number of active  orbitals:        1 (   0   1   0   0   0   0   0   0 )
 Number of external orbitals:     205 (  51  33  34  15  34  15  15   8 )

 Memory could be reduced to 15.43 Mwords without degradation in triples

 Number of N-1 electron functions:              11
 Number of N-2 electron functions:              55
 Number of singly external CSFs:               442
 Number of doubly external CSFs:            243107
 Total number of CSFs:                      243549

 Molecular orbitals read from record     2108.2  Type=RHF/CANONICAL (state 1.2)

 Integral transformation finished. Total CPU:   0.52 sec, npass=  1  Memory used:   2.09 MW

 Starting RMP2 calculation

 Wavefunction is spin-projected

 ITER.      SQ.NORM     CORR.ENERGY   TOTAL ENERGY   ENERGY CHANGE        DEN1      VAR(S)    VAR(P)  DIIS     TIME
   1      1.16355654    -0.29381383   -39.16619050    -0.29381383    -0.01515565  0.31D-04  0.24D-01  1  1     1.01
   2      1.31177314    -0.31108683   -39.18346350    -0.01727300    -0.01249209  0.38D-04  0.28D-01  2  2     1.11
   3      1.12135463    -0.29228409   -39.16466076     0.01880274    -0.00865785  0.86D-03  0.17D-01  3  3     1.12
   4      1.28147947    -0.28407739   -39.15645406     0.00820670    -0.01515624  0.95D-01  0.94D-02  4  4     1.14
   5      1.28224562    -0.27067689   -39.14305356     0.01340050    -0.00251585  0.53D-03  0.40D-02  5  5     1.16
   6      1.46274148    -0.26891627   -39.14129294     0.00176062    -0.00052930  0.19D-05  0.85D-03  6  6     1.20
   7      1.49933485    -0.27017345   -39.14255012    -0.00125718    -0.00027237  0.35D-04  0.57D-03  6  5     1.34
   8      1.49918089    -0.27040940   -39.14278607    -0.00023596    -0.00028851  0.37D-04  0.62D-03  6  1     1.36
   9      1.52279989    -0.26948415   -39.14186082     0.00092525    -0.00019992  0.82D-03  0.19D-03  6  2     1.41
  10      1.52788340    -0.26889057   -39.14126724     0.00059358    -0.00018354  0.65D-03  0.20D-03  6  3     1.44
  11      1.53639814    -0.26842592   -39.14080259     0.00046465    -0.00018263  0.68D-03  0.19D-03  6  4     1.46
  12      1.51371649    -0.26918586   -39.14156253    -0.00075994    -0.00016492  0.57D-03  0.18D-03  6  6     1.49
  13      1.48312147    -0.26936507   -39.14174175    -0.00017922    -0.00020043  0.74D-03  0.23D-03  6  5     1.52
  14      1.53141541    -0.26843747   -39.14081415     0.00092760    -0.00006526  0.14D-03  0.77D-04  6  3     1.55
  15      1.57673086    -0.26710432   -39.13948099     0.00133316    -0.00000273  0.71D-06  0.35D-05  6  2     1.58
  16      1.58114388    -0.26702776   -39.13940443     0.00007656    -0.00000113  0.88D-06  0.16D-05  6  1     1.60
  17      1.58171548    -0.26703583   -39.13941251    -0.00000807    -0.00000107  0.19D-05  0.12D-05  6  3     1.68
  18      1.58194140    -0.26704138   -39.13941805    -0.00000554    -0.00000116  0.25D-05  0.12D-05  6  1     1.70
  19      1.58221262    -0.26702080   -39.13939747     0.00002058    -0.00000129  0.49D-05  0.15D-05  6  2     1.77
  20      1.57928717    -0.26707544   -39.13945211    -0.00005464    -0.00000010  0.30D-07  0.13D-06  6  5     1.80
  21      1.57814824    -0.26709028   -39.13946696    -0.00001484    -0.00000001  0.78D-09  0.10D-07  6  6     1.82
  22      1.57806061    -0.26708904   -39.13946571     0.00000124    -0.00000000  0.88D-09  0.31D-08  6  4     1.85
  23      1.57808224    -0.26708635   -39.13946303     0.00000269    -0.00000000  0.24D-08  0.11D-08  6  5     1.90
  24      1.57809304    -0.26708606   -39.13946273     0.00000029    -0.00000000  0.53D-08  0.11D-08  6  3     1.92

 Norm of t1 vector:      0.01895231      S-energy:    -0.00026169      T1 diagnostic:  0.00003077
 Norm of t2 vector:      0.76008806      P-energy:    -0.26682437
                                         Alpha-Beta:  -0.19849710
                                         Alpha-Alpha: -0.03474943
                                         Beta-Beta:   -0.03357785

 Spin contamination <S**2-Sz**2-Sz>     0.00000000
  Reference energy                    -38.872376672049
   --><property name="energy" method="Reference" stateSymmetry="1" stateNumber="1"
     value="-38.8723766720486"/><!--
  RHF-RMP2 correlation energy          -0.267086061117
   --><property name="energy" method="RHF-RMP2 correlation" stateSymmetry="1" stateNumber="1"
     value="-0.267086061117256"/><!--
 !RHF-RMP2 energy                     -39.139462733166
   --><property name="energy" method="RHF-RMP2" principal="true" stateSymmetry="2"
     stateNumber="1" value="-39.1394627331658"/><!--
 (NB above energy spin projected)

 Starting RCCSD calculation

 ITER.      SQ.NORM     CORR.ENERGY   TOTAL ENERGY   ENERGY CHANGE        DEN1      VAR(S)    VAR(P)  DIIS     TIME
   1      1.20949835    -0.30018628   -39.17256295    -0.30018628    -0.02992296  0.66D-03  0.51D-01  1  1     2.19
   2      1.44628501    -0.31806984   -39.19044651    -0.01788356    -0.04916639  0.54D-03  0.11D+00  2  2     2.33
   3      1.13024152    -0.29124279   -39.16361946     0.02682705    -0.00851653  0.29D-02  0.10D-01  3  3     2.50
   4      1.25308389    -0.29756941   -39.16994608    -0.00632662    -0.01451164  0.63D-01  0.10D-01  4  4     2.63
   5      1.17804371    -0.29966143   -39.17203810    -0.00209202    -0.00718584  0.18D-02  0.95D-02  5  5     2.96
   6      1.11489218    -0.29287441   -39.16525109     0.00678702    -0.00378534  0.44D-03  0.41D-02  6  6     3.09
   7      1.15707814    -0.28544779   -39.15782447     0.00742662    -0.00172700  0.24D-03  0.20D-02  7  7     3.23
   8      1.16685140    -0.28663752   -39.15901419    -0.00118972    -0.00208176  0.17D-03  0.33D-02  8  8     3.37
   9      1.16939906    -0.28899397   -39.16137064    -0.00235645    -0.00037718  0.70D-04  0.28D-03  9  9     3.51
  10      1.20318502    -0.28791003   -39.16028670     0.00108394    -0.00015999  0.17D-04  0.15D-03 10 10     3.65
  11      1.20443899    -0.28884011   -39.16121678    -0.00093008    -0.00014207  0.76D-05  0.18D-03 11 11     3.80
  12      1.20045853    -0.28908803   -39.16146470    -0.00024792    -0.00011647  0.85D-05  0.13D-03 12 12     3.94
  13      1.20680793    -0.28886813   -39.16124480     0.00021990    -0.00006978  0.22D-04  0.91D-04 13 13     4.09
  14      1.20676309    -0.28884538   -39.16122205     0.00002275    -0.00006453  0.18D-04  0.81D-04 14 14     4.23
  15      1.20702916    -0.28921905   -39.16159572    -0.00037366    -0.00003448  0.34D-05  0.43D-04 15 15     4.37
  16      1.20795350    -0.28919065   -39.16156732     0.00002840    -0.00003830  0.42D-05  0.54D-04 15  3     4.52
  17      1.20872795    -0.28912744   -39.16150411     0.00006320    -0.00002212  0.17D-05  0.27D-04 15  1     4.68
  18      1.20894133    -0.28918932   -39.16156599    -0.00006187    -0.00002397  0.11D-05  0.33D-04 15  5     4.93
  19      1.20812350    -0.28931250   -39.16168918    -0.00012319    -0.00001584  0.25D-05  0.20D-04 15  2     5.08
  20      1.20853382    -0.28930336   -39.16168003     0.00000915    -0.00001715  0.23D-05  0.23D-04 15  4     5.22
  21      1.20758774    -0.28946664   -39.16184332    -0.00016329    -0.00001156  0.97D-05  0.12D-04 15 10     5.38
  22      1.20837829    -0.28958014   -39.16195681    -0.00011349    -0.00000907  0.91D-05  0.92D-05 15  8     5.54
  23      1.20836791    -0.28952567   -39.16190234     0.00005447    -0.00001081  0.13D-04  0.11D-04 15  9     5.68
  24      1.20902796    -0.28952242   -39.16189909     0.00000325    -0.00001174  0.25D-04  0.12D-04 15  7     5.83
  25      1.20914278    -0.28948755   -39.16186422     0.00003487    -0.00000687  0.15D-05  0.79D-05 15  6     5.99
  26      1.20929847    -0.28937556   -39.16175223     0.00011199    -0.00000628  0.34D-05  0.72D-05 15 14     6.13
  27      1.20929308    -0.28936204   -39.16173871     0.00001352    -0.00000611  0.30D-05  0.73D-05 15 12     6.29
  28      1.20924755    -0.28935799   -39.16173466     0.00000405    -0.00000604  0.30D-05  0.71D-05 15 11     6.44
  29      1.20867069    -0.28936635   -39.16174302    -0.00000836    -0.00000577  0.27D-05  0.69D-05 15 13     6.58
  30      1.20878300    -0.28936602   -39.16174269     0.00000033    -0.00000621  0.43D-05  0.72D-05 15 15     6.74
  31      1.20860672    -0.28936804   -39.16174472    -0.00000203    -0.00000531  0.14D-05  0.66D-05 15  1     6.90
  32      1.20884337    -0.28932953   -39.16170620     0.00003852    -0.00000446  0.27D-06  0.71D-05 15  2     7.09
  33      1.20919022    -0.28931609   -39.16169276     0.00001344    -0.00000341  0.22D-06  0.49D-05 15  3     7.24
  34      1.20926256    -0.28934484   -39.16172152    -0.00002876    -0.00000428  0.18D-06  0.69D-05 15  5     7.39
  35      1.21000383    -0.28928506   -39.16166173     0.00005979    -0.00000242  0.45D-06  0.31D-05 15 10     7.53
  36      1.21064598    -0.28928280   -39.16165947     0.00000226    -0.00000288  0.42D-06  0.45D-05 15 12     7.67
  37      1.21124052    -0.28933654   -39.16171321    -0.00005374    -0.00000110  0.44D-06  0.12D-05 15 14     7.82
  38      1.21174389    -0.28936744   -39.16174411    -0.00003090    -0.00000092  0.57D-06  0.11D-05 15  4     7.97
  39      1.21171921    -0.28936486   -39.16174154     0.00000258    -0.00000087  0.53D-06  0.10D-05 15  7     8.11
  40      1.21182087    -0.28933706   -39.16171373     0.00002781    -0.00000072  0.61D-06  0.86D-06 15  9     8.26
  41      1.21182088    -0.28933516   -39.16171183     0.00000190    -0.00000062  0.49D-06  0.69D-06 15  3     8.40
  42      1.21183518    -0.28934430   -39.16172097    -0.00000914    -0.00000054  0.50D-06  0.68D-06 15  6     8.55
  43      1.21168724    -0.28935600   -39.16173267    -0.00001171    -0.00000075  0.19D-05  0.80D-06 15  8     8.70
  44      1.21187860    -0.28934358   -39.16172026     0.00001242    -0.00000051  0.89D-07  0.70D-06 15 14     8.85
  45      1.21185252    -0.28933633   -39.16171301     0.00000725    -0.00000049  0.12D-06  0.66D-06 15 10     9.01
  46      1.21198147    -0.28933141   -39.16170808     0.00000493    -0.00000055  0.24D-06  0.76D-06 15  5     9.15
  47      1.21175141    -0.28933553   -39.16171221    -0.00000413    -0.00000047  0.65D-07  0.63D-06 15 12     9.31
  48      1.21178726    -0.28933093   -39.16170760     0.00000460    -0.00000048  0.65D-07  0.67D-06 15  4     9.46
  49      1.21157825    -0.28932432   -39.16170099     0.00000661    -0.00000040  0.68D-07  0.53D-06 15  7     9.60
  50      1.21154924    -0.28930677   -39.16168345     0.00001755    -0.00000040  0.54D-07  0.55D-06 15 13     9.76
  51      1.21146759    -0.28931070   -39.16168738    -0.00000393    -0.00000037  0.66D-07  0.49D-06 15  8     9.93
  52      1.21152669    -0.28930586   -39.16168254     0.00000484    -0.00000039  0.73D-07  0.54D-06 15 11    10.08
  53      1.21134434    -0.28931448   -39.16169115    -0.00000862    -0.00000033  0.73D-07  0.42D-06 15  1    10.22
  54      1.21142810    -0.28932101   -39.16169768    -0.00000653    -0.00000031  0.92D-07  0.44D-06 15  9    10.37
  55      1.21138109    -0.28932599   -39.16170266    -0.00000497    -0.00000029  0.47D-07  0.39D-06 15 15    10.52
  56      1.21140016    -0.28932584   -39.16170251     0.00000015    -0.00000029  0.45D-07  0.40D-06 15  2    10.68
  57      1.21126276    -0.28934735   -39.16172402    -0.00002151    -0.00000023  0.33D-07  0.31D-06 15 14    10.81
  58      1.21126357    -0.28934746   -39.16172413    -0.00000011    -0.00000023  0.36D-07  0.31D-06 15 10    10.97
  59      1.21124202    -0.28934927   -39.16172594    -0.00000181    -0.00000024  0.55D-07  0.31D-06 15  3    11.11
  60      1.21125288    -0.28935280   -39.16172948    -0.00000353    -0.00000023  0.66D-07  0.30D-06 15  6    11.25
  61      1.21125139    -0.28935062   -39.16172729     0.00000219    -0.00000021  0.42D-07  0.28D-06 15 15    11.41
  62      1.21130192    -0.28934996   -39.16172663     0.00000065    -0.00000020  0.18D-07  0.28D-06 15  1    11.56
  63      1.21128781    -0.28935133   -39.16172800    -0.00000136    -0.00000018  0.22D-07  0.24D-06 15  8    11.75
  64      1.21130382    -0.28935157   -39.16172824    -0.00000024    -0.00000016  0.22D-07  0.21D-06 15 11    11.90
  65      1.21130649    -0.28934884   -39.16172551     0.00000273    -0.00000017  0.20D-07  0.23D-06 15 13    12.03
  66      1.21135117    -0.28935061   -39.16172728    -0.00000177    -0.00000015  0.20D-07  0.19D-06 15  8    12.19
  67      1.21147196    -0.28933861   -39.16171529     0.00001200    -0.00000014  0.83D-08  0.20D-06 15  9    12.35
  68      1.21144477    -0.28934185   -39.16171852    -0.00000324    -0.00000014  0.97D-08  0.19D-06 15  6    12.51
  69      1.21144538    -0.28934697   -39.16172364    -0.00000511    -0.00000014  0.93D-08  0.19D-06 15 12    12.66
  70      1.21142349    -0.28934714   -39.16172381    -0.00000017    -0.00000013  0.11D-07  0.18D-06 15  5    12.81
  71      1.21141773    -0.28935186   -39.16172853    -0.00000472    -0.00000013  0.17D-07  0.17D-06 15  7    12.97
  72      1.21143604    -0.28935141   -39.16172809     0.00000044    -0.00000013  0.11D-07  0.17D-06 15  4    13.13
  73      1.21146740    -0.28935274   -39.16172942    -0.00000133    -0.00000013  0.10D-07  0.18D-06 15  5    13.30
  74      1.21140696    -0.28935098   -39.16172766     0.00000176    -0.00000012  0.11D-07  0.16D-06 15 13    13.45
  75      1.21145800    -0.28935874   -39.16173541    -0.00000776    -0.00000011  0.11D-07  0.15D-06 15  4    13.60
  76      1.21143483    -0.28935838   -39.16173506     0.00000036    -0.00000011  0.18D-07  0.15D-06 15  8    13.74
  77      1.21143783    -0.28935846   -39.16173513    -0.00000007    -0.00000011  0.14D-07  0.15D-06 15  2    13.90
  78      1.21146169    -0.28935972   -39.16173640    -0.00000127    -0.00000012  0.72D-08  0.16D-06 15 14    14.05
  79      1.21145792    -0.28936021   -39.16173688    -0.00000049    -0.00000011  0.14D-07  0.14D-06 15  9    14.20
  80      1.21153539    -0.28935682   -39.16173350     0.00000339    -0.00000011  0.22D-07  0.14D-06 15 11    14.34
  81      1.21152162    -0.28935814   -39.16173481    -0.00000131    -0.00000010  0.16D-07  0.13D-06 15  7    14.49
  82      1.21153816    -0.28935754   -39.16173421     0.00000060    -0.00000011  0.24D-07  0.14D-06 15 15    14.64
  83      1.21151886    -0.28935765   -39.16173432    -0.00000011    -0.00000010  0.19D-08  0.13D-06 15  1    14.79
  84      1.21152209    -0.28935811   -39.16173478    -0.00000046    -0.00000010  0.50D-08  0.13D-06 15 13    14.94
  85      1.21154175    -0.28935301   -39.16172968     0.00000510    -0.00000009  0.19D-08  0.12D-06 15  4    15.10
  86      1.21161001    -0.28935390   -39.16173057    -0.00000089    -0.00000009  0.20D-08  0.12D-06 15  5    15.24
  87      1.21164084    -0.28935968   -39.16173636    -0.00000578    -0.00000008  0.36D-08  0.94D-07 15  1    15.40
  88      1.21164940    -0.28936044   -39.16173711    -0.00000076    -0.00000008  0.51D-08  0.10D-06 15  6    15.56
  89      1.21167467    -0.28936002   -39.16173670     0.00000042    -0.00000007  0.49D-08  0.91D-07 15 12    15.71
  90      1.21176853    -0.28935723   -39.16173391     0.00000279    -0.00000007  0.22D-07  0.89D-07 15  3    15.86
  91      1.21177838    -0.28935778   -39.16173446    -0.00000055    -0.00000007  0.46D-08  0.92D-07 15 10    16.00
  92      1.21178714    -0.28935793   -39.16173460    -0.00000015    -0.00000007  0.20D-07  0.81D-07 15  7    16.14
  93      1.21178506    -0.28935773   -39.16173440     0.00000020    -0.00000007  0.41D-07  0.82D-07 15 10    16.28
  94      1.21179706    -0.28935704   -39.16173372     0.00000069    -0.00000007  0.65D-08  0.93D-07 15  7    16.44
  95      1.21186834    -0.28935871   -39.16173538    -0.00000166    -0.00000006  0.11D-07  0.75D-07 15  1    16.59
  96      1.21187863    -0.28935836   -39.16173503     0.00000035    -0.00000006  0.12D-07  0.78D-07 15 11    16.74
  97      1.21191580    -0.28936380   -39.16174047    -0.00000545    -0.00000006  0.14D-07  0.73D-07 15  8    16.89
  98      1.21191481    -0.28936387   -39.16174054    -0.00000007    -0.00000006  0.14D-07  0.73D-07 15 12    17.03
  99      1.21195923    -0.28936707   -39.16174374    -0.00000320    -0.00000006  0.11D-07  0.74D-07 15  9    17.17

 Norm of t1 vector:      0.10509241      S-energy:    -0.00068240      T1 diagnostic:  0.01789208
                                                                       D1 diagnostic:  0.05852562
 Norm of t2 vector:      0.44823522      P-energy:    -0.28868467
                                         Alpha-Beta:  -0.22204373
                                         Alpha-Alpha: -0.03556193
                                         Beta-Beta:   -0.03107900

 Singles amplitudes (print threshold =  0.500E-01):

         I         SYM. A    A   T(IA) [Alpha-Alpha]

         2         1         3      0.06238065

         I         SYM. A    A   T(IA) [Beta-Beta]

         2         1         2      0.07530894

 Doubles amplitudes (print threshold =  0.500E-01):

         I         J         SYM. A    SYM. B    A         B      T(IJ, AB) [Alpha-Alpha]

         4         2         1         2         1         4      0.05436931
         4         2         2         1         4         1     -0.05436931
         4         2         3         4         4         1      0.05428675
         4         2         4         3         1         4     -0.05428675

         I         J         SYM. A    SYM. B    A         B      T(IJ, AB) [Alpha-Beta]

         2         2         1         1         2         2     -0.05556553
         2         2         2         2         3         3     -0.07202483
         2         2         3         3         3         3     -0.07202400
         2         2         5         5         3         3     -0.10622557
         2         2         5         5         3         4     -0.05276338
         2         2         5         5         4         3     -0.05276338
         4         2         1         2         1         4      0.09602074
         4         2         1         2         2         1      0.08183611
         4         2         2         1         2         1      0.05031256
         4         2         3         4         2         1     -0.05029032
         4         2         4         3         1         4     -0.09600475
         4         2         5         6         1         1      0.08383591
         4         2         6         5         1         1      0.05208532
         4         2         7         8         1         1      0.05207478
         4         2         8         7         1         1      0.08383140

 ?CONVERGENCE NOT REACHED AFTER MAX. ITERATIONS

 ?ERROR: NO CONVERGENCE. TRIPLES WILL NOT BE DONE. THIS CAN BE AVOIDED USING THE NOCHECK OPTION.

 Spin contamination <S**2-Sz**2-Sz>     0.00000000


 RESULTS
 =======

  Reference energy                    -38.872376672049
   --><property name="energy" method="Reference" stateSymmetry="1" stateNumber="1"
     value="-38.8723766720486"/><!--
  RCCSD singles energy                 -0.000682404572
   --><property name="energy" method="RCCSD singles" stateSymmetry="1" stateNumber="1"
     value="-0.682404571777095E-03"/><!--
  RCCSD pair energy                    -0.288684667705
   --><property name="energy" method="RCCSD pair" stateSymmetry="1" stateNumber="1"
     value="-0.288684667705326"/><!--
  RCCSD correlation energy             -0.289367072277
   --><property name="energy" method="RCCSD correlation" stateSymmetry="1" stateNumber="1"
     value="-0.289367072277104"/><!--

 !RHF-RCCSD energy                    -39.161743744326
   --><property name="energy" method="RHF-RCCSD" principal="true" stateSymmetry="1"
     stateNumber="1" value="-39.1617437443257"/><!--

 Program statistics:

 Available memory in ccsd:               999999552
 Min. memory needed in ccsd:                848144
 Max. memory used in ccsd:                 1123106
 Max. memory used in cckext:                929563 (99 integral passes)
 Max. memory used in cckint:               2092426 ( 1 integral passes)


 ? Error
 ? No convergence. This error exit can be avoided using the NOCHECK option
 ? The problem occurs in ccsd
   --><error type="Error" location="ccsd"
     message="No convergence. This error exit can be avoided using the NOCHECK option"/><!--
  --></jobstep><!--
  -->
  <input>
  <!--
 --></job><!--
--></molpro>
