
 Primary working directories    : /global/cscratch1/sd/haihan
 Secondary working directories  : /global/cscratch1/sd/haihan
 Wavefunction directory         : /global/homes/h/haihan/Research/ECP/f_group_element_ecps/Rh/Molpro/molecules/RhO/UC/wfu/
 Main file repository           : /global/cscratch1/sd/haihan/

 SHA1      : 19cd028119e0e09f93f0674bd8af7968d9b3eff6
 NAME      : 2015.1.36
 ARCHNAME  : linux/x86_64
 FC        : /opt/cray/pe/craype/2.5.14/bin/ftn
 BLASLIB   : -L/opt/intel/compilers_and_libraries_2018.1.163/linux/mkl/lib/intel64 -Wl,-_start-group -lmkl_intel_ilp64 -lmkl_intel_thread -lmkl_core -Wl,-_end-group -liomp5
 id        : lbl

 Nodes     nprocs
 nid01753    11
 Number of processes for MPI-2 version of Molpro:   nprocs(total)=   12   nprocs(compute)=   11   nprocs(helper)=    1

 Using customized tuning parameters: mindgm=7; mindgv=16; mindgc=1; mindgr=1; noblas=0; minvec=7
 default implementation of scratch files=sf  

 ***,Calculation for all-electron YH molecule, SCF and CCSD(T)
 memory,1,g
 gthresh,twoint=1.0E-15
 gthresh,throvl=1.0E-15
 
 set,dkroll=1,dkho=10,dkhp=4
 basis={
 Including file /global/u2/h/haihan/Research/ECP/f_group_element_ecps/Rh/Molpro/molecules/RhO/UC/r_2.60/../generate/Rh-aug-cc-pwCVTZ.basis
 Including file /global/u2/h/haihan/Research/ECP/f_group_element_ecps/Rh/Molpro/molecules/RhO/UC/r_2.60/../generate/O-aug-cc-pwCVTZ.basis
 }
 
 Rh_ccsd=-4781.905747
 O_ccsd=-75.03694110
 
                                                                                 !These are the wf cards parameters
 ne = 53
 symm = 1
 ss= 3
 
                                                                                 !There are irrep cards paramters
 A1=14
 B1=6
 B2=6
 A2=2
 
 
 geometry={
     2
     RhO molecule
     Rh 0.0 0.0 0.0
     O 0.0 0.0 2.60
 }
 {rhf,nitord=20;
  maxit,200;
  wf,ne,symm,ss
  occ,A1,B1,B2,A2
  closed,A1,B1-1,B2-1,A2-1
  print,orbitals=2
 }
 scf=energy
 _CC_NORM_MAX=2.0
 {rccsd(t),shifts=0.5,shiftp=0.5,thrdis=1.0;diis,1,1,15,1;maxit,200;core,8,3,3,1}
 ccsd=energy
 bind=ccsd-Rh_ccsd-O_ccsd
 
 
 table,2.60,scf,ccsd,bind
 save
 type,csv
 

 Variables initialized (889), CPU time= 0.01 sec
 Commands  initialized (702), CPU time= 0.01 sec, 572 directives.
 Default parameters read. Elapsed time= 0.14 sec

 Checking input...
 Passed
1


                                         ***  PROGRAM SYSTEM MOLPRO  ***
                                       Copyright, TTI GmbH Stuttgart, 2015
                                    Version 2015.1 linked Dec 29 2018 15:55:43


 **********************************************************************************************************************************
 LABEL *   Calculation for all-electron YH molecule, SCF and CCSD(T)                     
  64 bit mpp version                                                                     DATE: 25-Sep-22          TIME: 10:48:55  
 **********************************************************************************************************************************

 SHA1:             19cd028119e0e09f93f0674bd8af7968d9b3eff6
 **********************************************************************************************************************************

 THRESHOLDS:

 ZERO    =  1.00D-12  ONEINT  =  1.00D-12  TWOINT  =  1.00D-15  PREFAC  =  1.00D-14  LOCALI  =  1.00D-09  EORDER  =  1.00D-04
 ENERGY  =  0.00D+00  ETEST   =  0.00D+00  EDENS   =  0.00D+00  THRDEDEF=  1.00D-06  GRADIENT=  1.00D-02  STEP    =  1.00D-03
 ORBITAL =  1.00D-05  CIVEC   =  1.00D-05  COEFF   =  1.00D-04  PRINTCI =  5.00D-02  PUNCHCI =  9.90D+01  OPTGRAD =  3.00D-04
 OPTENERG=  1.00D-06  OPTSTEP =  3.00D-04  THRGRAD =  1.00D-10  COMPRESS=  1.00D-11  VARMIN  =  1.00D-07  VARMAX  =  1.00D-03
 THRDOUB =  0.00D+00  THRDIV  =  1.00D-05  THRRED  =  1.00D-07  THRPSP  =  1.00D+00  THRDC   =  1.00D-10  THRCS   =  1.00D-10
 THRNRM  =  1.00D-08  THREQ   =  0.00D+00  THRDE   =  1.00D+00  THRREF  =  1.00D-05  SPARFAC =  1.00D+00  THRDLP  =  1.00D-07
 THRDIA  =  1.00D-10  THRDLS  =  1.00D-07  THRGPS  =  0.00D+00  THRKEX  =  0.00D+00  THRDIS  =  2.00D-01  THRVAR  =  1.00D-10
 THRLOC  =  1.00D-06  THRGAP  =  1.00D-06  THRLOCT = -1.00D+00  THRGAPT = -1.00D+00  THRORB  =  1.00D-06  THRMLTP =  0.00D+00
 THRCPQCI=  1.00D-10  KEXTA   =  0.00D+00  THRCOARS=  0.00D+00  SYMTOL  =  1.00D-06  GRADTOL =  1.00D-06  THROVL  =  1.00D-08
 THRORTH =  1.00D-08  GRID    =  1.00D-06  GRIDMAX =  1.00D-03  DTMAX   =  0.00D+00  THROCCDE=  1.00D-01  THROCCDE=  1.00D-01



 THRESHOLDS:

 ZERO    =  1.00D-12  ONEINT  =  1.00D-12  TWOINT  =  1.00D-15  PREFAC  =  1.00D-14  LOCALI  =  1.00D-09  EORDER  =  1.00D-04
 ENERGY  =  0.00D+00  ETEST   =  0.00D+00  EDENS   =  0.00D+00  THRDEDEF=  1.00D-06  GRADIENT=  1.00D-02  STEP    =  1.00D-03
 ORBITAL =  1.00D-05  CIVEC   =  1.00D-05  COEFF   =  1.00D-04  PRINTCI =  5.00D-02  PUNCHCI =  9.90D+01  OPTGRAD =  3.00D-04
 OPTENERG=  1.00D-06  OPTSTEP =  3.00D-04  THRGRAD =  1.00D-10  COMPRESS=  1.00D-11  VARMIN  =  1.00D-07  VARMAX  =  1.00D-03
 THRDOUB =  0.00D+00  THRDIV  =  1.00D-05  THRRED  =  1.00D-07  THRPSP  =  1.00D+00  THRDC   =  1.00D-10  THRCS   =  1.00D-10
 THRNRM  =  1.00D-08  THREQ   =  0.00D+00  THRDE   =  1.00D+00  THRREF  =  1.00D-05  SPARFAC =  1.00D+00  THRDLP  =  1.00D-07
 THRDIA  =  1.00D-10  THRDLS  =  1.00D-07  THRGPS  =  0.00D+00  THRKEX  =  0.00D+00  THRDIS  =  2.00D-01  THRVAR  =  1.00D-10
 THRLOC  =  1.00D-06  THRGAP  =  1.00D-06  THRLOCT = -1.00D+00  THRGAPT = -1.00D+00  THRORB  =  1.00D-06  THRMLTP =  0.00D+00
 THRCPQCI=  1.00D-10  KEXTA   =  0.00D+00  THRCOARS=  0.00D+00  SYMTOL  =  1.00D-06  GRADTOL =  1.00D-06  THROVL  =  1.00D-15
 THRORTH =  1.00D-08  GRID    =  1.00D-06  GRIDMAX =  1.00D-03  DTMAX   =  0.00D+00  THROCCDE=  1.00D-01  THROCCDE=  1.00D-01


 SETTING DKROLL         =         1.00000000                                  
 SETTING DKHO           =        10.00000000                                  
 SETTING DKHP           =         4.00000000                                  

 Variable memory set to 1000000000 words,  buffer space   230000 words

 SETTING BASIS          =    USERDEF
 SETTING RH_CCSD        =     -4781.90574700                                  
 SETTING O_CCSD         =       -75.03694110                                  
 SETTING NE             =        53.00000000                                  
 SETTING SYMM           =         1.00000000                                  
 SETTING SS             =         3.00000000                                  
 SETTING A1             =        14.00000000                                  
 SETTING B1             =         6.00000000                                  
 SETTING B2             =         6.00000000                                  
 SETTING A2             =         2.00000000                                  

Geometry recognized as XYZ



 Recomputing integrals since basis changed


 Using spherical harmonics



 PROGRAM * SEWARD (Integral evaluation for generally contracted gaussian basis sets)     Author: Roland Lindh, 1990

 Geometry written to block  1 of record 700


 Point group  C2v 



 ATOMIC COORDINATES

 NR  ATOM    CHARGE       X              Y              Z

   1  RH     45.00    0.000000000    0.000000000    0.000000000
   2  O       8.00    0.000000000    0.000000000    4.913287924

 Bond lengths in Bohr (Angstrom)

 1-2  4.913287924
     ( 2.600000000)

 NUCLEAR CHARGE:                   53
 NUMBER OF PRIMITIVE AOS:         391
 NUMBER OF SYMMETRY AOS:          330
 NUMBER OF CONTRACTIONS:          330   ( 145A1  +  75B1  +  75B2  +  35A2  )
 NUMBER OF CORE ORBITALS:          19   (  10A1  +   4B1  +   4B2  +   1A2  )
 NUMBER OF VALENCE ORBITALS:       10   (   5A1  +   2B1  +   2B2  +   1A2  )


 NUCLEAR REPULSION ENERGY   73.27069074

 One-electron integrals computed with SEWARD

 10nd-order Douglas-Kroll-Hess method activated. McWeeny DKH parametrization is used.

 Computing Douglas-Kroll / X2C integrals

 AO integral compression algorithm  1   Integral accuracy      1.0D-15

     1367.605 MB (compressed) written to integral file ( 37.6%)

     Node minimum: 76.022 MB, node maximum: 239.600 MB


 NUMBER OF SORTED TWO-ELECTRON INTEGRALS:   35099806.     BUFFER LENGTH:  32768
 NUMBER OF SEGMENTS:   2  SEGMENT LENGTH:   31967806      RECORD LENGTH: 524288

 Memory used in sort:      32.52 MW

 SORT1 READ   454841961. AND WROTE    13847209. INTEGRALS IN     40 RECORDS. CPU TIME:     6.32 SEC, REAL TIME:     7.97 SEC
 SORT2 READ   150566706. AND WROTE   386140795. INTEGRALS IN  10054 RECORDS. CPU TIME:     0.55 SEC, REAL TIME:     0.86 SEC

 Node minimum:    35061033.  Node maximum:    35222262. integrals

 OPERATOR DM      FOR CENTER  0  COORDINATES:    0.000000    0.000000    0.000000

 EXTRA SYMMETRY OF AOS IN SYMMETRY 1:   1 1 1 1 1 1 1 1 1 1   1 1 1 1 1 1 1 1 1 1   1 1 1 1 1 1 1 1 1 1   1 1 1 1 1 1 1 1 1 1
                                        1 1 1 1 1 1 1 1 1 1   1 1 1 1 1 1 1 1 2 1   2 1 2 1 2 1 2 1 2 1   2 1 2 1 2 1 2 1 2 1
                                        2 1 2 1 2 1 2 1 2 1   2 1 2 1 2 1 2 1 2 1   2 1 2 1 3 2 1 3 2 1   3 2 1 1 1 1 1 1 1 1
                                        1 1 1 1 1 1 1 1 1 1   1 1 1 1 2 1 2 1 2 1   2 1 2 1 2
 EXTRA SYMMETRY OF AOS IN SYMMETRY 2:   1 1 1 1 1 1 1 1 1 1   1 1 1 1 1 1 1 1 1 1   1 1 1 1 1 1 1 1 1 1   1 1 1 1 1 1 1 1 1 1
                                        1 1 1 1 2 1 2 1 2 1   2 1 2 1 2 1 2 1 2 1   1 1 1 1 1 1 1 1 1 1   1 1 2 1 2
 EXTRA SYMMETRY OF AOS IN SYMMETRY 3:   1 1 1 1 1 1 1 1 1 1   1 1 1 1 1 1 1 1 1 1   1 1 1 1 1 1 1 1 1 1   1 1 1 1 1 1 1 1 1 1
                                        1 1 1 1 2 1 2 1 2 1   2 1 2 1 2 1 2 1 2 1   1 1 1 1 1 1 1 1 1 1   1 1 2 1 2
 EXTRA SYMMETRY OF AOS IN SYMMETRY 4:   1 1 1 1 1 1 1 1 1 1   1 1 1 1 1 1 1 1 1 1   1 1 1 1 2 1 2 1 2 1   1 1 1 1 1

 Eigenvalues of metric

         1 0.116E-07 0.864E-06 0.874E-06 0.269E-05 0.276E-05 0.433E-05 0.602E-05 0.192E-04
         2 0.883E-06 0.275E-05 0.615E-05 0.330E-04 0.490E-04 0.538E-03 0.683E-03 0.160E-02
         3 0.883E-06 0.275E-05 0.615E-05 0.330E-04 0.490E-04 0.538E-03 0.683E-03 0.160E-02
         4 0.276E-05 0.493E-04 0.686E-03 0.164E-02 0.452E-02 0.127E-01 0.271E-01 0.556E-01


 **********************************************************************************************************************************
 DATASETS  * FILE   NREC   LENGTH (MB)   RECORD NAMES
              1      22       22.21       500      610      700      900      950      970     1000      129      960     1700   
                                          VAR    BASINP    GEOM    SYMINP    ZMAT    AOBASIS   BASIS     P2S    ABASIS    OPER   
                                         1101     1401     1411     1412     1650     1100     1400     1410     1200     1210   
                                          SR      EKINR    POTR     PVPR    MOLCAS      S      EKIN      POT      H0       H01  
                                         1080     1600   
                                         AOSYM     SMH  

 PROGRAMS   *        TOTAL       INT
 CPU TIMES  *        44.66     44.51
 REAL TIME  *        48.00 SEC
 DISK USED  *         3.17 GB      
 GA USED    *         0.00 MB       (max)       0.00 MB       (current)
 **********************************************************************************************************************************


 PROGRAM * RHF-SCF (OPEN SHELL)       Authors: W. Meyer, H.-J. Werner


 NUMBER OF ELECTRONS:      28+   25-    SPACE SYMMETRY=1    SPIN SYMMETRY: Quartet 
 CONVERGENCE THRESHOLDS:    1.00E-05 (Density)    1.06E-07 (Energy)
 MAX. NUMBER OF ITERATIONS:      200
 INTERPOLATION TYPE:            DIIS
 INTERPOLATION STEPS:              2 (START)      1 (STEP)
 LEVEL SHIFTS:                 -0.60 (CLOSED) -0.30 (OPEN) 

 Number of closed-shell orbitals:   25 (  14   5   5   1 )
 Number of open-shell orbitals:      3 (   0   1   1   1 )


 Orbital guess generated from atomic densities. Full valence occupancy:   15   6   6   2

 Molecular orbital dump at record        2100.2

 ITERATION    DDIFF          GRAD             ENERGY        2-EL.EN.            DIPOLE MOMENTS         DIIS   ORB.
    1      0.000D+00      0.000D+00     -4839.80289515   3398.289420    0.00000    0.00000   -9.55231    0    start
    2      0.000D+00      0.396D-01     -4829.07778957   4266.007836    0.00000    0.00000   28.60141    1    diag,B
    3      0.794D+00      0.106D+00     -4846.33857470   4097.847317    0.00000    0.00000   15.27678    2    diag,B
    4      0.154D+00      0.669D-01     -4850.67521336   4037.146698    0.00000    0.00000   10.44169    3    diag,B
    5      0.469D-01      0.503D-01     -4853.04930608   3986.111410    0.00000    0.00000    7.50853    4    diag,B
    6      0.243D-01      0.365D-01     -4854.90087060   3938.265683    0.00000    0.00000    3.44000    5    diag,B
    7      0.143D-01      0.238D-01     -4855.53678687   3906.952175    0.00000    0.00000    1.66322    6    diag,B
    8      0.662D-02      0.159D-01     -4855.82149357   3888.262642    0.00000    0.00000    0.92066    7    diag,B
    9      0.402D-02      0.108D-01     -4856.02807981   3861.671118    0.00000    0.00000    0.41538    8    diag,B
   10      0.434D-02      0.395D-02     -4856.06953893   3843.560326    0.00000    0.00000    0.09667    9    orth
   11      0.270D-02      0.954D-03     -4856.07452546   3844.138414    0.00000    0.00000    0.09943    9    diag,B
   12      0.132D-02      0.363D-03     -4856.07568719   3843.529532    0.00000    0.00000    0.08599    9    diag,B
   13      0.528D-03      0.218D-03     -4856.07615431   3843.621910    0.00000    0.00000    0.07480    9    diag,B
   14      0.480D-03      0.119D-03     -4856.07642455   3843.473609    0.00000    0.00000    0.05739    9    diag,B
   15      0.231D-03      0.895D-04     -4856.07664674   3843.293038    0.00000    0.00000    0.03899    9    diag,B
   16      0.199D-03      0.712D-04     -4856.07685819   3843.183134    0.00000    0.00000    0.02430    9    diag,B
   17      0.249D-03      0.509D-04     -4856.07700339   3843.030740    0.00000    0.00000    0.01691    9    diag,B
   18      0.232D-03      0.328D-04     -4856.07705886   3842.984876    0.00000    0.00000    0.01909    9    diag,B
   19      0.173D-03      0.180D-04     -4856.07707280   3842.923132    0.00000    0.00000    0.02141    9    fixocc
   20      0.836D-04      0.991D-05     -4856.07707586   3842.906482    0.00000    0.00000    0.02358    9    orth
   21      0.414D-04      0.564D-05     -4856.07707665   3842.898135    0.00000    0.00000    0.02498    9    diag,B
   22      0.183D-04      0.309D-05     -4856.07707689   3842.891724    0.00000    0.00000    0.02581    9    diag,B
   23      0.165D-04      0.117D-05     -4856.07707691   3842.893489    0.00000    0.00000    0.02606    9    diag,B
   24      0.624D-05      0.487D-06     -4856.07707691   3842.894054    0.00000    0.00000    0.02617    0    orth

 Final alpha occupancy:  14   6   6   2
 Final beta  occupancy:  14   5   5   1

 !RHF STATE 1.1 Energy              -4856.077076912083
 Nuclear energy                        73.27069074
 One-electron energy                -6850.79479477
 Two-electron energy                 1921.44702711
 Virial quotient                       -0.89130361
 !RHF STATE 1.1 Dipole moment           0.00000000     0.00000000     0.02616732
 Dipole moment /Debye                   0.00000000     0.00000000     0.06650634

 ELECTRON ORBITALS
 =================


   Orb  Occ    Energy  Couls-En    Coefficients

                                   1 1s      1 1s      1 1s      1 1s      1 1s      1 1s      1 1s      1 1s      1 1s      1 1s   
                                   1 1s      1 1s      1 1s      1 1s      1 1s      1 1s      1 1s      1 1s      1 1s      1 1s   
                                   1 1s      1 1s      1 1s      1 1s      1 1s      1 1s      1 1s      1 1s      1 1s      1 1s   
                                   1 1s      1 1s      1 2pz     1 2pz     1 2pz     1 2pz     1 2pz     1 2pz     1 2pz     1 2pz  
                                   1 2pz     1 2pz     1 2pz     1 2pz     1 2pz     1 2pz     1 2pz     1 2pz     1 2pz     1 2pz  
                                   1 2pz     1 2pz     1 2pz     1 2pz     1 2pz     1 2pz     1 2pz     1 3d0     1 3d2+    1 3d0  
                                   1 3d2+    1 3d0     1 3d2+    1 3d0     1 3d2+    1 3d0     1 3d2+    1 3d0     1 3d2+    1 3d0  
                                   1 3d2+    1 3d0     1 3d2+    1 3d0     1 3d2+    1 3d0     1 3d2+    1 3d0     1 3d2+    1 3d0  
                                   1 3d2+    1 3d0     1 3d2+    1 3d0     1 3d2+    1 3d0     1 3d2+    1 3d0     1 3d2+    1 3d0  
                                   1 3d2+    1 3d0     1 3d2+    1 4f0     1 4f2+    1 4f0     1 4f2+    1 4f0     1 4f2+    1 4f0  
                                   1 4f2+    1 4f0     1 4f2+    1 5g0     1 5g4+    1 5g2+    1 5g0     1 5g4+    1 5g2+    1 5g0  
                                   1 5g4+    1 5g2+    2 1s      2 1s      2 1s      2 1s      2 1s      2 1s      2 1s      2 1s   
                                   2 1s      2 1s      2 1s      2 1s      2 1s      2 2pz     2 2pz     2 2pz     2 2pz     2 2pz  
                                   2 2pz     2 2pz     2 2pz     2 3d0     2 3d2+    2 3d0     2 3d2+    2 3d0     2 3d2+    2 3d0  
                                   2 3d2+    2 4f0     2 4f2+    2 4f0     2 4f2+ 

   1.1   2  -857.6738-1900.4760  0.000045  0.000122  0.000335  0.000765  0.001628  0.003290  0.006567  0.013170  0.026884  0.055549
                                 0.112517  0.208272  0.308816  0.297915 -0.004400  0.130166  0.011229  0.004375 -0.010065  0.057677
                                -0.076192  0.038732 -0.016953  0.005324 -0.001659  0.000804 -0.000174  0.000091 -0.000047  0.000019
                                -0.000006  0.000001 -0.000000 -0.000000 -0.000000 -0.000000 -0.000000 -0.000000 -0.000000 -0.000000
                                -0.000000 -0.000000  0.000000 -0.000003  0.000004 -0.000003  0.000009 -0.000012  0.000007 -0.000011
                                 0.000011 -0.000003  0.000001 -0.000000  0.000000  0.000000 -0.000000 -0.000000  0.000000 -0.000000
                                -0.000000 -0.000000  0.000000 -0.000000 -0.000000  0.000000  0.000000 -0.000000 -0.000000  0.000000
                                 0.000000 -0.000000 -0.000000  0.000005  0.000000 -0.000009 -0.000000  0.000008  0.000000 -0.000006
                                -0.000000  0.000009  0.000000 -0.000007 -0.000000  0.000002  0.000000 -0.000001 -0.000000  0.000001
                                 0.000000 -0.000000 -0.000000 -0.000000 -0.000000  0.000000  0.000000 -0.000000 -0.000000  0.000000
                                 0.000000 -0.000000 -0.000000 -0.000000  0.000000 -0.000000  0.000000  0.000000  0.000000 -0.000000
                                 0.000000 -0.000000 -0.000000  0.000000 -0.000000  0.000000 -0.000000  0.000000 -0.000000 -0.000000
                                 0.000000  0.000000 -0.000000  0.000000 -0.000000 -0.000000 -0.000000  0.000000 -0.000000 -0.000000
                                 0.000000  0.000000  0.000000  0.000000  0.000000  0.000000 -0.000000  0.000000  0.000000 -0.000000
                                -0.000000 -0.000000  0.000000  0.000000 -0.000000

   2.1   2  -127.2394 -388.5723 -0.000015 -0.000041 -0.000113 -0.000258 -0.000550 -0.001115 -0.002238 -0.004529 -0.009382 -0.019887
                                -0.042212 -0.085437 -0.150306 -0.190841  0.002593 -0.066947  0.308950  0.553384  0.266882  0.112080
                                -0.128405  0.099066 -0.047794  0.017278 -0.005953  0.002868 -0.000708  0.000361 -0.000189  0.000076
                                -0.000024  0.000006 -0.000000 -0.000000 -0.000000 -0.000000 -0.000000 -0.000001 -0.000002 -0.000006
                                -0.000015 -0.000026 -0.000034 -0.000038  0.000016 -0.000016  0.000030 -0.000040  0.000023 -0.000040
                                 0.000041 -0.000013  0.000004 -0.000002  0.000001  0.000001 -0.000001 -0.000000  0.000000 -0.000000
                                 0.000000 -0.000001 -0.000000 -0.000004 -0.000000 -0.000028 -0.000000 -0.000027 -0.000000  0.000001
                                 0.000000 -0.000010 -0.000000  0.000050  0.000000 -0.000077 -0.000000  0.000052 -0.000000 -0.000037
                                 0.000000  0.000043 -0.000000 -0.000032  0.000000  0.000007 -0.000000 -0.000005  0.000000  0.000002
                                -0.000000 -0.000001 -0.000000 -0.000001  0.000000  0.000003 -0.000000 -0.000003  0.000000  0.000001
                                -0.000000 -0.000001  0.000000  0.000001 -0.000003  0.000000 -0.000000  0.000001 -0.000000  0.000000
                                -0.000001  0.000000 -0.000000 -0.000000 -0.000000 -0.000000  0.000000 -0.000000 -0.000000 -0.000001
                                 0.000000  0.000001 -0.000002  0.000001  0.000000 -0.000000 -0.000000  0.000000 -0.000001 -0.000001
                                 0.000002  0.000000  0.000000  0.000000 -0.000000  0.000000  0.000000  0.000001 -0.000000 -0.000000
                                 0.000000 -0.000000 -0.000000  0.000001  0.000000

   3.1   2  -113.8069 -369.4711 -0.000000 -0.000000 -0.000000 -0.000000 -0.000000 -0.000000 -0.000000 -0.000000 -0.000001 -0.000002
                                -0.000004 -0.000009 -0.000015 -0.000019 -0.000000 -0.000006  0.000034  0.000056  0.000011  0.000123
                                -0.000185  0.000133 -0.000084  0.000041 -0.000028  0.000020 -0.000012  0.000014 -0.000010  0.000000
                                -0.000001 -0.000000  0.000016  0.000055  0.000203  0.000713  0.002485  0.008366  0.026119  0.072486
                                 0.167224  0.296007  0.348830  0.212893  0.000844  0.050302  0.007403 -0.004459  0.002471 -0.002347
                                 0.001940 -0.000435  0.000058 -0.000025  0.000006 -0.000003  0.000001 -0.000000  0.000000 -0.000000
                                 0.000000 -0.000000  0.000000 -0.000002  0.000000 -0.000006  0.000000 -0.000006  0.000000 -0.000000
                                 0.000000 -0.000002  0.000000  0.000008  0.000000 -0.000014 -0.000000  0.000010  0.000000 -0.000008
                                -0.000000  0.000012  0.000000 -0.000010 -0.000000  0.000005  0.000000 -0.000006 -0.000000  0.000001
                                 0.000000 -0.000001 -0.000000 -0.000011 -0.000000  0.000040  0.000000 -0.000034 -0.000000  0.000004
                                 0.000000 -0.000003 -0.000000 -0.000000 -0.000000  0.000000  0.000001 -0.000000 -0.000000 -0.000001
                                -0.000000  0.000000 -0.000000  0.000000 -0.000000  0.000000 -0.000000  0.000001  0.000003  0.000002
                                -0.000003  0.000003  0.000003 -0.000003 -0.000002  0.000000  0.000000 -0.000000  0.000001 -0.000004
                                -0.000000 -0.000000 -0.000000 -0.000000  0.000000  0.000000 -0.000000  0.000002  0.000000  0.000000
                                -0.000000 -0.000000  0.000000 -0.000000  0.000000

   4.1   2   -23.9244 -132.9366  0.000007  0.000018  0.000049  0.000111  0.000237  0.000481  0.000965  0.001956  0.004058  0.008640
                                 0.018446  0.037876  0.068218  0.092144 -0.003561  0.035046 -0.204774 -0.489187 -0.317201  0.276822
                                -0.066465  0.473805  0.367441  0.293497  0.054315 -0.004965  0.002807 -0.000853  0.000515 -0.000189
                                 0.000063 -0.000015  0.000000  0.000000  0.000000  0.000000  0.000001  0.000002  0.000006  0.000017
                                 0.000040  0.000074  0.000090  0.000049 -0.000035 -0.000113 -0.000310  0.000078 -0.000240  0.000137
                                -0.000163  0.000061 -0.000026  0.000015  0.000003 -0.000003  0.000002 -0.000000  0.000000 -0.000001
                                 0.000000 -0.000003  0.000000 -0.000013  0.000000 -0.000022  0.000000 -0.000086  0.000000 -0.000198
                                 0.000000 -0.000363  0.000000 -0.000928 -0.000000  0.000735  0.000000 -0.000369 -0.000000  0.000200
                                 0.000000 -0.000149 -0.000000  0.000102  0.000000 -0.000023 -0.000000  0.000021  0.000000 -0.000006
                                 0.000000  0.000002 -0.000000 -0.000031  0.000000  0.000108 -0.000000 -0.000087  0.000000  0.000007
                                -0.000000  0.000003  0.000000  0.000011 -0.000044  0.000000 -0.000020  0.000075 -0.000000  0.000006
                                -0.000016  0.000000 -0.000000 -0.000000  0.000000 -0.000000  0.000000 -0.000003 -0.000009 -0.000007
                                 0.000008 -0.000011 -0.000003  0.000010  0.000006 -0.000000 -0.000000  0.000001 -0.000000  0.000015
                                -0.000002  0.000001  0.000000  0.000000  0.000000 -0.000001 -0.000000 -0.000008  0.000000 -0.000000
                                 0.000000 -0.000000 -0.000000  0.000001  0.000000

   5.1   2   -20.7011  -61.8103  0.000000  0.000000  0.000000  0.000000  0.000000  0.000000  0.000000  0.000000  0.000000  0.000000
                                 0.000000  0.000000  0.000000 -0.000001  0.000001 -0.000001  0.000001 -0.000005  0.000023 -0.000245
                                 0.000388 -0.000269  0.000150 -0.000028 -0.000133  0.000278 -0.000724  0.001759 -0.001394 -0.000554
                                 0.000828 -0.000096  0.000000 -0.000000  0.000000 -0.000000  0.000000 -0.000000  0.000000 -0.000001
                                 0.000003 -0.000010  0.000043 -0.000537  0.000789 -0.000627  0.002405 -0.003404  0.002336 -0.005115
                                 0.005757 -0.002375  0.001337 -0.000999 -0.000549  0.000706 -0.000111  0.000000  0.000000 -0.000000
                                -0.000000  0.000000 -0.000000 -0.000001 -0.000000  0.000002 -0.000000 -0.000006 -0.000000  0.000018
                                -0.000000 -0.000069 -0.000000  0.000929 -0.000000 -0.001577  0.000000  0.001256 -0.000000 -0.000905
                                -0.000000  0.000739  0.000000 -0.000421 -0.000000  0.000374 -0.000000 -0.001099 -0.000000  0.000073
                                -0.000000  0.000178  0.000000  0.000037 -0.000000 -0.000310  0.000000  0.000325 -0.000000 -0.000025
                                 0.000000 -0.000499 -0.000000 -0.000042  0.000000 -0.000000  0.000129 -0.000000  0.000000 -0.000229
                                 0.000000 -0.000000  0.000743  0.004237  0.020743  0.079657  0.231934  0.424271  0.332368  0.039478
                                -0.008810  0.004695 -0.001363  0.012743  0.015159  0.000009  0.000143 -0.000177  0.000406 -0.001222
                                 0.000172 -0.000170 -0.000008  0.000263 -0.000000  0.000128 -0.000000  0.000586  0.000000 -0.000215
                                -0.000000  0.000066  0.000000 -0.000221  0.000000

   6.1   2   -19.3745 -124.8139  0.000000  0.000000  0.000000  0.000000  0.000000  0.000000  0.000001  0.000001  0.000002  0.000005
                                 0.000010  0.000020  0.000036  0.000051 -0.000005  0.000022 -0.000117 -0.000254 -0.000221  0.000751
                                -0.001013  0.001088 -0.000384  0.000399 -0.000191  0.000177 -0.000073  0.000034  0.000049 -0.000102
                                -0.000024  0.000004 -0.000007 -0.000025 -0.000091 -0.000320 -0.001118 -0.003789 -0.011975 -0.034033
                                -0.081598 -0.152302 -0.185092 -0.030054 -0.003708  0.296902  0.488486  0.011875  0.283972  0.039411
                                 0.007489  0.000541  0.000890 -0.000032 -0.000029 -0.000039  0.000010 -0.000000  0.000000 -0.000000
                                 0.000000 -0.000001  0.000000 -0.000005  0.000000 -0.000013  0.000000 -0.000036  0.000000 -0.000064
                                 0.000000 -0.000115  0.000000  0.000017  0.000000 -0.000222 -0.000000  0.000254  0.000000 -0.000265
                                 0.000000  0.000434 -0.000000 -0.000357  0.000000  0.000096  0.000000 -0.000064  0.000000 -0.000034
                                 0.000000 -0.000001 -0.000000 -0.000858 -0.000000  0.002540  0.000000 -0.002148 -0.000000  0.000245
                                 0.000000 -0.000096 -0.000000 -0.000008 -0.000000 -0.000000  0.000010  0.000000 -0.000000 -0.000009
                                -0.000000 -0.000000  0.000000  0.000000  0.000000  0.000000  0.000001 -0.000003 -0.000014 -0.000011
                                -0.000002  0.000025  0.000089  0.000017  0.000009 -0.000000 -0.000002  0.000005 -0.000002 -0.000038
                                -0.000025  0.000002  0.000000 -0.000000  0.000000  0.000005 -0.000000  0.000002  0.000000 -0.000000
                                 0.000000 -0.000007  0.000000  0.000016 -0.000000

   7.1   2   -12.1375 -112.9970  0.000000  0.000000 -0.000000  0.000000 -0.000000 -0.000000 -0.000000 -0.000000 -0.000000 -0.000000
                                -0.000000 -0.000000 -0.000000 -0.000000  0.000000 -0.000000  0.000000 -0.000000  0.000000 -0.000000
                                 0.000000 -0.000000  0.000000 -0.000000  0.000000 -0.000000  0.000000 -0.000000  0.000000 -0.000000
                                 0.000000 -0.000000 -0.000000  0.000000  0.000000 -0.000000  0.000000  0.000000  0.000000  0.000000
                                 0.000000  0.000000  0.000000  0.000000 -0.000000 -0.000000 -0.000000  0.000000 -0.000000  0.000000
                                -0.000000  0.000000  0.000000  0.000000  0.000000  0.000000 -0.000000 -0.000000  0.000149 -0.000000
                                 0.001273 -0.000000  0.007716 -0.000000  0.031708 -0.000000  0.096170 -0.000000  0.213977 -0.000000
                                 0.329555 -0.000000  0.338686 -0.000000  0.196059  0.000000 -0.017767 -0.000000  0.034578 -0.000000
                                 0.018321  0.000000 -0.006751 -0.000000  0.005677  0.000000 -0.000484 -0.000000  0.000199 -0.000000
                                -0.000049 -0.000000  0.000014  0.000000 -0.000090 -0.000000  0.000253  0.000000 -0.000220 -0.000000
                                 0.000024  0.000000 -0.000007  0.000000 -0.000000 -0.000209 -0.000000  0.000000  0.000121  0.000000
                                -0.000000 -0.000049  0.000000  0.000000  0.000000  0.000000  0.000000  0.000000  0.000000  0.000000
                                 0.000000  0.000000 -0.000000  0.000000  0.000000 -0.000000 -0.000000 -0.000000 -0.000000 -0.000000
                                 0.000000 -0.000000 -0.000000 -0.000000  0.000000 -0.000000 -0.000002 -0.000000  0.000004  0.000000
                                -0.000000  0.000000  0.000001  0.000000 -0.000002

   8.1   2   -12.1187 -112.9865  0.000000  0.000000  0.000000  0.000000  0.000000  0.000001  0.000001  0.000003  0.000005  0.000012
                                 0.000025  0.000051  0.000093  0.000126 -0.000005  0.000049 -0.000302 -0.000750 -0.000457  0.000072
                                 0.000658  0.000751  0.001311 -0.000617 -0.000838  0.000188 -0.000072  0.000248 -0.000156 -0.000093
                                -0.000086  0.000021 -0.000000 -0.000000 -0.000000 -0.000000 -0.000000 -0.000001 -0.000004 -0.000011
                                -0.000025 -0.000050 -0.000053 -0.000071  0.000100  0.000038  0.000533 -0.000492  0.000335 -0.000773
                                 0.000838 -0.000313  0.000157 -0.000101 -0.000128 -0.000040  0.000012  0.000149  0.000000  0.001274
                                 0.000000  0.007716  0.000000  0.031709  0.000000  0.096176  0.000000  0.213972  0.000000  0.329568
                                 0.000000  0.338767  0.000000  0.195574  0.000000 -0.017110  0.000000  0.034092  0.000000  0.018707
                                 0.000000 -0.007245 -0.000000  0.005984  0.000000 -0.000517 -0.000000  0.000099  0.000000 -0.000099
                                -0.000000  0.000015 -0.000000 -0.000189 -0.000000  0.000560  0.000000 -0.000476 -0.000000  0.000064
                                 0.000000 -0.000085 -0.000000 -0.000332  0.000074 -0.000000  0.000206 -0.000101  0.000000 -0.000103
                                 0.000016 -0.000000  0.000000  0.000000 -0.000000  0.000000 -0.000001  0.000023  0.000081  0.000076
                                -0.000106  0.000092  0.000194 -0.000091 -0.000047  0.000001  0.000009 -0.000008  0.000042 -0.000138
                                -0.000074 -0.000007 -0.000000 -0.000005  0.000000  0.000007 -0.000000  0.000070  0.000000  0.000001
                                -0.000000  0.000007  0.000000 -0.000032 -0.000000

   9.1   2    -3.5906  -53.2739 -0.000003 -0.000007 -0.000020 -0.000045 -0.000097 -0.000196 -0.000394 -0.000797 -0.001656 -0.003524
                                -0.007547 -0.015495 -0.028188 -0.037425 -0.000053 -0.013352  0.088719  0.236151  0.121874  0.270136
                                -0.676825  0.253237 -0.861892 -0.023464 -0.079089  0.853458  0.496823  0.025302  0.020757 -0.007070
                                 0.002505 -0.000603 -0.000000 -0.000000 -0.000000 -0.000000 -0.000000 -0.000001 -0.000005 -0.000012
                                -0.000032 -0.000054 -0.000089  0.000205 -0.000315  0.000408 -0.000774  0.001520 -0.000872  0.001881
                                -0.002570  0.000650 -0.000860  0.000068  0.000016 -0.000131  0.000074  0.000000 -0.000000  0.000001
                                -0.000000  0.000005 -0.000000  0.000023 -0.000000  0.000057 -0.000000  0.000159 -0.000000  0.000245
                                -0.000000  0.000357  0.000000  0.000479 -0.000000  0.000135  0.000000 -0.001211 -0.000000  0.000241
                                 0.000000 -0.001820 -0.000000  0.001823  0.000000 -0.000470 -0.000000  0.000355  0.000000 -0.000200
                                -0.000000  0.000075  0.000000  0.000049 -0.000000 -0.000164 -0.000000  0.000272  0.000000 -0.000139
                                -0.000000  0.000048  0.000000 -0.000030  0.000134 -0.000000 -0.000139  0.000490 -0.000000 -0.000156
                                 0.000659  0.000000 -0.000000 -0.000000 -0.000001 -0.000005 -0.000016 -0.000036 -0.000042  0.000033
                                 0.000180 -0.000054  0.000097 -0.000004 -0.000002 -0.000002 -0.000012 -0.000083 -0.000096  0.000130
                                -0.000154 -0.000010 -0.000001  0.000008  0.000000  0.000011 -0.000000 -0.000084  0.000000  0.000001
                                -0.000000  0.000014  0.000000 -0.000050  0.000000

  10.1   2    -2.2278  -47.7944 -0.000000 -0.000000 -0.000000 -0.000000 -0.000000 -0.000000 -0.000001 -0.000001 -0.000002 -0.000005
                                -0.000011 -0.000022 -0.000038 -0.000069  0.000027 -0.000043  0.000160  0.000251  0.000694 -0.005523
                                 0.008831 -0.007546  0.004465 -0.003243  0.002535 -0.000949  0.003217 -0.003573  0.001953 -0.001129
                                -0.000503  0.000239  0.000003  0.000009  0.000035  0.000122  0.000428  0.001452  0.004600  0.013129
                                 0.031695  0.059780  0.073135  0.002112  0.002931 -0.157019 -0.268738 -0.037582 -0.113152  0.290777
                                 0.048948  0.518591  0.306310  0.044641 -0.004106  0.001504 -0.000339 -0.000000 -0.000000 -0.000000
                                 0.000000 -0.000001  0.000000 -0.000004  0.000000 -0.000017  0.000000 -0.000028  0.000000 -0.000061
                                 0.000000  0.000035  0.000000 -0.000905 -0.000000  0.001813  0.000000 -0.001724 -0.000000  0.001938
                                 0.000000 -0.002752 -0.000000  0.002541  0.000000 -0.001523 -0.000000  0.000911  0.000000 -0.000795
                                -0.000000  0.000240 -0.000000 -0.001800 -0.000000  0.000663  0.000000 -0.002747  0.000000 -0.001099
                                 0.000000 -0.000095  0.000000 -0.000016 -0.000000 -0.000000 -0.000015  0.000000  0.000000 -0.000026
                                 0.000001 -0.000000 -0.000001 -0.000004 -0.000020 -0.000080 -0.000244 -0.000610 -0.000904  0.000396
                                 0.002601  0.000823  0.000552  0.000232  0.000091 -0.000040 -0.000301 -0.000880 -0.001534 -0.000162
                                -0.000548 -0.000006 -0.000006  0.000061  0.000000  0.000295 -0.000000 -0.000201  0.000000  0.000008
                                -0.000000 -0.000015 -0.000000 -0.000132  0.000000

  11.1   2    -1.2615  -17.4738  0.000000  0.000000  0.000000  0.000000  0.000001  0.000001  0.000003  0.000005  0.000011  0.000023
                                 0.000048  0.000101  0.000175  0.000296 -0.000099  0.000175 -0.000691 -0.001216 -0.002747  0.020475
                                -0.032403  0.027985 -0.015784  0.012776 -0.010040  0.001996 -0.012127  0.011579 -0.003918 -0.004681
                                 0.008895 -0.001418 -0.000000 -0.000000 -0.000001 -0.000002 -0.000007 -0.000024 -0.000073 -0.000214
                                -0.000501 -0.000996 -0.001041 -0.001803  0.002581  0.000431  0.012906 -0.011562  0.010390 -0.024735
                                 0.021296 -0.018396  0.000186 -0.001724 -0.004015  0.007475 -0.001496 -0.000000 -0.000000 -0.000004
                                -0.000000 -0.000021 -0.000000 -0.000090 -0.000000 -0.000262 -0.000000 -0.000625 -0.000000 -0.000835
                                -0.000000 -0.001129  0.000000  0.005070 -0.000000 -0.009071  0.000000  0.010017 -0.000000 -0.007678
                                 0.000000  0.017449 -0.000000 -0.011699  0.000000  0.008704  0.000000 -0.006963 -0.000000  0.001473
                                -0.000000  0.001690  0.000000  0.000060 -0.000000  0.001032 -0.000000 -0.000938  0.000000  0.001227
                                 0.000000 -0.002843  0.000000 -0.000026  0.000000 -0.000000  0.000157 -0.000000  0.000000 -0.000291
                                -0.000005 -0.000000 -0.000169 -0.000964 -0.004776 -0.018765 -0.059476 -0.125847 -0.146718  0.174353
                                 0.596035  0.380655 -0.001557 -0.025830 -0.020413 -0.000009  0.000104 -0.001556 -0.000544 -0.010364
                                 0.002043 -0.000342 -0.000023  0.000483 -0.000000  0.001922 -0.000000  0.008035  0.000000  0.000380
                                 0.000000  0.000226  0.000000 -0.001498 -0.000000

  12.1   2    -0.5833  -16.5054  0.000000  0.000000  0.000000  0.000001  0.000002  0.000004  0.000009  0.000018  0.000036  0.000078
                                 0.000165  0.000347  0.000605  0.001003 -0.000310  0.000574 -0.002347 -0.004303 -0.008879  0.063984
                                -0.100943  0.088315 -0.048518  0.041209 -0.032582  0.003265 -0.039006  0.026833 -0.001953 -0.018956
                                -0.016789  0.004094 -0.000000 -0.000000 -0.000001 -0.000004 -0.000015 -0.000053 -0.000163 -0.000478
                                -0.001115 -0.002225 -0.002304 -0.004212  0.006050  0.000781  0.029664 -0.026726  0.023539 -0.054899
                                 0.044875 -0.039460 -0.003862  0.001379 -0.021447 -0.006325  0.002226 -0.000004  0.000000 -0.000031
                                 0.000000 -0.000189  0.000000 -0.000774  0.000000 -0.002390  0.000000 -0.005321  0.000000 -0.008068
                                 0.000000 -0.007073  0.000000 -0.000860  0.000000  0.003845 -0.000000  0.008267  0.000000  0.013960
                                -0.000000  0.023154  0.000000  0.006153 -0.000000  0.034484 -0.000000 -0.005008 -0.000000 -0.003221
                                 0.000000 -0.000178  0.000000 -0.000073 -0.000000  0.006192  0.000000 -0.006237 -0.000000  0.004721
                                -0.000000 -0.006925 -0.000000  0.000111 -0.000007 -0.000000 -0.000516  0.000002 -0.000000  0.001088
                                -0.000061  0.000000  0.000003  0.000016  0.000074  0.000309  0.000874  0.003146  0.006617  0.001247
                                -0.018436 -0.002425  0.041797 -0.004485 -0.002000 -0.011749 -0.086541 -0.301306 -0.468192 -0.360397
                                -0.045248 -0.010406 -0.002356  0.000641 -0.000000  0.000824  0.000000  0.015525 -0.000000  0.000021
                                 0.000000  0.003387 -0.000000 -0.000274  0.000000

  13.1   2    -0.3175  -33.9763 -0.000000 -0.000000 -0.000000 -0.000000 -0.000000 -0.000000 -0.000000 -0.000000 -0.000000 -0.000000
                                -0.000000 -0.000000 -0.000000 -0.000000  0.000000 -0.000000  0.000000  0.000000  0.000000 -0.000000
                                 0.000000 -0.000000  0.000000 -0.000000  0.000000 -0.000000  0.000000 -0.000000 -0.000000  0.000000
                                -0.000000  0.000000 -0.000000  0.000000 -0.000000  0.000000 -0.000000  0.000000 -0.000000 -0.000000
                                -0.000000 -0.000000 -0.000000  0.000000 -0.000000  0.000000 -0.000000  0.000000 -0.000000  0.000000
                                -0.000000  0.000000  0.000000 -0.000000 -0.000000 -0.000000  0.000000  0.000000 -0.000043  0.000000
                                -0.000367  0.000000 -0.002251  0.000000 -0.009230  0.000000 -0.028563  0.000000 -0.063408  0.000000
                                -0.096610  0.000000 -0.082073  0.000000 -0.049982 -0.000000  0.131797  0.000000 -0.005004 -0.000000
                                 0.323250  0.000000 -0.098357 -0.000000  0.443964 -0.000000  0.248417 -0.000000  0.193017 -0.000000
                                 0.083646 -0.000000 -0.000497 -0.000000 -0.000159  0.000000 -0.000176 -0.000000  0.000042  0.000000
                                -0.000578 -0.000000  0.000254 -0.000000 -0.000000 -0.000584  0.000000 -0.000000 -0.000926 -0.000000
                                 0.000000 -0.000423 -0.000000 -0.000000 -0.000000 -0.000000 -0.000000 -0.000000  0.000000  0.000000
                                 0.000000  0.000000  0.000000 -0.000000 -0.000000 -0.000000 -0.000000 -0.000000 -0.000000 -0.000000
                                -0.000000 -0.000000 -0.000000 -0.000000  0.000125 -0.000000  0.000498  0.000000  0.001102  0.000000
                                 0.000009  0.000000 -0.000006 -0.000000 -0.000482

  14.1   2    -0.2741  -32.7371 -0.000000 -0.000000 -0.000001 -0.000003 -0.000006 -0.000012 -0.000024 -0.000050 -0.000103 -0.000219
                                -0.000469 -0.000963 -0.001753 -0.002335  0.000002 -0.000838  0.005595  0.015017  0.007859  0.017580
                                -0.044323  0.015984 -0.061817 -0.000695 -0.000130  0.078352  0.069700 -0.004080 -0.048245 -0.131312
                                -0.044065 -0.004775  0.000000  0.000000  0.000001  0.000002  0.000007  0.000023  0.000073  0.000211
                                 0.000504  0.000967  0.001130  0.000536 -0.000724 -0.001970 -0.007029  0.002946 -0.004238  0.012106
                                -0.006162  0.013542  0.004260 -0.007666 -0.018996  0.001012 -0.003500 -0.000041 -0.000000 -0.000352
                                -0.000000 -0.002160 -0.000000 -0.008861 -0.000000 -0.027408 -0.000000 -0.060881 -0.000000 -0.092641
                                -0.000000 -0.079146 -0.000000 -0.041887 -0.000000  0.115916  0.000000  0.004583  0.000000  0.300526
                                 0.000000 -0.082278 -0.000000  0.417101  0.000000  0.244700  0.000000  0.195026  0.000000  0.098623
                                 0.000000  0.002870 -0.000000 -0.000528 -0.000000  0.000753 -0.000000 -0.001289  0.000000 -0.000988
                                -0.000000 -0.002042  0.000000 -0.000900 -0.000258 -0.000000 -0.001293 -0.000172 -0.000000 -0.001101
                                -0.000744  0.000000  0.000005  0.000029  0.000142  0.000556  0.001784  0.003607  0.003830 -0.006550
                                -0.018909 -0.023870 -0.033272  0.001606  0.000982  0.001337  0.009875  0.034781  0.053539  0.051137
                                 0.024998  0.001217  0.000270  0.000856  0.000000  0.003009 -0.000000  0.001376  0.000000  0.000041
                                -0.000000 -0.000671  0.000000 -0.000477 -0.000000

  15.1   0     0.0125   -8.3830 -0.000000 -0.000001 -0.000002 -0.000003 -0.000007 -0.000015 -0.000030 -0.000061 -0.000125 -0.000274
                                -0.000563 -0.001226 -0.001992 -0.004370  0.002683 -0.003416  0.009992  0.009805  0.061687 -0.575216
                                 0.936123 -0.778697  0.516826 -0.348478  0.290104 -0.167472  0.283806 -0.317711  0.461333 -0.748564
                                 1.150382 -1.610792 -0.000000 -0.000000 -0.000001 -0.000002 -0.000007 -0.000025 -0.000076 -0.000228
                                -0.000521 -0.001075 -0.001000 -0.003156  0.004588 -0.001017  0.019751 -0.020841  0.017050 -0.040704
                                 0.038065 -0.026645  0.002077 -0.010741  0.077092  0.045156  0.088209  0.000006  0.000000  0.000050
                                 0.000000  0.000308  0.000000  0.001249  0.000000  0.003911  0.000000  0.008554  0.000000  0.013395
                                 0.000000  0.010146  0.000000  0.023507  0.000000 -0.048343 -0.000000  0.029857  0.000000 -0.073732
                                -0.000000  0.062596  0.000000 -0.101296 -0.000000 -0.021146 -0.000000 -0.035718 -0.000000  0.016676
                                -0.000000 -0.019510 -0.000000  0.000442 -0.000000 -0.002039  0.000000  0.002659 -0.000000 -0.000862
                                 0.000000  0.005828 -0.000000  0.000267 -0.000142  0.000000  0.000046 -0.000335  0.000000  0.000799
                                 0.000674 -0.000000 -0.000010 -0.000058 -0.000288 -0.001122 -0.003629 -0.007014 -0.006777  0.014432
                                 0.040566  0.064334 -0.044618 -0.004449 -0.002599 -0.000570 -0.004207 -0.015010 -0.023667 -0.022424
                                 0.069687 -0.000544 -0.000117 -0.000808 -0.000000 -0.001137 -0.000000 -0.006327 -0.000000 -0.000019
                                -0.000000  0.000096  0.000000  0.001614 -0.000000

  16.1   0     0.0292   -5.3049 -0.000000 -0.000000 -0.000000 -0.000000 -0.000000 -0.000001 -0.000001 -0.000003 -0.000005 -0.000011
                                -0.000026 -0.000047 -0.000104 -0.000007 -0.000205  0.000139  0.000052  0.001443 -0.003602  0.047108
                                -0.079151  0.063171 -0.049804  0.027772 -0.024789  0.027228 -0.018184  0.041116 -0.042297  0.065258
                                -0.861442  0.584111 -0.000000 -0.000000 -0.000001 -0.000002 -0.000007 -0.000026 -0.000068 -0.000247
                                -0.000440 -0.001296  0.000022 -0.016010  0.023609 -0.016550  0.081816 -0.110558  0.081190 -0.190804
                                 0.210557 -0.099863  0.045277 -0.060428  0.070475 -0.881694  1.502550 -0.000001 -0.000000 -0.000008
                                -0.000000 -0.000065 -0.000000 -0.000214 -0.000000 -0.000828 -0.000000 -0.001372 -0.000000 -0.003377
                                -0.000000  0.001541 -0.000000 -0.060448  0.000000  0.111369 -0.000000 -0.104270  0.000000  0.114050
                                -0.000000 -0.180759  0.000000  0.162115 -0.000000 -0.043346  0.000000  0.047905  0.000000 -0.153585
                                -0.000000  0.010381  0.000000 -0.000897 -0.000000  0.007659  0.000000 -0.008942 -0.000000  0.004469
                                 0.000000 -0.015355 -0.000000 -0.000108  0.000013 -0.000000  0.000218  0.000044  0.000000 -0.000839
                                 0.000070 -0.000000  0.000009  0.000048  0.000246  0.000910  0.003223  0.003051 -0.004847 -0.023105
                                -0.015849 -0.108961  0.391243  0.015917  0.008040 -0.000205 -0.001509 -0.005387 -0.007787 -0.003776
                                -0.328568 -0.000181 -0.000041  0.000799  0.000000 -0.002795 -0.000000  0.016225  0.000000 -0.000036
                                 0.000000  0.000851 -0.000000 -0.003142 -0.000000

                                   1 2px     1 2px     1 2px     1 2px     1 2px     1 2px     1 2px     1 2px     1 2px     1 2px  
                                   1 2px     1 2px     1 2px     1 2px     1 2px     1 2px     1 2px     1 2px     1 2px     1 2px  
                                   1 2px     1 2px     1 2px     1 2px     1 2px     1 3d1+    1 3d1+    1 3d1+    1 3d1+    1 3d1+ 
                                   1 3d1+    1 3d1+    1 3d1+    1 3d1+    1 3d1+    1 3d1+    1 3d1+    1 3d1+    1 3d1+    1 3d1+ 
                                   1 3d1+    1 3d1+    1 3d1+    1 4f1+    1 4f3+    1 4f1+    1 4f3+    1 4f1+    1 4f3+    1 4f1+ 
                                   1 4f3+    1 4f1+    1 4f3+    1 5g1+    1 5g3+    1 5g1+    1 5g3+    1 5g1+    1 5g3+    2 2px  
                                   2 2px     2 2px     2 2px     2 2px     2 2px     2 2px     2 2px     2 3d1+    2 3d1+    2 3d1+ 
                                   2 3d1+    2 4f1+    2 4f3+    2 4f1+    2 4f3+ 

   1.2   2  -113.8126 -369.4757  0.000016  0.000055  0.000203  0.000713  0.002485  0.008366  0.026118  0.072484  0.167219  0.296000
                                 0.348843  0.212945  0.000795  0.050298  0.007349 -0.004397  0.002448 -0.002278  0.001881 -0.000411
                                 0.000051 -0.000021  0.000008 -0.000004  0.000001 -0.000000 -0.000000 -0.000000 -0.000001 -0.000003
                                -0.000004 -0.000002 -0.000000  0.000002 -0.000003  0.000002 -0.000001  0.000002 -0.000001  0.000000
                                -0.000000 -0.000000 -0.000000 -0.000012 -0.000009  0.000030 -0.000006 -0.000026  0.000002  0.000002
                                -0.000002 -0.000001  0.000000 -0.000000  0.000000  0.000000 -0.000000 -0.000000  0.000000 -0.000000
                                -0.000000 -0.000000 -0.000000 -0.000000  0.000000 -0.000000 -0.000000  0.000000  0.000000 -0.000000
                                -0.000000 -0.000000  0.000000  0.000000 -0.000000

   2.2   2   -19.3923 -124.8144 -0.000007 -0.000025 -0.000091 -0.000320 -0.001118 -0.003788 -0.011971 -0.034022 -0.081570 -0.152245
                                -0.185037 -0.030147 -0.003629  0.296689  0.487998  0.012201  0.284360  0.039704  0.007171  0.000463
                                 0.000866 -0.000054  0.000060 -0.000031  0.000008 -0.000000 -0.000000 -0.000002 -0.000006 -0.000018
                                -0.000044 -0.000076 -0.000088 -0.000032 -0.000035  0.000038 -0.000049  0.000073 -0.000060  0.000018
                                -0.000012 -0.000009 -0.000003 -0.000779 -0.000228  0.002326  0.000786 -0.001923 -0.000570  0.000218
                                 0.000091 -0.000067 -0.000012 -0.000006 -0.000000  0.000008 -0.000000 -0.000006  0.000000 -0.000000
                                -0.000001  0.000003 -0.000001  0.000014  0.000013  0.000001  0.000000 -0.000000  0.000002 -0.000017
                                 0.000000  0.000000 -0.000000  0.000003  0.000000

   3.2   2   -12.1241 -112.9927 -0.000000 -0.000000 -0.000000 -0.000000 -0.000000 -0.000001 -0.000003 -0.000007 -0.000018 -0.000033
                                -0.000040 -0.000012  0.000006  0.000060  0.000150 -0.000040  0.000096 -0.000044  0.000064 -0.000028
                                 0.000004 -0.000003 -0.000011 -0.000001 -0.000001  0.000149  0.001274  0.007717  0.031712  0.096185
                                 0.213994  0.329594  0.338736  0.195795 -0.017544  0.034453  0.018357 -0.006761  0.005636 -0.000482
                                 0.000176 -0.000055  0.000013 -0.000165 -0.000000  0.000497  0.000000 -0.000426 -0.000000  0.000054
                                -0.000000 -0.000031 -0.000000 -0.000308 -0.000045  0.000189  0.000062 -0.000078 -0.000010 -0.000000
                                -0.000003  0.000008 -0.000004  0.000020  0.000007  0.000004  0.000000 -0.000000  0.000006 -0.000019
                                 0.000000 -0.000005 -0.000000  0.000014  0.000000

   4.2   2    -2.2274  -47.7071  0.000003  0.000009  0.000035  0.000122  0.000428  0.001451  0.004595  0.013112  0.031659  0.059697
                                 0.073086  0.001678  0.003578 -0.157403 -0.265923 -0.040776 -0.111252  0.284106  0.056437  0.515337
                                 0.306582  0.046135 -0.002827  0.001948 -0.000564  0.000000  0.000001  0.000003  0.000014  0.000043
                                 0.000099  0.000154  0.000139  0.000090 -0.000230 -0.000063 -0.000502  0.000084 -0.000522 -0.000228
                                 0.000304  0.000020  0.000020 -0.000635  0.002266 -0.000568 -0.003197 -0.000079  0.006094  0.000283
                                 0.002909  0.000238  0.001161 -0.000010 -0.000001  0.000009 -0.000002  0.000013 -0.000003  0.000010
                                 0.000075  0.000262  0.000429  0.000391 -0.000031  0.000010  0.000002 -0.000023 -0.000106 -0.000098
                                -0.000002  0.000012 -0.000000  0.000027  0.000001

   5.2   2    -0.2993  -33.5012 -0.000000 -0.000000 -0.000000 -0.000000 -0.000000 -0.000002 -0.000005 -0.000014 -0.000035 -0.000062
                                -0.000090  0.000135 -0.000204  0.000343 -0.000362  0.001013 -0.000579  0.001211 -0.002024  0.000041
                                -0.000724  0.000779  0.003227  0.002201 -0.000262 -0.000042 -0.000361 -0.002212 -0.009069 -0.028064
                                -0.062297 -0.094916 -0.080671 -0.048462  0.128607 -0.004353  0.316574 -0.096874  0.436462  0.245608
                                 0.197029  0.092165  0.001550 -0.000204  0.000004  0.000128 -0.000012 -0.000311  0.000019 -0.000541
                                 0.000009 -0.000307  0.000024 -0.000792  0.000132 -0.001251  0.000066 -0.000616  0.000483  0.000861
                                 0.006287  0.021541  0.034735  0.026095  0.000862  0.000730  0.000171 -0.000742 -0.003048 -0.005377
                                -0.000054 -0.000000 -0.000003  0.000880  0.000013

   6.2   +    -0.7065  -16.4072 -0.000000 -0.000000 -0.000000 -0.000001 -0.000003 -0.000009 -0.000029 -0.000083 -0.000201 -0.000376
                                -0.000473  0.000115 -0.000203  0.001165  0.001126  0.001151  0.000049 -0.000541 -0.002135 -0.003051
                                -0.002470  0.002823 -0.003311  0.004495 -0.000423  0.000005  0.000043  0.000264  0.001080  0.003355
                                 0.007412  0.011389  0.009334  0.010316 -0.023694  0.008553 -0.046145  0.025145 -0.063603 -0.025498
                                -0.026906 -0.013211  0.003620  0.000019  0.000010  0.001999 -0.000007 -0.001957  0.000026  0.002107
                                 0.000002 -0.002576 -0.000009  0.000113  0.000039  0.000444  0.000111 -0.000081  0.000080  0.012314
                                 0.090489  0.320423  0.504319  0.304957  0.004109  0.011110  0.002491 -0.000232 -0.000008 -0.003356
                                -0.000007 -0.005911  0.000001 -0.003022 -0.000006

   7.2   0     0.0280   -5.5479 -0.000000 -0.000000 -0.000001 -0.000004 -0.000011 -0.000043 -0.000114 -0.000405 -0.000738 -0.002108
                                -0.000113 -0.024566  0.036215 -0.025050  0.125857 -0.169083  0.124210 -0.290241  0.318108 -0.151305
                                 0.065275 -0.097352  0.261616 -0.564622  1.328682 -0.000000 -0.000000 -0.000001 -0.000003 -0.000014
                                -0.000016 -0.000064  0.000084 -0.001886  0.003480 -0.003334  0.003582 -0.006071  0.005389 -0.001864
                                 0.001801 -0.000152 -0.000061 -0.000019  0.000011 -0.000414  0.000171  0.000382 -0.000132 -0.000986
                                 0.000008 -0.000155 -0.000431  0.000015 -0.000000 -0.000068 -0.000001  0.000084  0.000002 -0.000431
                                -0.003227 -0.011139 -0.017938 -0.013886 -0.007513 -0.000316 -0.000083 -0.000069 -0.000421  0.001357
                                -0.000006  0.000333 -0.000000 -0.000565  0.000001

   8.2   0     0.0908   -6.5436  0.000000  0.000000  0.000001  0.000002  0.000007  0.000023  0.000079  0.000200  0.000563  0.000826
                                 0.001831 -0.008136  0.012111 -0.012455  0.034696 -0.057268  0.038526 -0.087159  0.107116 -0.033575
                                 0.031582 -0.039677  0.069515 -0.226426  0.192336  0.000003  0.000037  0.000154  0.000894  0.001911
                                 0.006645  0.003497  0.025642 -0.300368  0.544216 -0.534828  0.515453 -0.909096  0.741082 -0.300145
                                 0.276353 -0.497577  1.333633 -0.000056 -0.000009 -0.000188 -0.000069  0.000113  0.000043 -0.000106
                                 0.000019 -0.000841  0.000245 -0.000004  0.000027  0.000489  0.000097 -0.000729  0.000040 -0.000804
                                -0.006693 -0.014645 -0.033701  0.012370 -0.174222  0.000937 -0.000061 -0.000292  0.004337 -0.008811
                                 0.000077  0.000957  0.000000 -0.004184 -0.000001

                                   1 2py     1 2py     1 2py     1 2py     1 2py     1 2py     1 2py     1 2py     1 2py     1 2py  
                                   1 2py     1 2py     1 2py     1 2py     1 2py     1 2py     1 2py     1 2py     1 2py     1 2py  
                                   1 2py     1 2py     1 2py     1 2py     1 2py     1 3d1-    1 3d1-    1 3d1-    1 3d1-    1 3d1- 
                                   1 3d1-    1 3d1-    1 3d1-    1 3d1-    1 3d1-    1 3d1-    1 3d1-    1 3d1-    1 3d1-    1 3d1- 
                                   1 3d1-    1 3d1-    1 3d1-    1 4f1-    1 4f3-    1 4f1-    1 4f3-    1 4f1-    1 4f3-    1 4f1- 
                                   1 4f3-    1 4f1-    1 4f3-    1 5g1-    1 5g3-    1 5g1-    1 5g3-    1 5g1-    1 5g3-    2 2py  
                                   2 2py     2 2py     2 2py     2 2py     2 2py     2 2py     2 2py     2 3d1-    2 3d1-    2 3d1- 
                                   2 3d1-    2 4f1-    2 4f3-    2 4f1-    2 4f3- 

   1.3   2  -113.8126 -369.4757  0.000016  0.000055  0.000203  0.000713  0.002485  0.008366  0.026118  0.072484  0.167219  0.296000
                                 0.348843  0.212945  0.000795  0.050298  0.007349 -0.004397  0.002448 -0.002278  0.001881 -0.000411
                                 0.000051 -0.000021  0.000008 -0.000004  0.000001 -0.000000 -0.000000 -0.000000 -0.000001 -0.000003
                                -0.000004 -0.000002 -0.000000  0.000002 -0.000003  0.000002 -0.000001  0.000002 -0.000001  0.000000
                                -0.000000 -0.000000 -0.000000 -0.000012  0.000009  0.000030  0.000006 -0.000026 -0.000002  0.000002
                                 0.000002 -0.000001 -0.000000 -0.000000 -0.000000  0.000000  0.000000 -0.000000 -0.000000 -0.000000
                                -0.000000 -0.000000 -0.000000 -0.000000  0.000000 -0.000000 -0.000000  0.000000  0.000000 -0.000000
                                -0.000000 -0.000000 -0.000000  0.000000  0.000000

   2.3   2   -19.3923 -124.8144 -0.000007 -0.000025 -0.000091 -0.000320 -0.001118 -0.003788 -0.011971 -0.034022 -0.081570 -0.152245
                                -0.185037 -0.030147 -0.003629  0.296689  0.487998  0.012201  0.284360  0.039704  0.007171  0.000463
                                 0.000866 -0.000054  0.000060 -0.000031  0.000008 -0.000000 -0.000000 -0.000002 -0.000006 -0.000018
                                -0.000044 -0.000076 -0.000088 -0.000032 -0.000035  0.000038 -0.000049  0.000073 -0.000060  0.000018
                                -0.000012 -0.000009 -0.000003 -0.000779  0.000228  0.002326 -0.000786 -0.001923  0.000570  0.000218
                                -0.000091 -0.000067  0.000012 -0.000006  0.000000  0.000008  0.000000 -0.000006 -0.000000 -0.000000
                                -0.000001  0.000003 -0.000001  0.000014  0.000013  0.000001  0.000000 -0.000000  0.000002 -0.000017
                                 0.000000  0.000000  0.000000  0.000003 -0.000000

   3.3   2   -12.1241 -112.9927 -0.000000 -0.000000 -0.000000 -0.000000 -0.000000 -0.000001 -0.000003 -0.000007 -0.000018 -0.000033
                                -0.000040 -0.000012  0.000006  0.000060  0.000150 -0.000040  0.000096 -0.000044  0.000064 -0.000028
                                 0.000004 -0.000003 -0.000011 -0.000001 -0.000001  0.000149  0.001274  0.007717  0.031712  0.096185
                                 0.213994  0.329594  0.338736  0.195795 -0.017544  0.034453  0.018357 -0.006761  0.005636 -0.000482
                                 0.000176 -0.000055  0.000013 -0.000165  0.000000  0.000497 -0.000000 -0.000426  0.000000  0.000054
                                 0.000000 -0.000031  0.000000 -0.000308  0.000045  0.000189 -0.000062 -0.000078  0.000010 -0.000000
                                -0.000003  0.000008 -0.000004  0.000020  0.000007  0.000004  0.000000 -0.000000  0.000006 -0.000019
                                 0.000000 -0.000005  0.000000  0.000014 -0.000000

   4.3   2    -2.2274  -47.7071  0.000003  0.000009  0.000035  0.000122  0.000428  0.001451  0.004595  0.013112  0.031659  0.059697
                                 0.073086  0.001678  0.003578 -0.157403 -0.265923 -0.040776 -0.111252  0.284106  0.056437  0.515337
                                 0.306582  0.046135 -0.002827  0.001948 -0.000564  0.000000  0.000001  0.000003  0.000014  0.000043
                                 0.000099  0.000154  0.000139  0.000090 -0.000230 -0.000063 -0.000502  0.000084 -0.000522 -0.000228
                                 0.000304  0.000020  0.000020 -0.000635 -0.002266 -0.000568  0.003197 -0.000079 -0.006094  0.000283
                                -0.002909  0.000238 -0.001161 -0.000010  0.000001  0.000009  0.000002  0.000013  0.000003  0.000010
                                 0.000075  0.000262  0.000429  0.000391 -0.000031  0.000010  0.000002 -0.000023 -0.000106 -0.000098
                                -0.000002  0.000012  0.000000  0.000027 -0.000001

   5.3   2    -0.2993  -33.5012 -0.000000 -0.000000 -0.000000 -0.000000 -0.000000 -0.000002 -0.000005 -0.000014 -0.000035 -0.000062
                                -0.000090  0.000135 -0.000204  0.000343 -0.000362  0.001013 -0.000579  0.001211 -0.002024  0.000041
                                -0.000724  0.000779  0.003227  0.002201 -0.000262 -0.000042 -0.000361 -0.002212 -0.009069 -0.028064
                                -0.062297 -0.094916 -0.080671 -0.048462  0.128607 -0.004353  0.316574 -0.096874  0.436462  0.245608
                                 0.197029  0.092165  0.001550 -0.000204 -0.000004  0.000128  0.000012 -0.000311 -0.000019 -0.000541
                                -0.000009 -0.000307 -0.000024 -0.000792 -0.000132 -0.001251 -0.000066 -0.000616 -0.000483  0.000861
                                 0.006287  0.021541  0.034735  0.026095  0.000862  0.000730  0.000171 -0.000742 -0.003048 -0.005377
                                -0.000054 -0.000000  0.000003  0.000880 -0.000013

   6.3   +    -0.7065  -16.4072 -0.000000 -0.000000 -0.000000 -0.000001 -0.000003 -0.000009 -0.000029 -0.000083 -0.000201 -0.000376
                                -0.000473  0.000115 -0.000203  0.001165  0.001126  0.001151  0.000049 -0.000541 -0.002135 -0.003051
                                -0.002470  0.002823 -0.003311  0.004495 -0.000423  0.000005  0.000043  0.000264  0.001080  0.003355
                                 0.007412  0.011389  0.009334  0.010316 -0.023694  0.008553 -0.046145  0.025145 -0.063603 -0.025498
                                -0.026906 -0.013211  0.003620  0.000019 -0.000010  0.001999  0.000007 -0.001957 -0.000026  0.002107
                                -0.000002 -0.002576  0.000009  0.000113 -0.000039  0.000444 -0.000111 -0.000081 -0.000080  0.012314
                                 0.090489  0.320423  0.504319  0.304957  0.004109  0.011110  0.002491 -0.000232 -0.000008 -0.003356
                                -0.000007 -0.005911 -0.000001 -0.003022  0.000006

   7.3   0     0.0280   -5.5479 -0.000000 -0.000000 -0.000001 -0.000004 -0.000011 -0.000043 -0.000114 -0.000405 -0.000738 -0.002108
                                -0.000113 -0.024566  0.036215 -0.025050  0.125857 -0.169083  0.124210 -0.290241  0.318108 -0.151305
                                 0.065275 -0.097352  0.261616 -0.564622  1.328682 -0.000000 -0.000000 -0.000001 -0.000003 -0.000014
                                -0.000016 -0.000064  0.000084 -0.001886  0.003480 -0.003334  0.003582 -0.006071  0.005389 -0.001864
                                 0.001801 -0.000152 -0.000061 -0.000019 -0.000011 -0.000414 -0.000171  0.000382  0.000132 -0.000986
                                -0.000008 -0.000155  0.000431  0.000015  0.000000 -0.000068  0.000001  0.000084 -0.000002 -0.000431
                                -0.003227 -0.011139 -0.017938 -0.013886 -0.007513 -0.000316 -0.000083 -0.000069 -0.000421  0.001357
                                -0.000006  0.000333  0.000000 -0.000565 -0.000001

   8.3   0     0.0908   -6.5436  0.000000  0.000000  0.000001  0.000002  0.000007  0.000023  0.000079  0.000200  0.000563  0.000826
                                 0.001831 -0.008136  0.012111 -0.012455  0.034696 -0.057268  0.038526 -0.087159  0.107116 -0.033575
                                 0.031582 -0.039677  0.069515 -0.226426  0.192336  0.000003  0.000037  0.000154  0.000894  0.001911
                                 0.006645  0.003497  0.025642 -0.300368  0.544216 -0.534828  0.515453 -0.909096  0.741082 -0.300145
                                 0.276353 -0.497577  1.333633 -0.000056  0.000009 -0.000188  0.000069  0.000113 -0.000043 -0.000106
                                -0.000019 -0.000841 -0.000245 -0.000004 -0.000027  0.000489 -0.000097 -0.000729 -0.000040 -0.000804
                                -0.006693 -0.014645 -0.033701  0.012370 -0.174222  0.000937 -0.000061 -0.000292  0.004337 -0.008811
                                 0.000077  0.000957 -0.000000 -0.004184  0.000001

                                   1 3d2-    1 3d2-    1 3d2-    1 3d2-    1 3d2-    1 3d2-    1 3d2-    1 3d2-    1 3d2-    1 3d2- 
                                   1 3d2-    1 3d2-    1 3d2-    1 3d2-    1 3d2-    1 3d2-    1 3d2-    1 3d2-    1 4f2-    1 4f2- 
                                   1 4f2-    1 4f2-    1 4f2-    1 5g2-    1 5g4-    1 5g2-    1 5g4-    1 5g2-    1 5g4-    2 3d2- 
                                   2 3d2-    2 3d2-    2 3d2-    2 4f2-    2 4f2- 

   1.4   2   -12.1240 -112.9215  0.000148  0.001271  0.007701  0.031648  0.095978  0.213554  0.329022  0.338643  0.197452 -0.018497
                                 0.035412  0.018313 -0.006629  0.005742 -0.000376  0.000273 -0.000019  0.000013 -0.000091  0.000256
                                -0.000223  0.000025 -0.000008 -0.000258 -0.000000  0.000187  0.000000 -0.000060 -0.000000  0.000001
                                -0.000002  0.000006 -0.000000  0.000001 -0.000003

   2.4   +    -0.3551  -34.4249 -0.000044 -0.000373 -0.002286 -0.009374 -0.029000 -0.064407 -0.098091 -0.083411 -0.050164  0.131188
                                -0.003444  0.325838 -0.094109  0.447497  0.251815  0.181806  0.069553 -0.002214 -0.000158 -0.000176
                                 0.000042 -0.000602  0.000229 -0.001135 -0.000000 -0.002311  0.000000 -0.002031  0.000000  0.000128
                                 0.000591  0.000961  0.000010 -0.000019 -0.000419

   3.4   0     0.0908   -6.4928  0.000002  0.000035  0.000140  0.000852  0.001728  0.006383  0.002702  0.026307 -0.318580  0.577631
                                -0.566158  0.548434 -0.961411  0.786576 -0.312801  0.291647 -0.507394  1.262912  0.000029 -0.000043
                                 0.000070  0.000073  0.000069  0.000075  0.000000  0.000208 -0.000000 -0.000007 -0.000000  0.000437
                                 0.001450  0.005553  0.000025  0.000118 -0.000561

   4.4   0     0.3044  -10.3151 -0.000014 -0.000076 -0.000697 -0.001994 -0.008986 -0.012064 -0.040146  0.040786 -1.018833  1.872033
                                -1.776919  1.896618 -3.114714  2.755668 -0.911393  1.134903 -1.978036  0.906119 -0.000364  0.002473
                                -0.002910  0.001040 -0.002604 -0.000275 -0.000000 -0.000628  0.000000  0.000069 -0.000000 -0.001611
                                -0.002575 -0.017399 -0.000046  0.000436 -0.000289

 HOMO     14.1    -0.274054 =      -7.4574eV
 LUMO     15.1     0.012520 =       0.3407eV
 LUMO-HOMO         0.286575 =       7.7981eV


 **********************************************************************************************************************************
 DATASETS  * FILE   NREC   LENGTH (MB)   RECORD NAMES
              1      22       22.21       500      610      700      900      950      970     1000      129      960     1700   
                                          VAR    BASINP    GEOM    SYMINP    ZMAT    AOBASIS   BASIS     P2S    ABASIS    OPER   
                                         1101     1401     1411     1412     1650     1100     1400     1410     1200     1210   
                                          SR      EKINR    POTR     PVPR    MOLCAS      S      EKIN      POT      H0       H01  
                                         1080     1600   
                                         AOSYM     SMH  

              2       4        3.76       700     1000      520     2100   
                                         GEOM     BASIS   MCVARS     RHF  

 PROGRAMS   *        TOTAL       RHF       INT
 CPU TIMES  *        49.78      5.12     44.51
 REAL TIME  *        53.62 SEC
 DISK USED  *         3.51 GB      
 SF USED    *         0.14 MB      
 GA USED    *         0.00 MB       (max)       0.00 MB       (current)
 **********************************************************************************************************************************
 SETTING SCF            =     -4856.07707691  AU                              
 SETTING _CC_NORM_MAX   =         2.00000000                                  


 PROGRAM * CCSD (Restricted open-shell coupled cluster)     Authors: C. Hampel, H.-J. Werner, 1991, M. Deegan, P.J. Knowles, 1992


 Convergence thresholds:  THRVAR = 1.00D-08  THRDEN = 1.06D-06

 CCSD(T)     terms to be evaluated (factor= 1.000)


 Number of core orbitals:          15 (   8   3   3   1 )
 Number of closed-shell orbitals:  10 (   6   2   2   0 )
 Number of active  orbitals:        3 (   0   1   1   1 )
 Number of external orbitals:     302 ( 131  69  69  33 )

 Memory could be reduced to 158.45 Mwords without degradation in triples

 Number of N-1 electron functions:              23
 Number of N-2 electron functions:             253
 Number of singly external CSFs:              2306
 Number of doubly external CSFs:           4633214
 Total number of CSFs:                     4635520

 Molecular orbitals read from record     2100.2  Type=RHF/CANONICAL (state 1.1)

 Integral transformation finished. Total CPU:   5.06 sec, npass=  1  Memory used:  17.35 MW

 Starting RMP2 calculation

 Wavefunction is spin-projected

 ITER.      SQ.NORM     CORR.ENERGY   TOTAL ENERGY   ENERGY CHANGE        DEN1      VAR(S)    VAR(P)  DIIS     TIME
   1      1.17252852    -0.84434743 -4856.92142434    -0.84434743    -0.00838071  0.59D-04  0.29D-02  1  1     5.74
   2      1.18100065    -0.85391331 -4856.93099022    -0.00956588    -0.00014112  0.37D-05  0.81D-04  2  2     6.22
   3      1.18245712    -0.85470325 -4856.93178016    -0.00078994    -0.00000421  0.51D-06  0.24D-05  3  3     6.72
   4      1.18261727    -0.85474047 -4856.93181738    -0.00003722    -0.00000019  0.87D-07  0.66D-07  4  4     7.30
   5      1.18262739    -0.85474152 -4856.93181843    -0.00000105    -0.00000002  0.13D-07  0.19D-08  5  5     7.83
   6      1.18262805    -0.85474154 -4856.93181845    -0.00000002    -0.00000000  0.11D-08  0.20D-09  6  6     8.49

 Norm of t1 vector:      0.04842536      S-energy:    -0.00680772      T1 diagnostic:  0.00086631
 Norm of t2 vector:      0.42459750      P-energy:    -0.84793382
                                         Alpha-Beta:  -0.59206243
                                         Alpha-Alpha: -0.15534330
                                         Beta-Beta:   -0.10052809

 Spin contamination <S**2-Sz**2-Sz>     0.00000000
  Reference energy                  -4856.077076912080
  RHF-RMP2 correlation energy          -0.854741541286
 !RHF-RMP2 energy                   -4856.931818453366
 (NB above energy spin projected)

 Starting RCCSD calculation

 ITER.      SQ.NORM     CORR.ENERGY   TOTAL ENERGY   ENERGY CHANGE        DEN1      VAR(S)    VAR(P)  DIIS     TIME
   1      1.15284956    -0.80904554 -4856.88612245    -0.80904554    -0.01608514  0.17D-02  0.28D-02  1  1    13.10
   2      1.16678599    -0.82418049 -4856.90125741    -0.01513495    -0.00178632  0.53D-03  0.47D-03  2  2    17.47
   3      1.17674845    -0.82762961 -4856.90470652    -0.00344911    -0.00073761  0.50D-03  0.12D-03  3  3    21.93
   4      1.18726349    -0.82930962 -4856.90638653    -0.00168001    -0.00050538  0.35D-03  0.83D-04  4  4    26.39
   5      1.21038201    -0.83111800 -4856.90819491    -0.00180838    -0.00038335  0.31D-03  0.46D-04  5  5    30.93
   6      1.24491281    -0.83279037 -4856.90986728    -0.00167236    -0.00027809  0.21D-03  0.41D-04  6  6    35.50
   7      1.34789817    -0.83570971 -4856.91278662    -0.00291934    -0.00011923  0.62D-04  0.32D-04  7  7    40.15
   8      1.40394394    -0.83671768 -4856.91379459    -0.00100797    -0.00004741  0.20D-04  0.17D-04  8  8    44.70
   9      1.46326454    -0.83778506 -4856.91486197    -0.00106738    -0.00001422  0.42D-05  0.59D-05  9  9    49.40
  10      1.46756166    -0.83783377 -4856.91491068    -0.00004871    -0.00000551  0.18D-05  0.22D-05 10 10    54.12
  11      1.47448687    -0.83794343 -4856.91502034    -0.00010966    -0.00000199  0.64D-06  0.80D-06 11 11    58.90
  12      1.48090377    -0.83804556 -4856.91512247    -0.00010213    -0.00000043  0.17D-06  0.15D-06 12 12    63.71
  13      1.48170436    -0.83805925 -4856.91513616    -0.00001369    -0.00000019  0.92D-07  0.57D-07 13 13    68.63
  14      1.48211331    -0.83806794 -4856.91514486    -0.00000869    -0.00000008  0.47D-07  0.18D-07 14 14    73.57
  15      1.48178564    -0.83806373 -4856.91514065     0.00000421    -0.00000004  0.31D-07  0.97D-08 15 15    78.60
  16      1.48188402    -0.83806623 -4856.91514314    -0.00000250    -0.00000004  0.29D-07  0.76D-08 15  1    83.62
  17      1.48187256    -0.83806644 -4856.91514335    -0.00000021    -0.00000003  0.26D-07  0.62D-08 15  2    88.61
  18      1.48184179    -0.83806845 -4856.91514536    -0.00000201    -0.00000002  0.20D-07  0.30D-08 15  3    93.62
  19      1.48181528    -0.83806849 -4856.91514540    -0.00000004    -0.00000002  0.18D-07  0.25D-08 15  4    98.63
  20      1.48191517    -0.83807179 -4856.91514871    -0.00000331    -0.00000002  0.16D-07  0.19D-08 15  5   103.58
  21      1.48184375    -0.83807227 -4856.91514918    -0.00000047    -0.00000001  0.14D-07  0.14D-08 15  9   108.55
  22      1.48178833    -0.83807371 -4856.91515063    -0.00000145    -0.00000001  0.11D-07  0.12D-08 15  6   113.45
  23      1.48179155    -0.83807381 -4856.91515072    -0.00000010    -0.00000001  0.11D-07  0.12D-08 15  8   118.48
