
 Primary working directories    : /global/cscratch1/sd/haihan
 Secondary working directories  : /global/cscratch1/sd/haihan
 Wavefunction directory         : /global/homes/h/haihan/Research/ECP/f_group_element_ecps/Zr/Molpro/molecule/ZrH/UC/wfu/
 Main file repository           : /global/cscratch1/sd/haihan/

 SHA1      : 19cd028119e0e09f93f0674bd8af7968d9b3eff6
 NAME      : 2015.1.36
 ARCHNAME  : linux/x86_64
 FC        : /opt/cray/pe/craype/2.5.14/bin/ftn
 BLASLIB   : -L/opt/intel/compilers_and_libraries_2018.1.163/linux/mkl/lib/intel64 -Wl,-_start-group -lmkl_intel_ilp64 -lmkl_intel_thread -lmkl_core -Wl,-_end-group -liomp5
 id        : lbl

 Nodes     nprocs
 nid01441    11
 Number of processes for MPI-2 version of Molpro:   nprocs(total)=   12   nprocs(compute)=   11   nprocs(helper)=    1

 Using customized tuning parameters: mindgm=7; mindgv=16; mindgc=1; mindgr=1; noblas=0; minvec=7
 default implementation of scratch files=sf  

 ***,Calculation for all-electron YH molecule, SCF and CCSD(T)
 memory,1,g
 gthresh,twoint=1.0E-15
 gthresh,throvl=1.0E-15
 
 set,dkroll=1,dkho=10,dkhp=4
 basis={
 Including file /global/u2/h/haihan/Research/ECP/f_group_element_ecps/Zr/Molpro/molecule/ZrH/UC/r_1.30/../generate/Zr-aug-cc-pwCVTZ.basis
 Including file /global/u2/h/haihan/Research/ECP/f_group_element_ecps/Zr/Molpro/molecule/ZrH/UC/r_1.30/../generate/H-aug-cc-pVTZ.basis
 }
 
 Zr_ccsd=-3596.607176
 H_ccsd=-0.49982785
 
                                                                                 !These are the wf cards parameters
 ne = 41
 symm = 1
 ss= 1
 
                                                                                 !There are irrep cards paramters
 A1=12
 B1=4
 B2=4
 A2=1
 
 
 geometry={
     2
     YH molecule
     Zr 0.0 0.0 0.0
     H 0.0 0.0 1.30
 }
 {rhf,nitord=100;
  maxit,200;
  wf,ne,symm,ss
  occ,A1,B1,B2,A2
  closed,A1-1,B1,B2,A2
  print,orbitals=2
 }
 scf=energy
 _CC_NORM_MAX=2.0
 {rccsd(t),shifts=0.2,shiftp=0.2,thrdis=1.0;diis,1,1,15,1;maxit,100;core,7,3,3,1}
 ccsd=energy
 bind=ccsd-Zr_ccsd-H_ccsd
 
 
 table,1.30,scf,ccsd,bind
 save
 type,csv
 

 Variables initialized (889), CPU time= 0.01 sec
 Commands  initialized (702), CPU time= 0.01 sec, 572 directives.
 Default parameters read. Elapsed time= 0.11 sec

 Checking input...
 Passed
1


                                         ***  PROGRAM SYSTEM MOLPRO  ***
                                       Copyright, TTI GmbH Stuttgart, 2015
                                    Version 2015.1 linked Dec 29 2018 15:55:43


 **********************************************************************************************************************************
 LABEL *   Calculation for all-electron YH molecule, SCF and CCSD(T)                     
  64 bit mpp version                                                                     DATE: 24-Sep-22          TIME: 17:58:04  
 **********************************************************************************************************************************

 SHA1:             19cd028119e0e09f93f0674bd8af7968d9b3eff6
 **********************************************************************************************************************************

 THRESHOLDS:

 ZERO    =  1.00D-12  ONEINT  =  1.00D-12  TWOINT  =  1.00D-15  PREFAC  =  1.00D-14  LOCALI  =  1.00D-09  EORDER  =  1.00D-04
 ENERGY  =  0.00D+00  ETEST   =  0.00D+00  EDENS   =  0.00D+00  THRDEDEF=  1.00D-06  GRADIENT=  1.00D-02  STEP    =  1.00D-03
 ORBITAL =  1.00D-05  CIVEC   =  1.00D-05  COEFF   =  1.00D-04  PRINTCI =  5.00D-02  PUNCHCI =  9.90D+01  OPTGRAD =  3.00D-04
 OPTENERG=  1.00D-06  OPTSTEP =  3.00D-04  THRGRAD =  1.00D-10  COMPRESS=  1.00D-11  VARMIN  =  1.00D-07  VARMAX  =  1.00D-03
 THRDOUB =  0.00D+00  THRDIV  =  1.00D-05  THRRED  =  1.00D-07  THRPSP  =  1.00D+00  THRDC   =  1.00D-10  THRCS   =  1.00D-10
 THRNRM  =  1.00D-08  THREQ   =  0.00D+00  THRDE   =  1.00D+00  THRREF  =  1.00D-05  SPARFAC =  1.00D+00  THRDLP  =  1.00D-07
 THRDIA  =  1.00D-10  THRDLS  =  1.00D-07  THRGPS  =  0.00D+00  THRKEX  =  0.00D+00  THRDIS  =  2.00D-01  THRVAR  =  1.00D-10
 THRLOC  =  1.00D-06  THRGAP  =  1.00D-06  THRLOCT = -1.00D+00  THRGAPT = -1.00D+00  THRORB  =  1.00D-06  THRMLTP =  0.00D+00
 THRCPQCI=  1.00D-10  KEXTA   =  0.00D+00  THRCOARS=  0.00D+00  SYMTOL  =  1.00D-06  GRADTOL =  1.00D-06  THROVL  =  1.00D-08
 THRORTH =  1.00D-08  GRID    =  1.00D-06  GRIDMAX =  1.00D-03  DTMAX   =  0.00D+00  THROCCDE=  1.00D-01  THROCCDE=  1.00D-01



 THRESHOLDS:

 ZERO    =  1.00D-12  ONEINT  =  1.00D-12  TWOINT  =  1.00D-15  PREFAC  =  1.00D-14  LOCALI  =  1.00D-09  EORDER  =  1.00D-04
 ENERGY  =  0.00D+00  ETEST   =  0.00D+00  EDENS   =  0.00D+00  THRDEDEF=  1.00D-06  GRADIENT=  1.00D-02  STEP    =  1.00D-03
 ORBITAL =  1.00D-05  CIVEC   =  1.00D-05  COEFF   =  1.00D-04  PRINTCI =  5.00D-02  PUNCHCI =  9.90D+01  OPTGRAD =  3.00D-04
 OPTENERG=  1.00D-06  OPTSTEP =  3.00D-04  THRGRAD =  1.00D-10  COMPRESS=  1.00D-11  VARMIN  =  1.00D-07  VARMAX  =  1.00D-03
 THRDOUB =  0.00D+00  THRDIV  =  1.00D-05  THRRED  =  1.00D-07  THRPSP  =  1.00D+00  THRDC   =  1.00D-10  THRCS   =  1.00D-10
 THRNRM  =  1.00D-08  THREQ   =  0.00D+00  THRDE   =  1.00D+00  THRREF  =  1.00D-05  SPARFAC =  1.00D+00  THRDLP  =  1.00D-07
 THRDIA  =  1.00D-10  THRDLS  =  1.00D-07  THRGPS  =  0.00D+00  THRKEX  =  0.00D+00  THRDIS  =  2.00D-01  THRVAR  =  1.00D-10
 THRLOC  =  1.00D-06  THRGAP  =  1.00D-06  THRLOCT = -1.00D+00  THRGAPT = -1.00D+00  THRORB  =  1.00D-06  THRMLTP =  0.00D+00
 THRCPQCI=  1.00D-10  KEXTA   =  0.00D+00  THRCOARS=  0.00D+00  SYMTOL  =  1.00D-06  GRADTOL =  1.00D-06  THROVL  =  1.00D-15
 THRORTH =  1.00D-08  GRID    =  1.00D-06  GRIDMAX =  1.00D-03  DTMAX   =  0.00D+00  THROCCDE=  1.00D-01  THROCCDE=  1.00D-01


 SETTING DKROLL         =         1.00000000                                  
 SETTING DKHO           =        10.00000000                                  
 SETTING DKHP           =         4.00000000                                  

 Variable memory set to 1000000000 words,  buffer space   230000 words

 SETTING BASIS          =    USERDEF
 SETTING ZR_CCSD        =     -3596.60717600                                  
 SETTING H_CCSD         =        -0.49982785                                  
 SETTING NE             =        41.00000000                                  
 SETTING SYMM           =         1.00000000                                  
 SETTING SS             =         1.00000000                                  
 SETTING A1             =        12.00000000                                  
 SETTING B1             =         4.00000000                                  
 SETTING B2             =         4.00000000                                  
 SETTING A2             =         1.00000000                                  

Geometry recognized as XYZ



 Recomputing integrals since basis changed


 Using spherical harmonics



 PROGRAM * SEWARD (Integral evaluation for generally contracted gaussian basis sets)     Author: Roland Lindh, 1990

 Geometry written to block  1 of record 700


 Point group  C2v 



 ATOMIC COORDINATES

 NR  ATOM    CHARGE       X              Y              Z

   1  ZR     40.00    0.000000000    0.000000000    0.000000000
   2  H       1.00    0.000000000    0.000000000    2.456643962

 Bond lengths in Bohr (Angstrom)

 1-2  2.456643962
     ( 1.300000000)

 NUCLEAR CHARGE:                   41
 NUMBER OF PRIMITIVE AOS:         347
 NUMBER OF SYMMETRY AOS:          295
 NUMBER OF CONTRACTIONS:          295   ( 129A1  +  67B1  +  67B2  +  32A2  )
 NUMBER OF CORE ORBITALS:          18   (   9A1  +   4B1  +   4B2  +   1A2  )
 NUMBER OF VALENCE ORBITALS:        7   (   4A1  +   1B1  +   1B2  +   1A2  )


 NUCLEAR REPULSION ENERGY   16.28237572

 One-electron integrals computed with SEWARD

 10nd-order Douglas-Kroll-Hess method activated. McWeeny DKH parametrization is used.

 Computing Douglas-Kroll / X2C integrals

 AO integral compression algorithm  1   Integral accuracy      1.0D-15

     1296.302 MB (compressed) written to integral file ( 58.1%)

     Node minimum: 49.021 MB, node maximum: 335.282 MB


 NUMBER OF SORTED TWO-ELECTRON INTEGRALS:   22432752.     BUFFER LENGTH:  32768
 NUMBER OF SEGMENTS:   2  SEGMENT LENGTH:   15996129      RECORD LENGTH: 524288

 Memory used in sort:      16.55 MW

 SORT1 READ   279023068. AND WROTE    10561986. INTEGRALS IN     31 RECORDS. CPU TIME:     5.31 SEC, REAL TIME:     6.11 SEC
 SORT2 READ   115204749. AND WROTE   246753875. INTEGRALS IN   3773 RECORDS. CPU TIME:     0.37 SEC, REAL TIME:     2.07 SEC

 Node minimum:    22405599.  Node maximum:    22490595. integrals

 OPERATOR DM      FOR CENTER  0  COORDINATES:    0.000000    0.000000    0.000000

 EXTRA SYMMETRY OF AOS IN SYMMETRY 1:   1 1 1 1 1 1 1 1 1 1   1 1 1 1 1 1 1 1 1 1   1 1 1 1 1 1 1 1 1 1   1 1 1 1 1 1 1 1 1 1
                                        1 1 1 1 1 1 1 1 1 1   1 1 1 1 1 1 1 1 1 1   2 1 2 1 2 1 2 1 2 1   2 1 2 1 2 1 2 1 2 1
                                        2 1 2 1 2 1 2 1 2 1   2 1 2 1 2 1 2 1 2 1   2 1 2 1 2 1 2 1 3 2   1 3 2 1 3 2 1 1 1 1
                                        1 1 1 1 1 1 2 1 2
 EXTRA SYMMETRY OF AOS IN SYMMETRY 2:   1 1 1 1 1 1 1 1 1 1   1 1 1 1 1 1 1 1 1 1   1 1 1 1 1 1 1 1 1 1   1 1 1 1 1 1 1 1 1 1
                                        1 1 1 1 1 1 1 1 1 2   1 2 1 2 1 2 1 2 1 2   1 2 1 1 1 1 1
 EXTRA SYMMETRY OF AOS IN SYMMETRY 3:   1 1 1 1 1 1 1 1 1 1   1 1 1 1 1 1 1 1 1 1   1 1 1 1 1 1 1 1 1 1   1 1 1 1 1 1 1 1 1 1
                                        1 1 1 1 1 1 1 1 1 2   1 2 1 2 1 2 1 2 1 2   1 2 1 1 1 1 1
 EXTRA SYMMETRY OF AOS IN SYMMETRY 4:   1 1 1 1 1 1 1 1 1 1   1 1 1 1 1 1 1 1 1 1   1 1 1 1 1 2 1 2 1 2   1 1

 Eigenvalues of metric

         1 0.116E-07 0.890E-07 0.978E-07 0.111E-06 0.512E-06 0.100E-05 0.318E-05 0.677E-05
         2 0.122E-07 0.976E-07 0.117E-06 0.104E-05 0.808E-05 0.108E-04 0.358E-04 0.404E-04
         3 0.122E-07 0.976E-07 0.117E-06 0.104E-05 0.808E-05 0.108E-04 0.358E-04 0.404E-04
         4 0.978E-07 0.108E-04 0.404E-04 0.435E-03 0.212E-02 0.595E-02 0.165E-01 0.366E-01


 **********************************************************************************************************************************
 DATASETS  * FILE   NREC   LENGTH (MB)   RECORD NAMES
              1      22       21.76       500      610      700      900      950      970     1000      129      960     1700   
                                          VAR    BASINP    GEOM    SYMINP    ZMAT    AOBASIS   BASIS     P2S    ABASIS    OPER   
                                         1101     1401     1411     1412     1650     1100     1400     1410     1200     1210   
                                          SR      EKINR    POTR     PVPR    MOLCAS      S      EKIN      POT      H0       H01  
                                         1080     1600   
                                         AOSYM     SMH  

 PROGRAMS   *        TOTAL       INT
 CPU TIMES  *        60.40     59.96
 REAL TIME  *        64.38 SEC
 DISK USED  *         2.74 GB      
 GA USED    *         0.00 MB       (max)       0.00 MB       (current)
 **********************************************************************************************************************************


 PROGRAM * RHF-SCF (OPEN SHELL)       Authors: W. Meyer, H.-J. Werner


 NUMBER OF ELECTRONS:      21+   20-    SPACE SYMMETRY=1    SPIN SYMMETRY: Doublet 
 CONVERGENCE THRESHOLDS:    1.00E-05 (Density)    1.00E-07 (Energy)
 MAX. NUMBER OF ITERATIONS:      200
 INTERPOLATION TYPE:            DIIS
 INTERPOLATION STEPS:              2 (START)      1 (STEP)
 LEVEL SHIFTS:                 -0.60 (CLOSED) -0.30 (OPEN) 

 Number of closed-shell orbitals:   20 (  11   4   4   1 )
 Number of open-shell orbitals:      1 (   1   0   0   0 )


 Orbital guess generated from atomic densities. Full valence occupancy:   13   5   5   2

 Molecular orbital dump at record        2100.2

 ITERATION    DDIFF          GRAD             ENERGY        2-EL.EN.            DIPOLE MOMENTS         DIIS   ORB.
    1      0.000D+00      0.000D+00     -3596.01657850   2703.997962    0.00000    0.00000   -4.71328    0    start
    2      0.000D+00      0.103D-01     -3596.61277487   2780.245748    0.00000    0.00000   -0.11076    1    diag,B
    3      0.903D+00      0.671D-02     -3596.64781375   2770.119798    0.00000    0.00000   -0.15965    2    diag,B
    4      0.870D-02      0.193D-02     -3596.66041236   2768.645717    0.00000    0.00000   -0.18592    3    diag,B
    5      0.120D-01      0.991D-03     -3596.67029384   2768.644498    0.00000    0.00000   -0.21066    4    diag,B
    6      0.182D-01      0.610D-03     -3596.67493723   2769.734324    0.00000    0.00000   -0.23467    5    diag,B
    7      0.131D-01      0.363D-03     -3596.67710272   2770.777325    0.00000    0.00000   -0.27224    6    diag,B
    8      0.897D-02      0.137D-03     -3596.67743018   2771.038518    0.00000    0.00000   -0.30431    7    diag,B
    9      0.215D-02      0.628D-04     -3596.67748114   2771.079056    0.00000    0.00000   -0.32863    8    diag,B
   10      0.136D-02      0.216D-04     -3596.67748687   2771.103271    0.00000    0.00000   -0.33946    9    orth
   11      0.104D-02      0.101D-04     -3596.67748832   2771.126119    0.00000    0.00000   -0.34558    9    diag,B
   12      0.519D-03      0.534D-05     -3596.67748881   2771.131457    0.00000    0.00000   -0.34940    9    diag,B
   13      0.132D-03      0.326D-05     -3596.67748901   2771.135353    0.00000    0.00000   -0.35180    9    diag,B
   14      0.140D-03      0.225D-05     -3596.67748915   2771.137264    0.00000    0.00000   -0.35422    9    diag,B
   15      0.809D-04      0.129D-05     -3596.67748920   2771.139132    0.00000    0.00000   -0.35596    9    diag,B
   16      0.131D-03      0.616D-06     -3596.67748920   2771.140268    0.00000    0.00000   -0.35659    9    diag,B
   17      0.356D-04      0.307D-06     -3596.67748921   2771.140612    0.00000    0.00000   -0.35688    9    diag,B
   18      0.224D-04      0.147D-06     -3596.67748921   2771.140561    0.00000    0.00000   -0.35696    9    diag,B
   19      0.869D-05      0.684D-07     -3596.67748921   2771.140511    0.00000    0.00000   -0.35696    0    orth

 Final alpha occupancy:  12   4   4   1
 Final beta  occupancy:  11   4   4   1

 !RHF STATE 1.1 Energy              -3596.677489206715
 Nuclear energy                        16.28237572
 One-electron energy                -4998.53012054
 Two-electron energy                 1385.57025561
 Virial quotient                       -0.91129088
 !RHF STATE 1.1 Dipole moment           0.00000000     0.00000000    -0.35696489
 Dipole moment /Debye                   0.00000000     0.00000000    -0.90725483

 ELECTRON ORBITALS
 =================


   Orb  Occ    Energy  Couls-En    Coefficients

                                   1 1s      1 1s      1 1s      1 1s      1 1s      1 1s      1 1s      1 1s      1 1s      1 1s   
                                   1 1s      1 1s      1 1s      1 1s      1 1s      1 1s      1 1s      1 1s      1 1s      1 1s   
                                   1 1s      1 1s      1 1s      1 1s      1 1s      1 1s      1 1s      1 1s      1 1s      1 1s   
                                   1 1s      1 2pz     1 2pz     1 2pz     1 2pz     1 2pz     1 2pz     1 2pz     1 2pz     1 2pz  
                                   1 2pz     1 2pz     1 2pz     1 2pz     1 2pz     1 2pz     1 2pz     1 2pz     1 2pz     1 2pz  
                                   1 2pz     1 2pz     1 2pz     1 2pz     1 2pz     1 2pz     1 2pz     1 2pz     1 2pz     1 3d0  
                                   1 3d2+    1 3d0     1 3d2+    1 3d0     1 3d2+    1 3d0     1 3d2+    1 3d0     1 3d2+    1 3d0  
                                   1 3d2+    1 3d0     1 3d2+    1 3d0     1 3d2+    1 3d0     1 3d2+    1 3d0     1 3d2+    1 3d0  
                                   1 3d2+    1 3d0     1 3d2+    1 3d0     1 3d2+    1 3d0     1 3d2+    1 3d0     1 3d2+    1 3d0  
                                   1 3d2+    1 3d0     1 3d2+    1 3d0     1 3d2+    1 3d0     1 3d2+    1 3d0     1 3d2+    1 4f0  
                                   1 4f2+    1 4f0     1 4f2+    1 4f0     1 4f2+    1 4f0     1 4f2+    1 5g0     1 5g4+    1 5g2+ 
                                   1 5g0     1 5g4+    1 5g2+    1 5g0     1 5g4+    1 5g2+    2 1s      2 1s      2 1s      2 1s   
                                   2 1s      2 1s      2 2pz     2 2pz     2 2pz     2 3d0     2 3d2+    2 3d0     2 3d2+ 

   1.1   2  -665.0625-1483.0892  0.000042  0.000111  0.000306  0.000707  0.001535  0.003175  0.006516  0.013482  0.028412  0.060272
                                 0.123435  0.225419  0.318990  0.279037 -0.004787  0.105658  0.006280  0.002711 -0.003375  0.004441
                                -0.004754  0.003867 -0.005151  0.003933 -0.000335  0.000142 -0.000089  0.000067 -0.000020  0.000015
                                -0.000001 -0.000000 -0.000000 -0.000000 -0.000000 -0.000000 -0.000000 -0.000000 -0.000001  0.000001
                                 0.000001  0.000002 -0.000027  0.000043 -0.000072  0.000171 -0.000295  0.000305 -0.000246  0.000472
                                -0.000583  0.000307 -0.000102  0.000092 -0.000076  0.000017  0.000002  0.000003  0.000000 -0.000000
                                 0.000000 -0.000000 -0.000000 -0.000000 -0.000000 -0.000000  0.000000  0.000000 -0.000000 -0.000002
                                -0.000000  0.000003  0.000000 -0.000001 -0.000000  0.000002  0.000000 -0.000009 -0.000000  0.000051
                                 0.000000 -0.000136 -0.000000  0.000375 -0.000000 -0.000340  0.000000  0.000062 -0.000000 -0.000012
                                 0.000000  0.000006 -0.000000  0.000000  0.000000  0.000000 -0.000000  0.000000  0.000000 -0.000000
                                -0.000000 -0.000000  0.000000 -0.000001 -0.000000 -0.000000  0.000000 -0.000000  0.000000 -0.000000
                                -0.000000  0.000000 -0.000000 -0.000000  0.000000 -0.000000 -0.000000 -0.000000 -0.000001  0.000005
                                -0.000024 -0.000010 -0.000000  0.000001  0.000010  0.000001  0.000000 -0.000002  0.000000

   2.1   2   -94.7830 -298.4541 -0.000014 -0.000036 -0.000101 -0.000234 -0.000508 -0.001055 -0.002177 -0.004544 -0.009722 -0.021200
                                -0.045700 -0.092288 -0.158110 -0.186361  0.004613 -0.034308  0.360990  0.542729  0.231080  0.018500
                                 0.011071  0.001380 -0.004700  0.004219 -0.000612  0.000232 -0.000192  0.000147 -0.000037  0.000033
                                -0.000002  0.000000  0.000000  0.000000  0.000000  0.000002  0.000006  0.000017  0.000048  0.000104
                                 0.000172  0.000220  0.000123  0.000044 -0.000076  0.000267 -0.000474  0.000504 -0.000416  0.000835
                                -0.001051  0.000569 -0.000194  0.000194 -0.000179  0.000042  0.000006  0.000006  0.000001  0.000000
                                 0.000000  0.000000 -0.000000  0.000000  0.000000 -0.000000 -0.000000  0.000000  0.000000 -0.000000
                                -0.000000  0.000002  0.000000 -0.000000 -0.000000  0.000002  0.000000 -0.000012 -0.000000  0.000074
                                 0.000000 -0.000208 -0.000000  0.000605  0.000000 -0.000556 -0.000000  0.000103  0.000000 -0.000031
                                 0.000000  0.000018 -0.000000  0.000001  0.000000  0.000001 -0.000000  0.000001  0.000000  0.000006
                                 0.000000 -0.000003  0.000000 -0.000002 -0.000000 -0.000000  0.000000 -0.000003 -0.000002 -0.000000
                                -0.000000  0.000000 -0.000000 -0.000001 -0.000000 -0.000000  0.000000 -0.000000 -0.000001  0.000025
                                -0.000060 -0.000023 -0.000001 -0.000007  0.000021  0.000002  0.000000 -0.000002  0.000000

   3.1   2   -84.3145 -284.2477  0.000000  0.000000  0.000000  0.000000  0.000000  0.000001  0.000001  0.000003  0.000006  0.000013
                                 0.000029  0.000058  0.000100  0.000119 -0.000005  0.000020 -0.000246 -0.000313 -0.000153  0.000021
                                -0.000109  0.000129 -0.000340  0.000320 -0.000058  0.000046 -0.000031  0.000216  0.000058 -0.000001
                                 0.000004  0.000014  0.000054  0.000210  0.000776  0.002803  0.009566  0.029702  0.080894  0.181363
                                 0.307735  0.343367  0.167437  0.035833 -0.004832  0.086930 -0.113926  0.095738 -0.053222  0.063821
                                -0.062734  0.024065 -0.004961  0.002244 -0.001605  0.000288  0.000019  0.000004  0.000000  0.000000
                                -0.000000  0.000001  0.000000  0.000003  0.000000  0.000013  0.000000  0.000047  0.000000  0.000044
                                 0.000000 -0.000009  0.000000 -0.000001  0.000000  0.000008  0.000000 -0.000028  0.000000  0.000196
                                -0.000000 -0.000506  0.000000  0.001337 -0.000000 -0.001194  0.000000  0.000218 -0.000000 -0.000028
                                 0.000000  0.000043 -0.000000  0.000024 -0.000000 -0.000005  0.000000  0.000001 -0.000000 -0.000013
                                -0.000000  0.000002  0.000000  0.000008 -0.000000  0.000001  0.000000 -0.000000 -0.000000  0.000000
                                 0.000002 -0.000000  0.000000  0.000000 -0.000000 -0.000000 -0.000000  0.000001 -0.000005 -0.000044
                                -0.000253 -0.000014  0.000001  0.000024  0.000065 -0.000001  0.000000 -0.000005 -0.000000

   4.1   2   -16.6733 -100.0144  0.000006  0.000015  0.000042  0.000097  0.000212  0.000440  0.000908  0.001899  0.004069  0.008914
                                 0.019330  0.039662  0.069678  0.087560 -0.006092  0.020222 -0.235470 -0.479326 -0.253240  0.245591
                                 0.403973  0.490934  0.250049 -0.024645  0.015132 -0.002298  0.000521 -0.000759  0.000377 -0.000012
                                 0.000023 -0.000000 -0.000000 -0.000000 -0.000001 -0.000005 -0.000016 -0.000050 -0.000140 -0.000325
                                -0.000577 -0.000685 -0.000002 -0.000146  0.001560 -0.001057  0.003864 -0.002284  0.003378 -0.004231
                                 0.005366 -0.002749  0.001044 -0.000772 -0.000420 -0.000024  0.000068  0.000040 -0.000003 -0.000000
                                 0.000000 -0.000000  0.000000 -0.000000  0.000000 -0.000001  0.000000 -0.000005  0.000000  0.000016
                                -0.000000 -0.000029  0.000000  0.000010  0.000000 -0.000010  0.000000  0.000220  0.000000 -0.001011
                                -0.000000  0.002660  0.000000 -0.007507 -0.000000  0.007166  0.000000 -0.001658 -0.000000 -0.000393
                                 0.000000  0.000180 -0.000000  0.000020  0.000000  0.000034 -0.000000 -0.000003  0.000000  0.000135
                                 0.000000 -0.000285 -0.000000 -0.000030  0.000000  0.000031  0.000000 -0.000008 -0.000002  0.000000
                                -0.000032  0.000027  0.000000 -0.000001 -0.000005  0.000000  0.000002 -0.000006  0.000088  0.000993
                                 0.000097 -0.000074 -0.000067 -0.000591 -0.000221  0.000037  0.000000  0.000153 -0.000000

   5.1   2   -13.1583  -93.4754 -0.000000 -0.000000 -0.000000 -0.000000 -0.000001 -0.000002 -0.000004 -0.000008 -0.000016 -0.000036
                                -0.000078 -0.000161 -0.000282 -0.000356  0.000026 -0.000081  0.000979  0.001935  0.000994 -0.000900
                                -0.001889 -0.002155 -0.000313 -0.000149 -0.000074 -0.000333  0.001237 -0.001660 -0.000257 -0.000169
                                -0.000014 -0.000006 -0.000023 -0.000090 -0.000333 -0.001207 -0.004151 -0.013037 -0.036476 -0.084865
                                -0.152425 -0.171638 -0.014102  0.012299  0.284688  0.033408  0.432155  0.029731  0.291643 -0.055316
                                 0.126689 -0.039764  0.012420 -0.005924  0.005377 -0.001434 -0.000295 -0.000047 -0.000008  0.000000
                                 0.000000  0.000001 -0.000000  0.000007  0.000000  0.000023  0.000000  0.000056  0.000000  0.000082
                                 0.000000  0.000101  0.000000  0.000326  0.000000  0.000699  0.000000  0.000923  0.000000 -0.000341
                                 0.000000  0.000161 -0.000000  0.000844  0.000000 -0.000958 -0.000000  0.000207  0.000000  0.000490
                                -0.000000 -0.000478  0.000000 -0.000166  0.000000 -0.000005 -0.000000 -0.000008  0.000000 -0.000027
                                 0.000000  0.000220  0.000000 -0.000047 -0.000000 -0.000031  0.000000  0.000060  0.000000  0.000000
                                -0.000016 -0.000000 -0.000000  0.000001  0.000000 -0.000000  0.000003  0.000014  0.000102 -0.000404
                                 0.001575  0.000204 -0.000044  0.000317 -0.000244  0.000005  0.000000 -0.000100  0.000000

   6.1   2    -7.3846  -83.1396 -0.000000 -0.000000 -0.000000 -0.000000 -0.000000 -0.000000 -0.000000 -0.000000 -0.000001 -0.000002
                                -0.000004 -0.000010 -0.000015 -0.000034  0.000044 -0.000052  0.000102  0.000057  0.000333 -0.000793
                                 0.001278 -0.002513  0.007638 -0.007369  0.002196  0.000595 -0.005286  0.001122 -0.000422  0.001365
                                 0.000016  0.000000  0.000000  0.000000  0.000001  0.000003  0.000011  0.000034  0.000097  0.000227
                                 0.000411  0.000465 -0.000243  0.000275 -0.001588  0.001427 -0.004571  0.003577 -0.003665  0.009806
                                -0.011836  0.006463 -0.001229  0.002062 -0.005688  0.000150  0.000142  0.000476  0.000011  0.000165
                                -0.000000  0.001479 -0.000000  0.008698 -0.000000  0.034324 -0.000000  0.100477 -0.000000  0.221164
                                -0.000000 -0.003585  0.000000  0.327729 -0.000000  0.332238 -0.000000  0.203083 -0.000000 -0.036399
                                 0.000000  0.110578 -0.000000 -0.109564  0.000000  0.081698 -0.000000 -0.007010  0.000000 -0.001696
                                -0.000000  0.000543  0.000000 -0.000016 -0.000000  0.000158  0.000000  0.000027 -0.000000  0.000860
                                -0.000000 -0.001081  0.000000 -0.000334 -0.000000  0.000096  0.000000  0.000066  0.000019 -0.000000
                                -0.000245 -0.000067  0.000000 -0.000036  0.000011 -0.000000  0.000014  0.000054  0.000462  0.004607
                                -0.000207 -0.001233 -0.000353 -0.002149 -0.000329  0.000170 -0.000000  0.000369 -0.000000

   7.1   2    -7.3822  -83.1233  0.000000  0.000000 -0.000000  0.000000 -0.000000 -0.000000  0.000000 -0.000000  0.000000 -0.000000
                                 0.000000  0.000000  0.000000  0.000000 -0.000000  0.000000 -0.000000  0.000000 -0.000000  0.000000
                                -0.000000  0.000000 -0.000000  0.000000 -0.000000  0.000000 -0.000000  0.000000 -0.000000  0.000000
                                 0.000000  0.000000 -0.000000  0.000000  0.000000  0.000000  0.000000  0.000000  0.000000  0.000000
                                 0.000000  0.000000 -0.000000  0.000000 -0.000000  0.000000 -0.000000  0.000000 -0.000000  0.000000
                                -0.000000  0.000000 -0.000000  0.000000 -0.000000  0.000000  0.000000  0.000000 -0.000000  0.000000
                                 0.000165  0.000000  0.001479  0.000000  0.008697  0.000000  0.034319  0.000000  0.100464  0.000000
                                 0.221128 -0.000000 -0.003577  0.000000  0.327689  0.000000  0.332236  0.000000  0.203091 -0.000000
                                -0.036231  0.000000  0.110152  0.000000 -0.105350 -0.000000  0.075693  0.000000 -0.004258 -0.000000
                                 0.000622  0.000000 -0.000168 -0.000000  0.000090  0.000000 -0.000007  0.000000  0.000003  0.000000
                                 0.000311 -0.000000 -0.000111 -0.000000  0.000034  0.000000 -0.000016  0.000000  0.000000  0.000068
                                -0.000000 -0.000000 -0.000109 -0.000000  0.000000  0.000015  0.000000  0.000000  0.000000  0.000000
                                -0.000000 -0.000000 -0.000000 -0.000000  0.000000  0.000000  0.000009  0.000000  0.000005

   8.1   2    -2.5068  -38.1861 -0.000002 -0.000006 -0.000016 -0.000037 -0.000080 -0.000166 -0.000342 -0.000716 -0.001531 -0.003363
                                -0.007283 -0.015037 -0.026371 -0.034342  0.004900 -0.010672  0.098186  0.202919  0.127836 -0.160875
                                -0.175650 -0.561025 -0.099546 -0.050076  0.776388  0.545225 -0.015677  0.034767 -0.017614  0.012073
                                -0.000765  0.000000  0.000000  0.000001  0.000002  0.000009  0.000029  0.000094  0.000254  0.000623
                                 0.001033  0.001566 -0.006604  0.010806 -0.023454  0.053962 -0.107454  0.116200 -0.109644  0.235844
                                -0.301286  0.170213 -0.044096  0.043518 -0.042584 -0.001290 -0.001771  0.002667  0.000163 -0.000000
                                -0.000000 -0.000004  0.000000 -0.000019 -0.000000 -0.000091  0.000000 -0.000201  0.000000 -0.001286
                                 0.000000  0.000963  0.000000 -0.001290  0.000000  0.000161  0.000000 -0.006095 -0.000000  0.035651
                                 0.000000 -0.094705 -0.000000  0.249091  0.000000 -0.214525 -0.000000  0.034378  0.000000 -0.008135
                                -0.000000 -0.001100  0.000000 -0.001724 -0.000000  0.000316  0.000000  0.000306 -0.000000  0.000323
                                -0.000000 -0.002058 -0.000000 -0.002782  0.000000 -0.000303 -0.000000  0.000617  0.000275  0.000000
                                 0.001020  0.001138  0.000000 -0.000539  0.000147  0.000000  0.000605  0.003826  0.015116  0.027930
                                -0.001074 -0.007597 -0.005695 -0.007044  0.003592  0.002314 -0.000000 -0.000552 -0.000000

   9.1   2    -1.5433  -32.9682  0.000000  0.000000  0.000001  0.000001  0.000003  0.000007  0.000014  0.000029  0.000062  0.000136
                                 0.000296  0.000610  0.001077  0.001365 -0.000096  0.000319 -0.003912 -0.008470 -0.004536  0.004751
                                 0.011155  0.017810  0.028356 -0.023622 -0.025051 -0.017968 -0.047031 -0.004770 -0.000316 -0.004418
                                 0.000091  0.000002  0.000008  0.000030  0.000112  0.000405  0.001396  0.004390  0.012341  0.028868
                                 0.052413  0.058971  0.000289 -0.009622 -0.117571 -0.039251 -0.155131 -0.091338 -0.066611 -0.089244
                                 0.327116 -0.014765  0.517186  0.340936 -0.035442  0.029765 -0.004773 -0.000463 -0.000275 -0.000001
                                -0.000000 -0.000009  0.000000 -0.000046 -0.000000 -0.000204  0.000000 -0.000503 -0.000000 -0.002251
                                 0.000000  0.001287 -0.000000 -0.002535  0.000000 -0.000587 -0.000000 -0.008484 -0.000000  0.040455
                                 0.000000 -0.096023 -0.000000  0.221244  0.000000 -0.175129 -0.000000  0.021216  0.000000 -0.015684
                                -0.000000 -0.002947  0.000000 -0.001074 -0.000000 -0.000687  0.000000 -0.000020 -0.000000  0.006728
                                 0.000000  0.009791  0.000000 -0.002240  0.000000 -0.000519  0.000000  0.001815 -0.000006 -0.000000
                                -0.000126 -0.000055  0.000000 -0.001528 -0.000013 -0.000000  0.001954  0.013364  0.053474  0.101844
                                 0.007895  0.003644 -0.012095 -0.022766  0.002820  0.003928 -0.000000  0.001131 -0.000000

  10.1   2    -0.4861  -20.0890  0.000000  0.000001  0.000003  0.000006  0.000014  0.000028  0.000058  0.000122  0.000261  0.000572
                                 0.001240  0.002558  0.004496  0.005828 -0.000743  0.001719 -0.016787 -0.035351 -0.021605  0.026561
                                 0.036406  0.101149  0.055177 -0.031015 -0.181333 -0.160062 -0.063991 -0.035053 -0.035432  0.016431
                                -0.003794 -0.000001 -0.000002 -0.000009 -0.000033 -0.000118 -0.000406 -0.001275 -0.003590 -0.008385
                                -0.015295 -0.016970 -0.004145  0.009999  0.020730  0.050825 -0.031223  0.120088 -0.068842  0.224099
                                -0.370505  0.143719 -0.219855 -0.070140 -0.103058 -0.054292 -0.029841  0.011978 -0.002862 -0.000025
                                -0.000000 -0.000231  0.000000 -0.001344 -0.000000 -0.005396  0.000000 -0.015655 -0.000000 -0.038459
                                 0.000000  0.004982 -0.000000 -0.052818  0.000000 -0.041983 -0.000000 -0.030969  0.000000  0.228668
                                -0.000000 -0.535838  0.000000  1.936944 -0.000000 -1.823350  0.000000  0.600316 -0.000000  0.090842
                                 0.000000  0.081782  0.000000  0.022375 -0.000000 -0.000620 -0.000000  0.000966  0.000000  0.015552
                                 0.000000  0.020861  0.000000  0.002627 -0.000000 -0.000392  0.000000  0.003990 -0.000023  0.000000
                                 0.004905 -0.000498  0.000000 -0.001635 -0.000371  0.000000  0.005754  0.041265  0.174771  0.463201
                                 0.338376  0.004163 -0.012671 -0.062332 -0.027397  0.004884 -0.000000  0.005617  0.000000

  11.1   2    -0.2140  -13.4131  0.000001  0.000001  0.000004  0.000009  0.000019  0.000040  0.000083  0.000175  0.000374  0.000822
                                 0.001780  0.003676  0.006450  0.008417 -0.001220  0.002639 -0.024272 -0.050546 -0.032079  0.040802
                                 0.046937  0.156597  0.032737  0.005945 -0.279214 -0.339576 -0.012746  0.273628  0.598577  0.334826
                                 0.004759  0.000000  0.000000  0.000001  0.000002  0.000008  0.000028  0.000089  0.000252  0.000584
                                 0.001079  0.001140  0.001138 -0.002118  0.001032 -0.009573  0.012157 -0.018038  0.010564 -0.016590
                                 0.019980  0.000345  0.005307  0.041559 -0.022683  0.015523 -0.041303 -0.007310  0.002094  0.000014
                                -0.000000  0.000125  0.000000  0.000728 -0.000000  0.002924  0.000000  0.008475  0.000000  0.020948
                                 0.000000 -0.002833  0.000000  0.028670  0.000000  0.022591  0.000000  0.016569 -0.000000 -0.126668
                                 0.000000  0.294252 -0.000000 -1.072551  0.000000  1.016847 -0.000000 -0.343050  0.000000 -0.084945
                                -0.000000 -0.066824  0.000000 -0.063443 -0.000000 -0.009821  0.000000 -0.000385  0.000000 -0.001802
                                -0.000000  0.000441  0.000000  0.004141 -0.000000  0.000864  0.000000  0.000120  0.000582  0.000000
                                -0.001015  0.000623 -0.000000 -0.001466  0.000245  0.000000 -0.000217 -0.001563 -0.006397 -0.013102
                                -0.048532 -0.041624  0.005461  0.012281  0.019503 -0.002420  0.000000 -0.000446 -0.000000

  12.1   +    -0.2965  -22.0718  0.000000  0.000000  0.000000  0.000000  0.000000  0.000000  0.000000  0.000000  0.000000  0.000000
                                 0.000000  0.000000  0.000000  0.000000 -0.000000  0.000000 -0.000000 -0.000000 -0.000000  0.000000
                                -0.000000  0.000000 -0.000000  0.000000 -0.000000 -0.000000  0.000000 -0.000000  0.000000 -0.000000
                                 0.000000 -0.000000 -0.000000 -0.000000 -0.000000  0.000000 -0.000000 -0.000000 -0.000000 -0.000000
                                -0.000000 -0.000000  0.000000 -0.000000  0.000000 -0.000000  0.000000 -0.000000  0.000000 -0.000000
                                 0.000000 -0.000000  0.000000 -0.000000  0.000000 -0.000000  0.000000 -0.000000 -0.000000 -0.000000
                                -0.000039  0.000000 -0.000353  0.000000 -0.002061  0.000000 -0.008265  0.000000 -0.024024  0.000000
                                -0.058508 -0.000000  0.007036  0.000000 -0.080591 -0.000000 -0.064580  0.000000 -0.041888 -0.000000
                                 0.336830  0.000000 -0.785037 -0.000000  2.966260  0.000000 -2.845276 -0.000000  0.988485  0.000000
                                 0.233074 -0.000000  0.208534  0.000000  0.162983 -0.000000  0.010639  0.000000  0.003748  0.000000
                                 0.001288 -0.000000  0.000702  0.000000 -0.004239  0.000000 -0.002755  0.000000  0.000000 -0.001437
                                 0.000000  0.000000 -0.002582  0.000000  0.000000 -0.000935 -0.000000 -0.000000  0.000000 -0.000000
                                -0.000000  0.000000  0.000000 -0.000000  0.000000 -0.000000  0.000978  0.000000 -0.001061

  13.1   0     0.0115   -5.7403  0.000000  0.000000  0.000000  0.000001  0.000001  0.000002  0.000005  0.000011  0.000022  0.000052
                                 0.000100  0.000245  0.000311  0.001009 -0.001729  0.001998 -0.003013 -0.000010 -0.012679  0.029953
                                -0.055468  0.098833 -0.286566  0.280081 -0.096691  0.079155 -0.256746  0.842726  0.027477  0.154645
                                -0.533297 -0.000000 -0.000001 -0.000003 -0.000011 -0.000039 -0.000133 -0.000425 -0.001176 -0.002813
                                -0.004920 -0.006321  0.013358 -0.021156  0.053584 -0.106015  0.224779 -0.228673  0.225579 -0.483620
                                 0.613055 -0.366645  0.068041 -0.163692  0.070015  0.236911  0.617089 -0.336466  0.932077  0.000006
                                 0.000000  0.000056 -0.000000  0.000330  0.000000  0.001308 -0.000000  0.003868  0.000000  0.008579
                                -0.000000 -0.000176  0.000000  0.012342 -0.000000  0.011321  0.000000  0.000207 -0.000000 -0.008933
                                -0.000000 -0.004918  0.000000 -0.072832 -0.000000  0.069025  0.000000 -0.068312  0.000000 -0.080727
                                -0.000000  0.077166  0.000000  0.075809 -0.000000 -0.057887  0.000000 -0.106565 -0.000000 -0.000610
                                 0.000000  0.001403  0.000000  0.035295  0.000000  0.033105  0.000000 -0.000196  0.000341 -0.000000
                                 0.004020  0.001027 -0.000000  0.006541  0.000800  0.000000  0.000064  0.000249  0.003822 -0.069807
                                -0.797320  0.304020  0.004421  0.020798  0.134295 -0.002188  0.000000  0.010337 -0.000000

  14.1   0     0.0222   -3.7831  0.000000  0.000000  0.000001  0.000002  0.000004  0.000009  0.000019  0.000040  0.000083  0.000193
                                 0.000387  0.000887  0.001278  0.003070 -0.004119  0.004866 -0.009092 -0.004387 -0.032151  0.072829
                                -0.123834  0.240353 -0.643855  0.628031 -0.233840  0.159574 -0.322888  0.150931 -1.651416 -3.255217
                                -2.920432  0.000000  0.000000  0.000000  0.000001  0.000002  0.000012  0.000015  0.000121  0.000040
                                 0.000834 -0.002184  0.053282 -0.088566  0.168666 -0.446658  0.857262 -0.986583  0.926499 -2.151415
                                 2.894872 -1.700828  0.680064 -0.975230  1.014819 -0.648877 -0.453259 -2.106230 -0.525967  0.000001
                                -0.000000  0.000015 -0.000000  0.000061 -0.000000  0.000357 -0.000000  0.000562 -0.000000  0.007451
                                 0.000000 -0.007076 -0.000000  0.006541  0.000000 -0.004645 -0.000000  0.047868  0.000000 -0.319304
                                -0.000000  0.921760  0.000000 -2.812811 -0.000000  2.658811  0.000000 -0.574315 -0.000000  0.234216
                                 0.000000 -0.337330 -0.000000 -0.105412  0.000000 -0.338039 -0.000000 -0.373967  0.000000  0.000305
                                 0.000000  0.001204  0.000000 -0.033274 -0.000000 -0.092896  0.000000  0.000399  0.000180 -0.000000
                                -0.001795  0.000777 -0.000000 -0.015987  0.000799 -0.000000  0.000128  0.001261  0.003408  0.077563
                                 1.388325  6.695905  0.000356 -0.011887 -0.176069 -0.000685 -0.000000 -0.007839  0.000000

                                   1 2px     1 2px     1 2px     1 2px     1 2px     1 2px     1 2px     1 2px     1 2px     1 2px  
                                   1 2px     1 2px     1 2px     1 2px     1 2px     1 2px     1 2px     1 2px     1 2px     1 2px  
                                   1 2px     1 2px     1 2px     1 2px     1 2px     1 2px     1 2px     1 2px     1 3d1+    1 3d1+ 
                                   1 3d1+    1 3d1+    1 3d1+    1 3d1+    1 3d1+    1 3d1+    1 3d1+    1 3d1+    1 3d1+    1 3d1+ 
                                   1 3d1+    1 3d1+    1 3d1+    1 3d1+    1 3d1+    1 3d1+    1 3d1+    1 3d1+    1 4f1+    1 4f3+ 
                                   1 4f1+    1 4f3+    1 4f1+    1 4f3+    1 4f1+    1 4f3+    1 5g1+    1 5g3+    1 5g1+    1 5g3+ 
                                   1 5g1+    1 5g3+    2 2px     2 2px     2 2px     2 3d1+    2 3d1+ 

   1.2   2   -84.3143 -284.2464  0.000014  0.000054  0.000210  0.000776  0.002803  0.009566  0.029702  0.080894  0.181362  0.307736
                                 0.343361  0.167551  0.035650 -0.004506  0.086132 -0.112504  0.094223 -0.051965  0.061380 -0.059743
                                 0.022526 -0.004467  0.001790 -0.001231  0.000128 -0.000024  0.000009 -0.000002  0.000000  0.000000
                                 0.000000  0.000003  0.000020  0.000030 -0.000002  0.000013 -0.000000 -0.000003  0.000003 -0.000012
                                 0.000031 -0.000028  0.000005 -0.000002  0.000002  0.000004 -0.000000  0.000000  0.000007 -0.000009
                                 0.000001 -0.000002  0.000001 -0.000001  0.000002  0.000000  0.000001 -0.000000 -0.000000  0.000000
                                 0.000001  0.000000  0.000000  0.000001 -0.000008 -0.000000  0.000000

   2.2   2   -13.1570  -93.4657 -0.000006 -0.000023 -0.000090 -0.000333 -0.001207 -0.004151 -0.013038 -0.036478 -0.084868 -0.152432
                                -0.171641 -0.014199  0.012456  0.284411  0.034166  0.430780  0.031301  0.290227 -0.052240  0.122603
                                -0.037354  0.011353 -0.003821  0.002654 -0.000358  0.000035 -0.000022  0.000006  0.000000  0.000002
                                 0.000012  0.000045  0.000125  0.000303  0.000009  0.000539  0.000547  0.000285  0.000177 -0.000393
                                 0.001254 -0.001114  0.000198 -0.000183  0.000058 -0.000035  0.000000  0.000000  0.000101 -0.000055
                                -0.000156  0.000116 -0.000028 -0.000012 -0.000007  0.000008  0.000021  0.000000 -0.000066 -0.000000
                                 0.000010 -0.000000  0.000004  0.000108  0.000081 -0.000014 -0.000068

   3.2   2    -7.3736  -83.0742  0.000000  0.000000  0.000000  0.000001  0.000002  0.000006  0.000020  0.000055  0.000129  0.000231
                                 0.000261 -0.000066  0.000120 -0.000673  0.000588 -0.001903  0.001211 -0.001769  0.002798 -0.003516
                                 0.001913 -0.000478  0.000852 -0.001040 -0.000032 -0.000064  0.000005 -0.000001  0.000165  0.001476
                                 0.008682  0.034260  0.100285  0.220695 -0.003520  0.327193  0.332219  0.204007 -0.036095  0.110565
                                -0.105270  0.075766 -0.004499 -0.000018 -0.000071 -0.000022 -0.000018  0.000004  0.000625  0.000001
                                -0.000533  0.000000 -0.000007  0.000000 -0.000017 -0.000000  0.000070 -0.000012 -0.000122  0.000041
                                 0.000032 -0.000007  0.000058  0.000376  0.000173 -0.000105 -0.000240

   4.2   2    -1.4875  -33.5403  0.000002  0.000008  0.000031  0.000116  0.000419  0.001445  0.004540  0.012775  0.029843  0.054322
                                 0.060558  0.009793 -0.025749 -0.091881 -0.118480 -0.013798 -0.259678  0.078128 -0.399483  0.727646
                                -0.216212  0.598384  0.288505  0.046435  0.046290  0.000578  0.001178 -0.000288 -0.000001 -0.000005
                                -0.000028 -0.000111 -0.000327 -0.000709 -0.000024 -0.001083 -0.001114  0.000390 -0.002061  0.013096
                                -0.039981  0.042096 -0.006940  0.002560 -0.002790  0.000064 -0.000050  0.000002 -0.001358  0.002171
                                -0.002721  0.005115 -0.003149  0.003499 -0.000056 -0.000050  0.000316  0.000012 -0.000329 -0.000013
                                -0.000271 -0.000025  0.002317  0.001029 -0.000678 -0.000949  0.000891

   5.2   0     0.0127   -5.4271 -0.000000 -0.000001 -0.000003 -0.000012 -0.000044 -0.000148 -0.000481 -0.001297 -0.003206 -0.005294
                                -0.008137  0.037200 -0.060625  0.130801 -0.305394  0.611101 -0.669301  0.641473 -1.442416  1.894441
                                -1.119758  0.361786 -0.635884  0.565122 -0.123715  0.436915 -0.182285  0.964887  0.000001  0.000010
                                 0.000062  0.000242  0.000733  0.001400  0.000224  0.002173  0.002383 -0.001570  0.008722 -0.030214
                                 0.069749 -0.062386  0.000464 -0.011842  0.008058  0.015365 -0.008370 -0.059174 -0.000386  0.000302
                                -0.001722  0.002048  0.004731  0.005758  0.020411  0.004251 -0.000063 -0.000036  0.001002 -0.000139
                                 0.004009 -0.000218  0.001013 -0.004545 -0.076734  0.000146  0.007334

   6.2   0     0.0417   -4.9453  0.000000  0.000000  0.000001  0.000003  0.000010  0.000039  0.000107  0.000354  0.000667  0.001720
                                -0.000146  0.035489 -0.059203  0.109453 -0.297292  0.563819 -0.653075  0.605670 -1.393099  1.864612
                                -1.075390  0.433502 -0.538494  0.537513 -0.187410  0.180995 -0.471455  0.436220 -0.000008 -0.000064
                                -0.000421 -0.001479 -0.005179 -0.001379 -0.011243 -0.008802 -0.025365  0.076396 -0.494053  1.463358
                                -4.290996  4.034803 -0.774196  0.463930 -0.384454  0.448694 -0.436025  1.100932  0.000718 -0.000092
                                 0.000760 -0.000579  0.006792 -0.001512  0.000349 -0.001335  0.000106  0.000247  0.000170  0.000814
                                 0.005595  0.000690  0.003032  0.001569 -0.045510 -0.000951  0.003156

                                   1 2py     1 2py     1 2py     1 2py     1 2py     1 2py     1 2py     1 2py     1 2py     1 2py  
                                   1 2py     1 2py     1 2py     1 2py     1 2py     1 2py     1 2py     1 2py     1 2py     1 2py  
                                   1 2py     1 2py     1 2py     1 2py     1 2py     1 2py     1 2py     1 2py     1 3d1-    1 3d1- 
                                   1 3d1-    1 3d1-    1 3d1-    1 3d1-    1 3d1-    1 3d1-    1 3d1-    1 3d1-    1 3d1-    1 3d1- 
                                   1 3d1-    1 3d1-    1 3d1-    1 3d1-    1 3d1-    1 3d1-    1 3d1-    1 3d1-    1 4f1-    1 4f3- 
                                   1 4f1-    1 4f3-    1 4f1-    1 4f3-    1 4f1-    1 4f3-    1 5g1-    1 5g3-    1 5g1-    1 5g3- 
                                   1 5g1-    1 5g3-    2 2py     2 2py     2 2py     2 3d1-    2 3d1- 

   1.3   2   -84.3143 -284.2464  0.000014  0.000054  0.000210  0.000776  0.002803  0.009566  0.029702  0.080894  0.181362  0.307736
                                 0.343361  0.167551  0.035649 -0.004506  0.086132 -0.112502  0.094222 -0.051964  0.061379 -0.059741
                                 0.022525 -0.004467  0.001790 -0.001231  0.000128 -0.000024  0.000009 -0.000002  0.000000  0.000000
                                 0.000000  0.000003  0.000020  0.000030 -0.000002  0.000013 -0.000000 -0.000003  0.000003 -0.000012
                                 0.000031 -0.000028  0.000005 -0.000002  0.000002  0.000004 -0.000000  0.000000  0.000007  0.000009
                                 0.000001  0.000002  0.000001  0.000001  0.000002 -0.000000  0.000001  0.000000 -0.000000 -0.000000
                                 0.000001 -0.000000  0.000000  0.000001 -0.000008 -0.000000  0.000000

   2.3   2   -13.1570  -93.4657 -0.000006 -0.000023 -0.000090 -0.000333 -0.001207 -0.004151 -0.013038 -0.036478 -0.084868 -0.152432
                                -0.171641 -0.014199  0.012456  0.284411  0.034167  0.430779  0.031302  0.290226 -0.052239  0.122602
                                -0.037353  0.011353 -0.003821  0.002654 -0.000358  0.000035 -0.000022  0.000006  0.000000  0.000002
                                 0.000012  0.000045  0.000125  0.000303  0.000009  0.000539  0.000547  0.000285  0.000177 -0.000393
                                 0.001254 -0.001114  0.000198 -0.000183  0.000058 -0.000035  0.000000  0.000000  0.000101  0.000055
                                -0.000156 -0.000116 -0.000028  0.000012 -0.000007 -0.000008  0.000021 -0.000000 -0.000066  0.000000
                                 0.000010  0.000000  0.000004  0.000108  0.000081 -0.000014 -0.000068

   3.3   2    -7.3736  -83.0742  0.000000  0.000000  0.000000  0.000001  0.000002  0.000006  0.000020  0.000055  0.000129  0.000231
                                 0.000261 -0.000066  0.000120 -0.000673  0.000588 -0.001903  0.001211 -0.001769  0.002798 -0.003516
                                 0.001913 -0.000478  0.000852 -0.001040 -0.000032 -0.000064  0.000005 -0.000001  0.000165  0.001476
                                 0.008682  0.034260  0.100285  0.220695 -0.003520  0.327193  0.332219  0.204007 -0.036095  0.110565
                                -0.105270  0.075767 -0.004499 -0.000018 -0.000071 -0.000022 -0.000018  0.000004  0.000625 -0.000001
                                -0.000533 -0.000000 -0.000007 -0.000000 -0.000017  0.000000  0.000070  0.000012 -0.000122 -0.000041
                                 0.000032  0.000007  0.000058  0.000376  0.000173 -0.000105 -0.000240

   4.3   2    -1.4875  -33.5403  0.000002  0.000008  0.000031  0.000116  0.000419  0.001445  0.004540  0.012775  0.029843  0.054322
                                 0.060558  0.009793 -0.025749 -0.091881 -0.118480 -0.013798 -0.259679  0.078128 -0.399483  0.727646
                                -0.216212  0.598384  0.288505  0.046435  0.046290  0.000578  0.001178 -0.000288 -0.000001 -0.000005
                                -0.000028 -0.000111 -0.000327 -0.000709 -0.000024 -0.001083 -0.001114  0.000390 -0.002061  0.013096
                                -0.039981  0.042096 -0.006940  0.002560 -0.002790  0.000064 -0.000050  0.000002 -0.001358 -0.002171
                                -0.002721 -0.005115 -0.003149 -0.003499 -0.000056  0.000050  0.000316 -0.000012 -0.000329  0.000013
                                -0.000271  0.000025  0.002317  0.001029 -0.000678 -0.000949  0.000891

   5.3   0     0.0127   -5.4271 -0.000000 -0.000001 -0.000003 -0.000012 -0.000044 -0.000148 -0.000481 -0.001297 -0.003206 -0.005294
                                -0.008137  0.037200 -0.060625  0.130801 -0.305394  0.611101 -0.669301  0.641473 -1.442416  1.894441
                                -1.119758  0.361786 -0.635884  0.565122 -0.123715  0.436915 -0.182285  0.964887  0.000001  0.000010
                                 0.000062  0.000242  0.000733  0.001400  0.000224  0.002173  0.002383 -0.001570  0.008722 -0.030214
                                 0.069749 -0.062386  0.000464 -0.011842  0.008058  0.015365 -0.008370 -0.059174 -0.000386 -0.000302
                                -0.001722 -0.002048  0.004731 -0.005758  0.020411 -0.004251 -0.000063  0.000036  0.001002  0.000139
                                 0.004009  0.000218  0.001013 -0.004545 -0.076734  0.000146  0.007334

   6.3   0     0.0417   -4.9453  0.000000  0.000000  0.000001  0.000003  0.000010  0.000039  0.000107  0.000354  0.000667  0.001720
                                -0.000146  0.035489 -0.059204  0.109453 -0.297292  0.563820 -0.653075  0.605670 -1.393099  1.864612
                                -1.075390  0.433502 -0.538493  0.537513 -0.187410  0.180995 -0.471455  0.436220 -0.000008 -0.000064
                                -0.000421 -0.001479 -0.005179 -0.001379 -0.011243 -0.008802 -0.025365  0.076396 -0.494053  1.463358
                                -4.290995  4.034803 -0.774196  0.463930 -0.384454  0.448694 -0.436025  1.100932  0.000718  0.000092
                                 0.000760  0.000579  0.006792  0.001512  0.000349  0.001335  0.000106 -0.000247  0.000170 -0.000814
                                 0.005595 -0.000690  0.003032  0.001569 -0.045510 -0.000951  0.003156

                                   1 3d2-    1 3d2-    1 3d2-    1 3d2-    1 3d2-    1 3d2-    1 3d2-    1 3d2-    1 3d2-    1 3d2- 
                                   1 3d2-    1 3d2-    1 3d2-    1 3d2-    1 3d2-    1 3d2-    1 3d2-    1 3d2-    1 3d2-    1 3d2- 
                                   1 4f2-    1 4f2-    1 4f2-    1 4f2-    1 5g2-    1 5g4-    1 5g2-    1 5g4-    1 5g2-    1 5g4- 
                                   2 3d2-    2 3d2- 

   1.4   2    -7.3730  -83.0705  0.000165  0.001476  0.008683  0.034264  0.100295  0.220735 -0.003540  0.327236  0.332221  0.204065
                                -0.036726  0.112101 -0.109118  0.078931 -0.004958  0.000546 -0.000248  0.000036 -0.000011  0.000002
                                 0.000313 -0.000114  0.000043 -0.000015  0.000055 -0.000000 -0.000063  0.000000  0.000013 -0.000000
                                 0.000008 -0.000006

   2.4   0     0.0435   -4.2868 -0.000006 -0.000042 -0.000299 -0.000963 -0.003807  0.003593 -0.013494 -0.002944 -0.023277  0.091307
                                -0.594316  1.740999 -5.155097  4.849510 -0.966553  0.508425 -0.468702  0.449570 -0.524879  1.201646
                                 0.000190 -0.000117  0.000286 -0.006924 -0.000040  0.000000 -0.000004  0.000000  0.001405  0.000000
                                 0.000223 -0.000934

   3.4   0     0.0870  -13.3855  0.000023  0.000221  0.001217  0.005173  0.013775  0.049562 -0.022228  0.058526  0.021145  0.148137
                                -1.003537  2.794814 -8.777276  8.310299 -1.978881  0.483515 -0.844315  0.289465 -1.040140  0.701318
                                -0.000723 -0.000258  0.002294  0.015318  0.000186 -0.000000 -0.000425 -0.000000 -0.003902 -0.000000
                                -0.000946  0.002519

 HOMO     12.1    -0.296465 =      -8.0672eV
 LUMO     13.1     0.011520 =       0.3135eV
 LUMO-HOMO         0.307985 =       8.3807eV


 **********************************************************************************************************************************
 DATASETS  * FILE   NREC   LENGTH (MB)   RECORD NAMES
              1      22       21.76       500      610      700      900      950      970     1000      129      960     1700   
                                          VAR    BASINP    GEOM    SYMINP    ZMAT    AOBASIS   BASIS     P2S    ABASIS    OPER   
                                         1101     1401     1411     1412     1650     1100     1400     1410     1200     1210   
                                          SR      EKINR    POTR     PVPR    MOLCAS      S      EKIN      POT      H0       H01  
                                         1080     1600   
                                         AOSYM     SMH  

              2       4        3.56       700     1000      520     2100   
                                         GEOM     BASIS   MCVARS     RHF  

 PROGRAMS   *        TOTAL       RHF       INT
 CPU TIMES  *        64.31      3.87     59.96
 REAL TIME  *        69.60 SEC
 DISK USED  *         3.06 GB      
 SF USED    *         0.11 MB      
 GA USED    *         0.00 MB       (max)       0.00 MB       (current)
 **********************************************************************************************************************************
 SETTING SCF            =     -3596.67748921  AU                              
 SETTING _CC_NORM_MAX   =         2.00000000                                  


 PROGRAM * CCSD (Restricted open-shell coupled cluster)     Authors: C. Hampel, H.-J. Werner, 1991, M. Deegan, P.J. Knowles, 1992


 Convergence thresholds:  THRVAR = 1.00D-08  THRDEN = 1.00D-06

 CCSD(T)     terms to be evaluated (factor= 1.000)


 Number of core orbitals:          14 (   7   3   3   1 )
 Number of closed-shell orbitals:   6 (   4   1   1   0 )
 Number of active  orbitals:        1 (   1   0   0   0 )
 Number of external orbitals:     274 ( 117  63  63  31 )

 Memory could be reduced to 77.55 Mwords without degradation in triples

 Number of N-1 electron functions:              13
 Number of N-2 electron functions:              78
 Number of singly external CSFs:              1314
 Number of doubly external CSFs:           1235150
 Total number of CSFs:                     1236464

 Molecular orbitals read from record     2100.2  Type=RHF/CANONICAL (state 1.1)

 Integral transformation finished. Total CPU:   1.80 sec, npass=  1  Memory used:   7.65 MW

 Starting RMP2 calculation

 Wavefunction is spin-projected

 ITER.      SQ.NORM     CORR.ENERGY   TOTAL ENERGY   ENERGY CHANGE        DEN1      VAR(S)    VAR(P)  DIIS     TIME
   1      1.12083916    -0.38272397 -3597.06021317    -0.38272397    -0.00172089  0.13D-04  0.14D-02  1  1     2.10
   2      1.12457239    -0.38460416 -3597.06209337    -0.00188020    -0.00002639  0.22D-06  0.34D-04  2  2     2.31
   3      1.12520032    -0.38477934 -3597.06226855    -0.00017517    -0.00000018  0.57D-09  0.22D-06  3  3     2.50
   4      1.12522939    -0.38478363 -3597.06227284    -0.00000429    -0.00000000  0.21D-10  0.18D-08  4  4     2.61
   5      1.12522996    -0.38478366 -3597.06227287    -0.00000003    -0.00000000  0.14D-11  0.15D-10  5  5     3.08

 Norm of t1 vector:      0.02930636      S-energy:    -0.00198750      T1 diagnostic:  0.00004347
 Norm of t2 vector:      0.35266286      P-energy:    -0.38279616
                                         Alpha-Beta:  -0.28619040
                                         Alpha-Alpha: -0.05492368
                                         Beta-Beta:   -0.04168209

 Spin contamination <S**2-Sz**2-Sz>     0.00000000
  Reference energy                  -3596.677489206714
  RHF-RMP2 correlation energy          -0.384783661740
 !RHF-RMP2 energy                   -3597.062272868454
 (NB above energy spin projected)

 Starting RCCSD calculation

 ITER.      SQ.NORM     CORR.ENERGY   TOTAL ENERGY   ENERGY CHANGE        DEN1      VAR(S)    VAR(P)  DIIS     TIME
   1      1.12660018    -0.38848229 -3597.06597150    -0.38848229    -0.00876185  0.22D-02  0.32D-02  1  1     4.67
   2      1.14401162    -0.39753133 -3597.07502054    -0.00904904    -0.00092849  0.33D-03  0.60D-03  2  2     6.12
   3      1.15416811    -0.39967683 -3597.07716604    -0.00214550    -0.00018829  0.13D-03  0.11D-03  3  3     7.66
   4      1.16159853    -0.40080686 -3597.07829606    -0.00113003    -0.00002701  0.19D-04  0.15D-04  4  4     9.42
   5      1.16454156    -0.40108904 -3597.07857825    -0.00028218    -0.00000480  0.30D-05  0.31D-05  5  5    10.84
   6      1.16525747    -0.40113265 -3597.07862186    -0.00004361    -0.00000129  0.87D-06  0.89D-06  6  6    12.17
   7      1.16548310    -0.40114258 -3597.07863178    -0.00000993    -0.00000032  0.26D-06  0.20D-06  7  7    13.37
   8      1.16552790    -0.40114325 -3597.07863246    -0.00000068    -0.00000011  0.10D-06  0.57D-07  8  8    14.74
   9      1.16554372    -0.40114310 -3597.07863230     0.00000016    -0.00000005  0.47D-07  0.25D-07  9  9    16.96
  10      1.16554989    -0.40114279 -3597.07863200     0.00000030    -0.00000002  0.17D-07  0.99D-08 10 10    18.29
  11      1.16555321    -0.40114274 -3597.07863194     0.00000006    -0.00000001  0.82D-08  0.53D-08 11 11    20.72
  12      1.16555544    -0.40114274 -3597.07863194     0.00000000    -0.00000001  0.47D-08  0.33D-08 12 12    23.30

 Norm of t1 vector:      0.11496955      S-energy:    -0.00212813      T1 diagnostic:  0.02126693
                                                                       D1 diagnostic:  0.07007703
 Norm of t2 vector:      0.39030430      P-energy:    -0.39901461
                                         Alpha-Beta:  -0.30826428
                                         Alpha-Alpha: -0.05167936
                                         Beta-Beta:   -0.03907097

 Doubles amplitudes (print threshold =  0.500E-01):

         I         J         SYM. A    SYM. B    A         B      T(IJ, AB) [Alpha-Beta]

         4         4         4         4         2         2     -0.05483613

 Spin contamination <S**2-Sz**2-Sz>     0.00000000

 Memory could be reduced to 79.97 Mwords without degradation in triples
 

  Correlated core orbitals:             8.1       9.1       4.2       4.3
  Orbital energies:                    -2.5253   -1.5480   -1.5239   -1.5239
 
  RCCSD core-core energy               -0.184258821083
  RCCSD core-valence energy            -0.127723825821
  RCCSD valence correlation energy     -0.089160088572
 

 RESULTS
 =======

  Reference energy                  -3596.677489206714
  RCCSD singles energy                 -0.002128128652
  RCCSD pair energy                    -0.399014606825
  RCCSD correlation energy             -0.401142735477
  Triples (T) contribution             -0.017102193432
  Total correlation energy             -0.418244928908
 
  RHF-RCCSD energy                  -3597.078631942190
  RHF-RCCSD[T] energy               -3597.096159451158
  RHF-RCCSD-T energy                -3597.095683902775
 !RHF-RCCSD(T) energy               -3597.095734135622

 Program statistics:

 Available memory in ccsd:               999999438
 Min. memory needed in ccsd:               4025365
 Max. memory used in ccsd:                 5454294
 Max. memory used in cckext:               5318751 (12 integral passes)
 Max. memory used in cckint:               7654914 ( 1 integral passes)



 **********************************************************************************************************************************
 DATASETS  * FILE   NREC   LENGTH (MB)   RECORD NAMES
              1      22       21.76       500      610      700      900      950      970     1000      129      960     1700   
                                          VAR    BASINP    GEOM    SYMINP    ZMAT    AOBASIS   BASIS     P2S    ABASIS    OPER   
                                         1101     1401     1411     1412     1650     1100     1400     1410     1200     1210   
                                          SR      EKINR    POTR     PVPR    MOLCAS      S      EKIN      POT      H0       H01  
                                         1080     1600   
                                         AOSYM     SMH  

              2       4        3.56       700     1000      520     2100   
                                         GEOM     BASIS   MCVARS     RHF  

 PROGRAMS   *        TOTAL  RCCSD(T)       RHF       INT
 CPU TIMES  *       100.11     35.54      3.87     59.96
 REAL TIME  *       128.92 SEC
 DISK USED  *         6.41 GB      
 SF USED    *         1.07 GB      
 GA USED    *         0.00 MB       (max)       0.00 MB       (current)
 **********************************************************************************************************************************
 SETTING CCSD           =     -3597.09573414  AU                              
 SETTING BIND           =         0.01126971  AU                              
 Output type csv         
                                                                                                                                                                                                                                                                

  1.30,SCF,CCSD,BIND
   1.3,   -3596.677489,   -3597.095734,   0.01126971
                                                  

 RCCSD(T)/USERDEF energy=  -3597.095734135622

        RCCSD(T)        RHF-SCF 
  -3597.09573414  -3596.67748921
 **********************************************************************************************************************************
 Molpro calculation terminated
 Variable memory released
