<?xml version="1.0"?>
<molpro xmlns="http://www.molpro.net/schema/molpro-output"
  xmlns:xsd="http://www.w3.org/1999/XMLSchema"
  xmlns:cml="http://www.xml-cml.org/schema"
  xmlns:stm="http://www.xml-cml.org/schema"
  xmlns:xhtml="http://www.w3.org/1999/xhtml">
 <!--

 Nodes     nprocs
 nid01163    11
 Number of processes for MPI-2 version of Molpro:   nprocs(total)=   12   nprocs(compute)=   11   nprocs(helper)=    1

 Using customized tuning parameters: mindgm=7; mindgv=16; mindgc=1; mindgr=1; noblas=0; minvec=7
 default implementation of scratch files=sf

 --><job>
  <!--

 Variables initialized (889), CPU time= 0.02 sec
 Commands  initialized (702), CPU time= 0.01 sec, 572 directives.
 Default parameters read. Elapsed time= 0.13 sec

 Checking input...
 Passed
1


                                         ***  PROGRAM SYSTEM MOLPRO  ***
                                       Copyright, TTI GmbH Stuttgart, 2015
                                    Version 2015.1 linked Dec 29 2018 15:55:43


 **********************************************************************************************************************************
 LABEL *   Calculation for Lu atom, singlet and triplet
  64 bit mpp version                                                                     DATE: 06-Apr-23          TIME: 07:36:54
 **********************************************************************************************************************************

 SHA1:             19cd028119e0e09f93f0674bd8af7968d9b3eff6
 **********************************************************************************************************************************
  -->
  <!--

 THRESHOLDS:

 ZERO    =  1.00D-12  ONEINT  =  1.00D-12  TWOINT  =  1.00D-15  PREFAC  =  1.00D-14  LOCALI  =  1.00D-09  EORDER  =  1.00D-04
 ENERGY  =  0.00D+00  ETEST   =  0.00D+00  EDENS   =  0.00D+00  THRDEDEF=  1.00D-06  GRADIENT=  1.00D-02  STEP    =  1.00D-03
 ORBITAL =  1.00D-05  CIVEC   =  1.00D-05  COEFF   =  1.00D-04  PRINTCI =  5.00D-02  PUNCHCI =  9.90D+01  OPTGRAD =  3.00D-04
 OPTENERG=  1.00D-06  OPTSTEP =  3.00D-04  THRGRAD =  1.00D-10  COMPRESS=  1.00D-11  VARMIN  =  1.00D-07  VARMAX  =  1.00D-03
 THRDOUB =  0.00D+00  THRDIV  =  1.00D-05  THRRED  =  1.00D-07  THRPSP  =  1.00D+00  THRDC   =  1.00D-10  THRCS   =  1.00D-10
 THRNRM  =  1.00D-08  THREQ   =  0.00D+00  THRDE   =  1.00D+00  THRREF  =  1.00D-05  SPARFAC =  1.00D+00  THRDLP  =  1.00D-07
 THRDIA  =  1.00D-10  THRDLS  =  1.00D-07  THRGPS  =  0.00D+00  THRKEX  =  0.00D+00  THRDIS  =  2.00D-01  THRVAR  =  1.00D-10
 THRLOC  =  1.00D-06  THRGAP  =  1.00D-06  THRLOCT = -1.00D+00  THRGAPT = -1.00D+00  THRORB  =  1.00D-06  THRMLTP =  0.00D+00
 THRCPQCI=  1.00D-10  KEXTA   =  0.00D+00  THRCOARS=  0.00D+00  SYMTOL  =  1.00D-06  GRADTOL =  1.00D-06  THROVL  =  1.00D-08
 THRORTH =  1.00D-08  GRID    =  1.00D-06  GRIDMAX =  1.00D-03  DTMAX   =  0.00D+00  THROCCDE=  1.00D-01  THROCCDE=  1.00D-01



 THRESHOLDS:

 ZERO    =  1.00D-12  ONEINT  =  1.00D-15  TWOINT  =  1.00D-15  PREFAC  =  1.00D-14  LOCALI  =  1.00D-09  EORDER  =  1.00D-04
 ENERGY  =  0.00D+00  ETEST   =  0.00D+00  EDENS   =  0.00D+00  THRDEDEF=  1.00D-06  GRADIENT=  1.00D-02  STEP    =  1.00D-03
 ORBITAL =  1.00D-05  CIVEC   =  1.00D-05  COEFF   =  1.00D-04  PRINTCI =  5.00D-02  PUNCHCI =  9.90D+01  OPTGRAD =  3.00D-04
 OPTENERG=  1.00D-06  OPTSTEP =  3.00D-04  THRGRAD =  1.00D-10  COMPRESS=  1.00D-11  VARMIN  =  1.00D-07  VARMAX  =  1.00D-03
 THRDOUB =  0.00D+00  THRDIV  =  1.00D-05  THRRED  =  1.00D-07  THRPSP  =  1.00D+00  THRDC   =  1.00D-10  THRCS   =  1.00D-10
 THRNRM  =  1.00D-08  THREQ   =  0.00D+00  THRDE   =  1.00D+00  THRREF  =  1.00D-05  SPARFAC =  1.00D+00  THRDLP  =  1.00D-07
 THRDIA  =  1.00D-10  THRDLS  =  1.00D-07  THRGPS  =  0.00D+00  THRKEX  =  0.00D+00  THRDIS  =  2.00D-01  THRVAR  =  1.00D-10
 THRLOC  =  1.00D-06  THRGAP  =  1.00D-06  THRLOCT = -1.00D+00  THRGAPT = -1.00D+00  THRORB  =  1.00D-06  THRMLTP =  0.00D+00
 THRCPQCI=  1.00D-10  KEXTA   =  0.00D+00  THRCOARS=  0.00D+00  SYMTOL  =  1.00D-06  GRADTOL =  1.00D-06  THROVL  =  1.00D-08
 THRORTH =  1.00D-08  GRID    =  1.00D-06  GRIDMAX =  1.00D-03  DTMAX   =  0.00D+00  THROCCDE=  1.00D-01  THROCCDE=  1.00D-01



Geometry recognized as XYZ


 Variable memory set to 1000000000 words,  buffer space   230000 words

 SETTING BASIS          =    USERDEF

 DO I                   =         1.00000000

 Running procedure=ID1S2
  --><jobstep command="RHF-SCF" commandset="SCFPRO">
   <!--


 Recomputing integrals since basis changed


 Using spherical harmonics



 PROGRAM * SEWARD (Integral evaluation for generally contracted gaussian basis sets)     Author: Roland Lindh, 1990

 Geometry written to block  1 of record 700

 Orientation using atomic masses
 Molecule type: Atom
 Symmetry elements: X,Y,Z
 Rotational constants:       0.0000000      0.0000000      0.0000000 GHz  (calculated with average atomic masses)

 Point group  D2h


   --><cml:molecule>
    <cml:symmetry pointGroup="D2h"/>
    <cml:atomArray>
     <cml:atom id="a1" elementType="Lu" x3="0.0" y3="0.0" z3="0.0"/>
    </cml:atomArray>
    <cml:bondArray>
    </cml:bondArray>
   </cml:molecule><!--

 ATOMIC COORDINATES

 NR  ATOM    CHARGE       X              Y              Z

   1  LU     11.00    0.000000000    0.000000000    0.000000000

 NUCLEAR CHARGE:                   11
 NUMBER OF PRIMITIVE AOS:         581
 NUMBER OF SYMMETRY AOS:          442
 NUMBER OF CONTRACTIONS:          442   ( 103Ag  +  70B3u +  70B2u +  36B1g +  70B1u +  36B2g +  36B3g +  21Au  )
 NUMBER OF CORE ORBITALS:           0   (   0Ag  +   0B3u +   0B2u +   0B1g +   0B1u +   0B2g +   0B3g +   0Au  )
 NUMBER OF VALENCE ORBITALS:       10   (   4Ag  +   1B3u +   1B2u +   1B1g +   1B1u +   1B2g +   1B3g +   0Au  )


 NUCLEAR REPULSION ENERGY    0.00000000

 EXTRA SYMMETRY OF AOS IN SYMMETRY 1:   1 1 1 1 1 1 1 1 1 1   1 1 1 1 1 1 1 1 1 1   1 1 1 1 1 1 1 1 1 1   1 1 1 1 1 1 1 1 2 3
                                        2 3 2 3 2 3 2 3 2 3   2 3 2 3 2 3 2 3 2 3   2 3 2 3 2 3 2 3 2 3   2 3 2 3 2 3 2 3 2 3
                                        2 3 4 5 6 4 5 6 4 5   6 4 5 6 4 5 6 4 5 6   4 5 6
 EXTRA SYMMETRY OF AOS IN SYMMETRY 2:   1 1 1 1 1 1 1 1 1 1   1 1 1 1 1 1 1 1 1 1   1 1 1 1 1 1 1 1 1 1   1 2 3 2 3 2 3 2 3 2
                                        3 2 3 2 3 2 3 2 3 2   3 2 3 2 3 2 3 2 3 2   3 4 5 6 4 5 6 4 5 6
 EXTRA SYMMETRY OF AOS IN SYMMETRY 3:   1 1 1 1 1 1 1 1 1 1   1 1 1 1 1 1 1 1 1 1   1 1 1 1 1 1 1 1 1 1   1 2 3 2 3 2 3 2 3 2
                                        3 2 3 2 3 2 3 2 3 2   3 2 3 2 3 2 3 2 3 2   3 4 5 6 4 5 6 4 5 6
 EXTRA SYMMETRY OF AOS IN SYMMETRY 4:   1 1 1 1 1 1 1 1 1 1   1 1 1 1 1 1 1 1 1 1   1 1 2 3 2 3 2 3 2 3   2 3 2 3 2 3
 EXTRA SYMMETRY OF AOS IN SYMMETRY 5:   1 1 1 1 1 1 1 1 1 1   1 1 1 1 1 1 1 1 1 1   1 1 1 1 1 1 1 1 1 1   1 2 3 2 3 2 3 2 3 2
                                        3 2 3 2 3 2 3 2 3 2   3 2 3 2 3 2 3 2 3 2   3 4 5 6 4 5 6 4 5 6
 EXTRA SYMMETRY OF AOS IN SYMMETRY 6:   1 1 1 1 1 1 1 1 1 1   1 1 1 1 1 1 1 1 1 1   1 1 2 3 2 3 2 3 2 3   2 3 2 3 2 3
 EXTRA SYMMETRY OF AOS IN SYMMETRY 7:   1 1 1 1 1 1 1 1 1 1   1 1 1 1 1 1 1 1 1 1   1 1 2 3 2 3 2 3 2 3   2 3 2 3 2 3
 EXTRA SYMMETRY OF AOS IN SYMMETRY 8:   1 1 1 1 1 1 1 1 1 1   1 1 1 1 1 2 3 2 3 2   3

 Eigenvalues of metric

         1 0.333E-06 0.964E-06 0.340E-05 0.186E-04 0.475E-04 0.703E-04 0.799E-04 0.799E-04
         2 0.960E-06 0.179E-05 0.251E-04 0.110E-03 0.525E-03 0.525E-03 0.534E-03 0.156E-02
         3 0.960E-06 0.179E-05 0.251E-04 0.110E-03 0.525E-03 0.525E-03 0.534E-03 0.156E-02
         4 0.799E-04 0.144E-03 0.223E-02 0.632E-02 0.897E-02 0.238E-01 0.240E-01 0.240E-01
         5 0.960E-06 0.179E-05 0.251E-04 0.110E-03 0.525E-03 0.525E-03 0.534E-03 0.156E-02
         6 0.799E-04 0.144E-03 0.223E-02 0.632E-02 0.897E-02 0.238E-01 0.240E-01 0.240E-01
         7 0.799E-04 0.144E-03 0.223E-02 0.632E-02 0.897E-02 0.238E-01 0.240E-01 0.240E-01
         8 0.525E-03 0.142E-01 0.219E-01 0.528E-01 0.103E+00 0.167E+00 0.268E+00 0.268E+00


 Contracted 2-electron integrals neglected if value below      1.0D-15
 AO integral compression algorithm  1   Integral accuracy      1.0D-15

     3531.866 MB (compressed) written to integral file ( 42.0%)

     Node minimum: 157.549 MB, node maximum: 439.353 MB


 NUMBER OF SORTED TWO-ELECTRON INTEGRALS:   55640755.     BUFFER LENGTH:  32768
 NUMBER OF SEGMENTS:   2  SEGMENT LENGTH:   31980715      RECORD LENGTH: 524288

 Memory used in sort:      32.54 MW

 SORT1 READ  1050599776. AND WROTE    32408732. INTEGRALS IN     93 RECORDS. CPU TIME:    25.66 SEC, REAL TIME:    30.00 SEC
 SORT2 READ   352987961. AND WROTE   613618504. INTEGRALS IN  11627 RECORDS. CPU TIME:     0.99 SEC, REAL TIME:     2.00 SEC

 Node minimum:    55639389.  Node maximum:    55868715. integrals

 OPERATOR DM      FOR CENTER  0  COORDINATES:    0.000000    0.000000    0.000000


 **********************************************************************************************************************************
 DATASETS  * FILE   NREC   LENGTH (MB)   RECORD NAMES
              1      19       21.26       500      610      700      900      950      970     1000      129      960     1100
                                          VAR    BASINP    GEOM    SYMINP    ZMAT    AOBASIS   BASIS     P2S    ABASIS      S
                                         1400     1410     1420     1200     1210     1080     1600     1650     1700
                                           T        V       ECP      H0       H01     AOSYM     SMH    MOLCAS    OPER

 PROGRAMS   *        TOTAL       INT
 CPU TIMES  *       158.66    158.27
 REAL TIME  *       166.06 SEC
 DISK USED  *         7.80 GB
 GA USED    *         0.00 MB       (max)       0.00 MB       (current)
 **********************************************************************************************************************************


 PROGRAM * RHF-SCF (OPEN SHELL)       Authors: W. Meyer, H.-J. Werner


 NUMBER OF ELECTRONS:       6+    5-    SPACE SYMMETRY=1    SPIN SYMMETRY: Doublet
 CONVERGENCE THRESHOLDS:    1.00E-05 (Density)    1.00E-07 (Energy)
 MAX. NUMBER OF ITERATIONS:       60
 INTERPOLATION TYPE:            DIIS
 INTERPOLATION STEPS:              2 (START)      1 (STEP)
 LEVEL SHIFTS:                 -0.60 (CLOSED) -0.30 (OPEN)

 Number of closed-shell orbitals:    5 (   2   1   1   0   1   0   0   0 )
 Number of open-shell orbitals:      1 (   1   0   0   0   0   0   0   0 )



 Extra symmetries of mos in symmetry 1:   1   1   3   2
 Orbital guess generated from atomic densities. Full valence occupancy:    4   1   1   1   1   1   1   0


 Molecular orbital dump at record        4202.2

 ITERATION    DDIFF          GRAD             ENERGY        2-EL.EN.            DIPOLE MOMENTS         DIIS   ORB.
    1      0.000D+00      0.000D+00       -37.45035650     42.050797    0.00000    0.00000    0.00000    0    start
    2      0.000D+00      0.861D-02       -37.48357910     43.000969    0.00000    0.00000    0.00000    1    diag,B
    3      0.908D-02      0.226D-02       -37.49298635     43.451349    0.00000    0.00000    0.00000    2    diag,B
    4      0.771D-02      0.119D-02       -37.50607669     44.035798    0.00000    0.00000    0.00000    3    diag,B
    5      0.920D-02      0.106D-02       -37.51340254     44.325743    0.00000    0.00000    0.00000    4    diag,B
    6      0.257D-02      0.122D-02       -37.49852677     43.949300    0.00000    0.00000    0.00000    5    diag,B
    7      0.587D-02      0.735D-03       -37.49726604     43.919765    0.00000    0.00000    0.00000    6    fixocc
    8      0.330D-02      0.488D-03       -37.49858524     43.872759    0.00000    0.00000    0.00000    7    diag,B
    9      0.421D-02      0.285D-03       -37.49992218     43.896117    0.00000    0.00000    0.00000    8    diag,B
   10      0.414D-02      0.291D-03       -37.50111050     43.996184    0.00000    0.00000    0.00000    9    orth
   11      0.327D-02      0.255D-03       -37.50388455     44.080078    0.00000    0.00000    0.00000    9    diag,B
     Orbital  3.1 strongly deviates from fixed occupation: 0.88548  (now: 1.00)
     Note:  Use {hf,nitord=N} to fix occupations at iteration N
            Use {gthresh,occdev=1.0} to suppress deviation warnings
   12      0.616D-02      0.272D-03       -37.50924480     44.425139    0.00000    0.00000    0.00000    9    diag,B
   13      0.903D-02      0.275D-03       -37.51030745     44.632264    0.00000    0.00000    0.00000    9    diag,B
   14      0.294D-02      0.827D-04       -37.51051846     44.682558    0.00000    0.00000    0.00000    9    diag,B
   15      0.857D-03      0.672D-04       -37.51071988     44.754863    0.00000    0.00000    0.00000    9    diag,B
   16      0.151D-02      0.545D-04       -37.51072453     44.755396    0.00000    0.00000    0.00000    9    diag,B
   17      0.958D-04      0.573D-04       -37.51071048     44.769683    0.00000    0.00000    0.00000    9    diag,B
   18      0.678D-03      0.419D-04       -37.51071342     44.785280    0.00000    0.00000    0.00000    9    diag,B
   19      0.330D-03      0.366D-04       -37.51071925     44.793368    0.00000    0.00000    0.00000    9    diag,B
   20      0.583D-03      0.337D-04       -37.51073228     44.799874    0.00000    0.00000    0.00000    9    orth
   21      0.545D-03      0.304D-04       -37.51074182     44.802846    0.00000    0.00000    0.00000    9    diag,B
   22      0.274D-03      0.317D-04       -37.51073867     44.800715    0.00000    0.00000    0.00000    9    diag,B
   23      0.705D-04      0.290D-04       -37.51074391     44.792729    0.00000    0.00000    0.00000    9    diag,B
   24      0.988D-03      0.202D-04       -37.51074301     44.785435    0.00000    0.00000    0.00000    9    diag,B
   25      0.129D-03      0.161D-04       -37.51074383     44.783601    0.00000    0.00000    0.00000    9    diag,B
   26      0.498D-03      0.138D-04       -37.51075126     44.793695    0.00000    0.00000    0.00000    9    diag,B
   27      0.214D-03      0.971D-05       -37.51075466     44.800541    0.00000    0.00000    0.00000    9    diag,B
   28      0.228D-03      0.859D-05       -37.51075577     44.802344    0.00000    0.00000    0.00000    9    diag,B
   29      0.394D-04      0.879D-05       -37.51075514     44.802178    0.00000    0.00000    0.00000    9    diag,B
   30      0.206D-04      0.850D-05       -37.51075483     44.802911    0.00000    0.00000    0.00000    9    orth
   31      0.175D-04      0.825D-05       -37.51075460     44.805068    0.00000    0.00000    0.00000    9    diag,B
   32      0.233D-04      0.838D-05       -37.51075464     44.804652    0.00000    0.00000    0.00000    9    diag,B
   33      0.300D-04      0.816D-05       -37.51075466     44.804694    0.00000    0.00000    0.00000    9    diag,B
   34      0.163D-04      0.826D-05       -37.51075447     44.804032    0.00000    0.00000    0.00000    9    diag,B
   35      0.277D-04      0.809D-05       -37.51075462     44.804416    0.00000    0.00000    0.00000    9    diag,B
   36      0.339D-04      0.815D-05       -37.51075422     44.802420    0.00000    0.00000    0.00000    9    diag,B
   37      0.411D-04      0.835D-05       -37.51075438     44.805084    0.00000    0.00000    0.00000    9    diag,B
   38      0.813D-04      0.756D-05       -37.51075411     44.804210    0.00000    0.00000    0.00000    9    diag,B
   39      0.301D-03      0.515D-05       -37.51075531     44.804743    0.00000    0.00000    0.00000    9    diag,B
   40      0.213D-03      0.270D-05       -37.51075547     44.805083    0.00000    0.00000    0.00000    9    orth
   41      0.931D-04      0.217D-05       -37.51075552     44.805335    0.00000    0.00000    0.00000    9    diag,B
   42      0.476D-04      0.147D-05       -37.51075555     44.805943    0.00000    0.00000    0.00000    9    diag,B
   43      0.860D-04      0.110D-05       -37.51075556     44.805993    0.00000    0.00000    0.00000    9    diag,B
   44      0.111D-04      0.116D-05       -37.51075556     44.806173    0.00000    0.00000    0.00000    9    diag,B
   45      0.437D-05      0.106D-05       -37.51075557     44.805984    0.00000    0.00000    0.00000    0    orth

 Final alpha occupancy:   3   1   1   0   1   0   0   0
 Final beta  occupancy:   2   1   1   0   1   0   0   0

 !RHF STATE 1.1 Energy                -37.510755570001
   --><property name="Energy" method="RHF" principal="true" stateSymmetry="1" stateNumber="1"
     value="-37.5107555700011"/><!--
 Nuclear energy                         0.00000000
 One-electron energy                  -59.91374774
 Two-electron energy                   22.40299217
 Virial quotient                       -3.14132541
 !RHF STATE 1.1 Dipole moment           0.00000000     0.00000000     0.00000000
 Dipole moment /Debye                   0.00000000     0.00000000     0.00000000
   --><property name="Dipole moment" method="RHF" principal="true" stateSymmetry="1"
     stateNumber="1" value="0.0 0.0 0.0"/><!--

 ELECTRON ORBITALS
 =================


   Orb  Occ    Energy  Couls-En    Coefficients

                                   1 1s      1 1s      1 1s      1 1s      1 1s      1 1s      1 1s      1 1s      1 1s      1 1s
                                   1 1s      1 1s      1 1s      1 1s      1 1s      1 1s      1 1s      1 1s      1 1s      1 1s
                                   1 1s      1 1s      1 1s      1 1s      1 1s      1 1s      1 1s      1 1s      1 1s      1 1s
                                   1 1s      1 1s      1 1s      1 1s      1 1s      1 1s      1 1s      1 1s      1 3d0     1 3d2+
                                   1 3d0     1 3d2+    1 3d0     1 3d2+    1 3d0     1 3d2+    1 3d0     1 3d2+    1 3d0     1 3d2+
                                   1 3d0     1 3d2+    1 3d0     1 3d2+    1 3d0     1 3d2+    1 3d0     1 3d2+    1 3d0     1 3d2+
                                   1 3d0     1 3d2+    1 3d0     1 3d2+    1 3d0     1 3d2+    1 3d0     1 3d2+    1 3d0     1 3d2+
                                   1 3d0     1 3d2+    1 3d0     1 3d2+    1 3d0     1 3d2+    1 3d0     1 3d2+    1 3d0     1 3d2+
                                   1 3d0     1 3d2+    1 5g0     1 5g4+    1 5g2+    1 5g0     1 5g4+    1 5g2+    1 5g0     1 5g4+
                                   1 5g2+    1 5g0     1 5g4+    1 5g2+    1 5g0     1 5g4+    1 5g2+    1 5g0     1 5g4+    1 5g2+
                                   1 5g0     1 5g4+    1 5g2+

   1.1   2    -2.5115   -9.8400 -0.000000  0.000000 -0.000000  0.000000 -0.000000  0.000000 -0.000000  0.000000 -0.000001  0.000002
                                -0.000004  0.000010 -0.000029  0.000096 -0.000543 -0.001820  0.001366 -0.002252  0.005282  0.001703
                                -0.023209  0.327622 -0.621558  0.667245 -0.303860 -0.580522  0.026917  0.776466  0.496052  0.005273
                                 0.033045 -0.041146  0.059029 -0.043082  0.016545 -0.006301  0.001614 -0.000287  0.000000  0.000000
                                -0.000000 -0.000000  0.000000  0.000000 -0.000000 -0.000000  0.000000  0.000000 -0.000001 -0.000000
                                 0.000004  0.000001 -0.000013 -0.000003  0.000063  0.000013 -0.000152 -0.000031  0.000137  0.000028
                                -0.000064 -0.000014  0.000112  0.000023 -0.000406 -0.000078 -0.000515 -0.000103  0.000344  0.000069
                                -0.000850 -0.000170  0.001237  0.000248 -0.000613 -0.000124  0.000127  0.000021 -0.000045 -0.000014
                                 0.000012  0.000001  0.000000  0.000000  0.000000 -0.000000 -0.000001 -0.000000  0.000002  0.000010
                                 0.000001  0.000025  0.000091  0.000013 -0.000022 -0.000089 -0.000013  0.000007  0.000023  0.000004
                                -0.000005 -0.000022 -0.000003

   2.1   2    -0.3416   -3.4318  0.000000 -0.000000  0.000000 -0.000000  0.000000 -0.000000  0.000000 -0.000000  0.000000 -0.000000
                                 0.000001 -0.000003  0.000008 -0.000027  0.000155  0.000520 -0.000391  0.000649 -0.001546 -0.000486
                                 0.007118 -0.108044  0.209493 -0.233724  0.112001  0.215110  0.001861 -0.372194 -0.465290 -0.082306
                                 0.560264  0.812358 -0.247172  0.270700 -0.084663  0.033467 -0.008472  0.001537  0.000000  0.000000
                                -0.000000 -0.000000  0.000000  0.000000 -0.000000 -0.000000  0.000002  0.000000 -0.000005 -0.000001
                                 0.000015  0.000003 -0.000049 -0.000010  0.000295  0.000062 -0.000867 -0.000181  0.001079  0.000225
                                -0.001631 -0.000338  0.000496  0.000104  0.010142  0.002095  0.018763  0.003893  0.014969  0.003103
                                -0.000366 -0.000307  0.012270  0.002585 -0.004596 -0.000998  0.000734  0.000326 -0.000542  0.000060
                                 0.000131  0.000070  0.000000  0.000000  0.000000 -0.000000 -0.000001 -0.000000  0.000005  0.000010
                                 0.000002 -0.000063 -0.000200 -0.000032  0.000047  0.000258  0.000033 -0.000192 -0.001224 -0.000147
                                 0.000181  0.000831  0.000112

   3.1   +    -0.0511   -1.1123 -0.000000  0.000000 -0.000000  0.000000 -0.000000  0.000000 -0.000000  0.000000 -0.000000  0.000000
                                -0.000000  0.000000 -0.000000  0.000000 -0.000000 -0.000000  0.000000 -0.000000  0.000001  0.000000
                                -0.000003  0.000056 -0.000110  0.000126 -0.000061 -0.000123  0.000003  0.000248  0.000297 -0.000102
                                -0.000446 -0.000377 -0.000040 -0.000709 -0.000999  0.001986  0.002761  0.000113 -0.000000 -0.000000
                                 0.000000  0.000000 -0.000000 -0.000001  0.000000  0.000003 -0.000001 -0.000010  0.000003  0.000031
                                -0.000009 -0.000098  0.000029  0.000312 -0.000170 -0.001817  0.000485  0.005195 -0.000583 -0.006238
                                 0.000827  0.008852 -0.000299 -0.003198 -0.004852 -0.051907 -0.009143 -0.097791 -0.008707 -0.093330
                                 0.006292  0.066313 -0.011562 -0.122978  0.017619  0.186080  0.036734  0.388228  0.045518  0.481719
                                 0.010735  0.113665  0.000000  0.000000  0.000000 -0.000000 -0.000000 -0.000001  0.000001  0.000001
                                 0.000006  0.000081  0.000122  0.000425 -0.000094 -0.000140 -0.000486  0.000078  0.000117  0.000406
                                -0.000368 -0.000559 -0.001904

   4.1   0    -0.0817   -3.9975  0.000000 -0.000000  0.000000 -0.000000  0.000000 -0.000000  0.000000 -0.000000  0.000000 -0.000000
                                 0.000000 -0.000000  0.000000 -0.000001  0.000004  0.000013 -0.000010  0.000017 -0.000043 -0.000012
                                 0.000213 -0.003407  0.006666 -0.007487  0.003534  0.006990 -0.000034 -0.011158 -0.014309 -0.004212
                                 0.011270  0.027792 -0.007687  0.013373  0.003543  0.005538  0.000974 -0.000085 -0.000000  0.000000
                                 0.000001 -0.000000 -0.000003  0.000000  0.000012 -0.000001 -0.000043  0.000004  0.000134 -0.000014
                                -0.000426  0.000043  0.001357 -0.000138 -0.007909  0.000804  0.022615 -0.002300 -0.027141  0.002761
                                 0.038319 -0.003898 -0.013278  0.001350 -0.223157  0.022706 -0.408888  0.041615 -0.421741  0.042880
                                 0.048165 -0.004984 -0.340761  0.034684  0.112840 -0.011550 -0.065854  0.006718  0.018631 -0.001780
                                -0.006228  0.000680  0.000000  0.000001 -0.000000 -0.000003 -0.000006  0.000000 -0.000018  0.000050
                                -0.000006  0.000913 -0.000038  0.000043 -0.000331  0.000375 -0.000021 -0.000392 -0.001527  0.000062
                                -0.001492  0.002495 -0.000192

   5.1   0    -0.0860   -4.0668  0.000000 -0.000000  0.000000 -0.000000  0.000000 -0.000000  0.000000 -0.000000  0.000000 -0.000000
                                 0.000000 -0.000000  0.000000 -0.000000  0.000001  0.000004 -0.000003  0.000005 -0.000013 -0.000004
                                 0.000066 -0.001061  0.002074 -0.002329  0.001099  0.002171 -0.000009 -0.003457 -0.004438 -0.001359
                                 0.003448  0.008443 -0.002145  0.004533  0.001131  0.001396  0.000224 -0.000022 -0.000000 -0.000000
                                 0.000000  0.000001 -0.000000 -0.000003  0.000001  0.000012 -0.000004 -0.000044  0.000014  0.000137
                                -0.000044 -0.000436  0.000140  0.001390 -0.000819 -0.008101  0.002341  0.023167 -0.002810 -0.027808
                                 0.003969  0.039282 -0.001380 -0.013651 -0.023125 -0.228894 -0.042423 -0.420019 -0.043247 -0.427785
                                 0.007019  0.070097 -0.035925 -0.355704  0.013692  0.136038 -0.006201 -0.060776  0.001958  0.019714
                                -0.000631 -0.006232  0.000000  0.000000  0.000001 -0.000001 -0.000001 -0.000005  0.000003  0.000003
                                 0.000017  0.000133  0.000177  0.000678 -0.000025 -0.000002 -0.000153 -0.000188 -0.000323 -0.000923
                                 0.000042  0.000184  0.000159

                                   1 2px     1 2px     1 2px     1 2px     1 2px     1 2px     1 2px     1 2px     1 2px     1 2px
                                   1 2px     1 2px     1 2px     1 2px     1 2px     1 2px     1 2px     1 2px     1 2px     1 2px
                                   1 2px     1 2px     1 2px     1 2px     1 2px     1 2px     1 2px     1 2px     1 2px     1 2px
                                   1 2px     1 4f1+    1 4f3+    1 4f1+    1 4f3+    1 4f1+    1 4f3+    1 4f1+    1 4f3+    1 4f1+
                                   1 4f3+    1 4f1+    1 4f3+    1 4f1+    1 4f3+    1 4f1+    1 4f3+    1 4f1+    1 4f3+    1 4f1+
                                   1 4f3+    1 4f1+    1 4f3+    1 4f1+    1 4f3+    1 4f1+    1 4f3+    1 4f1+    1 4f3+    1 4f1+
                                   1 4f3+    1 6h1+    1 6h3+    1 6h5+    1 6h1+    1 6h3+    1 6h5+    1 6h1+    1 6h3+    1 6h5+


   1.2   2    -1.5586   -7.8948  0.000000 -0.000000  0.000000 -0.000000  0.000000 -0.000000  0.000000 -0.000001  0.000005 -0.000015
                                 0.000047 -0.000127  0.000373 -0.001209  0.005806 -0.074362  0.171410 -0.090829 -0.021250 -0.215937
                                 0.135260  0.541775  0.003864  0.436562  0.205251  0.078357 -0.008214 -0.203400  0.004414 -0.001908
                                 0.000418  0.000000  0.000000 -0.000000 -0.000000  0.000000  0.000000 -0.000002 -0.000000  0.000017
                                 0.000002 -0.000032 -0.000003  0.000028  0.000003 -0.000032 -0.000004  0.000089  0.000033 -0.000149
                                 0.000088 -0.000137  0.000126  0.000168  0.000010 -0.000062 -0.000089  0.000054 -0.000056 -0.000005
                                -0.000059 -0.000000  0.000000 -0.000001 -0.000002  0.000000 -0.000012 -0.000000  0.000000 -0.000004

   2.2   0    -0.0585   -2.2741  0.000000 -0.000000  0.000000 -0.000000  0.000000 -0.000000  0.000000 -0.000000  0.000000 -0.000001
                                 0.000003 -0.000008  0.000028 -0.000105  0.000721 -0.012635  0.029329 -0.003247 -0.028106 -0.037314
                                 0.025397  0.179966 -0.055712  0.215331 -0.776616 -0.103388 -0.504394  0.357270 -0.140387 -0.021493
                                -0.003304  0.000000 -0.000000 -0.000000  0.000000  0.000000 -0.000001 -0.000002  0.000003  0.000016
                                -0.000024 -0.000029  0.000045  0.000024 -0.000037 -0.000027  0.000034  0.000043 -0.000044 -0.000274
                                 0.000153 -0.000507 -0.000261 -0.000279  0.002803 -0.001320 -0.006266 -0.004402 -0.002868  0.006562
                                -0.042782  0.000000 -0.000000  0.000001 -0.000002  0.000000 -0.000013  0.000005 -0.000001  0.000031

   3.2   0     0.0017   -0.6869  0.000000 -0.000000  0.000000 -0.000000  0.000000 -0.000000  0.000000 -0.000000  0.000001 -0.000002
                                 0.000007 -0.000019  0.000054 -0.000167  0.000707 -0.007739  0.018260 -0.016583  0.009692 -0.022344
                                 0.014807  0.030559  0.024134  0.033610  5.898463 -0.008227 -0.243669 -6.274966  0.713514 -0.592879
                                 1.197297  0.000000  0.000000 -0.000000 -0.000001  0.000001  0.000004 -0.000002 -0.000018  0.000019
                                 0.000149 -0.000035 -0.000274  0.000029  0.000230 -0.000028 -0.000212  0.000047  0.000351 -0.000146
                                -0.000723  0.000066  0.002016 -0.001048 -0.009845  0.001911  0.030137 -0.010135 -0.045726  0.001993
                                 0.151981  0.000000 -0.000000  0.000000 -0.000001  0.000000 -0.000003  0.000001 -0.000000  0.000005

                                   1 2py     1 2py     1 2py     1 2py     1 2py     1 2py     1 2py     1 2py     1 2py     1 2py
                                   1 2py     1 2py     1 2py     1 2py     1 2py     1 2py     1 2py     1 2py     1 2py     1 2py
                                   1 2py     1 2py     1 2py     1 2py     1 2py     1 2py     1 2py     1 2py     1 2py     1 2py
                                   1 2py     1 4f1-    1 4f3-    1 4f1-    1 4f3-    1 4f1-    1 4f3-    1 4f1-    1 4f3-    1 4f1-
                                   1 4f3-    1 4f1-    1 4f3-    1 4f1-    1 4f3-    1 4f1-    1 4f3-    1 4f1-    1 4f3-    1 4f1-
                                   1 4f3-    1 4f1-    1 4f3-    1 4f1-    1 4f3-    1 4f1-    1 4f3-    1 4f1-    1 4f3-    1 4f1-
                                   1 4f3-    1 6h1-    1 6h3-    1 6h5-    1 6h1-    1 6h3-    1 6h5-    1 6h1-    1 6h3-    1 6h5-


   1.3   2    -1.5589   -7.8954  0.000000 -0.000000  0.000000 -0.000000  0.000000 -0.000000  0.000000 -0.000001  0.000005 -0.000015
                                 0.000047 -0.000127  0.000373 -0.001208  0.005805 -0.074363  0.171412 -0.090799 -0.021313 -0.215926
                                 0.135266  0.541808  0.003953  0.436741  0.206327  0.078022 -0.008382 -0.204489  0.004423 -0.001919
                                 0.000420  0.000000  0.000000 -0.000000 -0.000000  0.000001  0.000000 -0.000002 -0.000001  0.000020
                                 0.000007 -0.000037 -0.000012  0.000032  0.000010 -0.000037 -0.000013  0.000098  0.000011 -0.000190
                                -0.000156 -0.000188 -0.000196  0.000191  0.000068 -0.000056  0.000062  0.000073  0.000084  0.000005
                                 0.000059 -0.000000 -0.000000 -0.000001 -0.000003 -0.000003 -0.000012 -0.000001 -0.000001 -0.000004

   2.3   0    -0.0585   -2.2620  0.000000 -0.000000  0.000000 -0.000000  0.000000 -0.000000  0.000000 -0.000000  0.000000 -0.000001
                                 0.000003 -0.000008  0.000027 -0.000102  0.000709 -0.012479  0.028963 -0.003043 -0.028063 -0.036849
                                 0.025086  0.178609 -0.055810  0.214108 -0.718230 -0.102463 -0.500393  0.302561 -0.146534 -0.027383
                                -0.003637  0.000000  0.000000 -0.000000 -0.000000  0.000001  0.000001 -0.000003 -0.000004  0.000023
                                 0.000033 -0.000042 -0.000061  0.000035  0.000051 -0.000038 -0.000049  0.000059  0.000069 -0.000344
                                -0.000291 -0.000537  0.000024 -0.000835 -0.003059 -0.000309  0.006072 -0.004464  0.001032  0.015478
                                 0.047767  0.000000  0.000000  0.000001 -0.000004 -0.000004 -0.000013  0.000008  0.000008  0.000031

   3.3   0     0.0015   -0.7118  0.000000 -0.000000  0.000000 -0.000000  0.000000 -0.000000  0.000000 -0.000000  0.000001 -0.000002
                                 0.000007 -0.000018  0.000051 -0.000159  0.000687 -0.007734  0.018227 -0.015514  0.007729 -0.022363
                                 0.014855  0.036373  0.019841  0.041017  5.280714 -0.012524 -0.252664 -5.651438  0.668551 -0.500576
                                 1.135275 -0.000000 -0.000000  0.000000  0.000001 -0.000000 -0.000004  0.000001  0.000018 -0.000006
                                -0.000146  0.000011  0.000269 -0.000009 -0.000226  0.000006  0.000207 -0.000011 -0.000344 -0.000039
                                 0.000683 -0.000319 -0.002076  0.000661  0.009779 -0.003565 -0.030520 -0.003201  0.042955 -0.026030
                                -0.156909  0.000000  0.000000  0.000000 -0.000001 -0.000001 -0.000003  0.000002  0.000001  0.000005

                                   1 3d2-    1 3d2-    1 3d2-    1 3d2-    1 3d2-    1 3d2-    1 3d2-    1 3d2-    1 3d2-    1 3d2-
                                   1 3d2-    1 3d2-    1 3d2-    1 3d2-    1 3d2-    1 3d2-    1 3d2-    1 3d2-    1 3d2-    1 3d2-
                                   1 3d2-    1 3d2-    1 5g2-    1 5g4-    1 5g2-    1 5g4-    1 5g2-    1 5g4-    1 5g2-    1 5g4-
                                   1 5g2-    1 5g4-    1 5g2-    1 5g4-    1 5g2-    1 5g4-

   1.4   0    -0.0812   -4.0110 -0.000000  0.000001 -0.000003  0.000012 -0.000044  0.000136 -0.000431  0.001374 -0.008002  0.022872
                                -0.027435  0.038694 -0.013448 -0.224995 -0.412854 -0.426781  0.051291 -0.346061  0.119682 -0.062962
                                 0.019792 -0.006280  0.000000  0.000000 -0.000001 -0.000001 -0.000015 -0.000002  0.000600  0.000177
                                -0.000241 -0.000040 -0.000138 -0.000144 -0.001140 -0.000137

   2.4   0     0.0108   -0.5104 -0.000000  0.000000 -0.000001  0.000002 -0.000008  0.000025 -0.000075  0.000237 -0.001229  0.003161
                                -0.003232  0.003061 -0.001973 -0.009467 -0.028149  0.016657 -0.501106  1.168063 -1.021850  0.814024
                                -1.020531  1.518421  0.000000  0.000000 -0.000001 -0.000000  0.000005  0.000000 -0.000501 -0.000010
                                 0.001182  0.000045 -0.001940 -0.000080  0.003012  0.000028

                                   1 2pz     1 2pz     1 2pz     1 2pz     1 2pz     1 2pz     1 2pz     1 2pz     1 2pz     1 2pz
                                   1 2pz     1 2pz     1 2pz     1 2pz     1 2pz     1 2pz     1 2pz     1 2pz     1 2pz     1 2pz
                                   1 2pz     1 2pz     1 2pz     1 2pz     1 2pz     1 2pz     1 2pz     1 2pz     1 2pz     1 2pz
                                   1 2pz     1 4f0     1 4f2+    1 4f0     1 4f2+    1 4f0     1 4f2+    1 4f0     1 4f2+    1 4f0
                                   1 4f2+    1 4f0     1 4f2+    1 4f0     1 4f2+    1 4f0     1 4f2+    1 4f0     1 4f2+    1 4f0
                                   1 4f2+    1 4f0     1 4f2+    1 4f0     1 4f2+    1 4f0     1 4f2+    1 4f0     1 4f2+    1 4f0
                                   1 4f2+    1 6h2+    1 6h4+    1 6h0     1 6h2+    1 6h4+    1 6h0     1 6h2+    1 6h4+    1 6h0


   1.5   2    -1.5577   -7.8926  0.000000 -0.000000  0.000000 -0.000000  0.000000 -0.000000  0.000000 -0.000001  0.000005 -0.000015
                                 0.000047 -0.000127  0.000373 -0.001209  0.005807 -0.074358  0.171403 -0.090940 -0.021014 -0.215973
                                 0.135242  0.541627  0.003528  0.435883  0.201098  0.079641 -0.007549 -0.199189  0.004384 -0.001863
                                 0.000411  0.000000  0.000000 -0.000000 -0.000000  0.000001  0.000000 -0.000003 -0.000000  0.000022
                                 0.000003 -0.000040 -0.000006  0.000035  0.000005 -0.000041 -0.000006  0.000120  0.000020 -0.000149
                                -0.000009 -0.000116 -0.000002  0.000222  0.000030 -0.000098 -0.000021  0.000056  0.000002 -0.000019
                                -0.000008 -0.000000 -0.000000 -0.000000 -0.000002 -0.000008 -0.000004 -0.000001 -0.000003 -0.000001

   2.5   0    -0.0587   -2.3226  0.000000 -0.000000  0.000000 -0.000000  0.000000 -0.000000  0.000000 -0.000000  0.000000 -0.000001
                                 0.000003 -0.000009  0.000031 -0.000114  0.000769 -0.013268  0.030813 -0.004094 -0.028239 -0.039195
                                 0.026658  0.185327 -0.055249  0.220140 -1.014586 -0.106821 -0.520251  0.577154 -0.109984  0.002152
                                -0.001974  0.000000 -0.000000 -0.000000  0.000000  0.000000 -0.000000 -0.000002  0.000000  0.000015
                                -0.000000 -0.000028  0.000000  0.000023 -0.000000 -0.000027 -0.000001  0.000046  0.000003 -0.000321
                                -0.000029 -0.000722 -0.000121  0.000277  0.000284 -0.003128 -0.000913 -0.006523 -0.001080 -0.001262
                                -0.003959  0.000000  0.000001  0.000000 -0.000002 -0.000009 -0.000004  0.000004  0.000020  0.000008

   3.5   0     0.0029   -0.5705  0.000000 -0.000000  0.000000 -0.000000  0.000000 -0.000000  0.000000 -0.000000  0.000001 -0.000003
                                 0.000009 -0.000025  0.000069 -0.000212  0.000832 -0.007990  0.018957 -0.022731  0.020390 -0.022873
                                 0.014965  0.000543  0.047447 -0.004387  9.280522  0.014400 -0.205069 -9.684916  0.975468 -1.150809
                                 1.550694  0.000000  0.000000 -0.000000 -0.000000  0.000002  0.000001 -0.000007 -0.000002  0.000057
                                 0.000020 -0.000106 -0.000037  0.000089  0.000031 -0.000083 -0.000029  0.000136  0.000048 -0.000321
                                -0.000103  0.000632  0.000255 -0.003746 -0.001326  0.010059  0.003884 -0.022582 -0.006826  0.037266
                                 0.017944  0.000000  0.000000  0.000000 -0.000000 -0.000001 -0.000001  0.000000  0.000002  0.000001

                                   1 3d1+    1 3d1+    1 3d1+    1 3d1+    1 3d1+    1 3d1+    1 3d1+    1 3d1+    1 3d1+    1 3d1+
                                   1 3d1+    1 3d1+    1 3d1+    1 3d1+    1 3d1+    1 3d1+    1 3d1+    1 3d1+    1 3d1+    1 3d1+
                                   1 3d1+    1 3d1+    1 5g1+    1 5g3+    1 5g1+    1 5g3+    1 5g1+    1 5g3+    1 5g1+    1 5g3+
                                   1 5g1+    1 5g3+    1 5g1+    1 5g3+    1 5g1+    1 5g3+

   1.6   0    -0.0815   -4.0010 -0.000000  0.000001 -0.000003  0.000012 -0.000044  0.000135 -0.000429  0.001366 -0.007962  0.022765
                                -0.027319  0.038564 -0.013368 -0.224528 -0.411523 -0.424643  0.048673 -0.343246  0.114342 -0.065570
                                 0.019024 -0.006267  0.000000 -0.000001 -0.000002  0.000004 -0.000014 -0.000037  0.000805  0.000099
                                -0.000296 -0.000211 -0.000364  0.000842 -0.001279 -0.001582

   2.6   0     0.0086   -0.5542 -0.000000  0.000000 -0.000001  0.000002 -0.000008  0.000024 -0.000073  0.000232 -0.001226  0.003217
                                -0.003403  0.003583 -0.001995 -0.014077 -0.034801  0.002014 -0.404303  0.941093 -0.822008  0.691055
                                -0.762902  1.363548  0.000000  0.000000 -0.000002 -0.000003  0.000006  0.000009 -0.000586 -0.001219
                                 0.001438  0.002698 -0.002388 -0.004373  0.003521  0.007662

                                   1 3d1-    1 3d1-    1 3d1-    1 3d1-    1 3d1-    1 3d1-    1 3d1-    1 3d1-    1 3d1-    1 3d1-
                                   1 3d1-    1 3d1-    1 3d1-    1 3d1-    1 3d1-    1 3d1-    1 3d1-    1 3d1-    1 3d1-    1 3d1-
                                   1 3d1-    1 3d1-    1 5g1-    1 5g3-    1 5g1-    1 5g3-    1 5g1-    1 5g3-    1 5g1-    1 5g3-
                                   1 5g1-    1 5g3-    1 5g1-    1 5g3-    1 5g1-    1 5g3-

   1.7   0    -0.0814   -4.0029 -0.000000  0.000001 -0.000003  0.000012 -0.000044  0.000135 -0.000429  0.001368 -0.007970  0.022786
                                -0.027341  0.038588 -0.013384 -0.224609 -0.411765 -0.425066  0.049140 -0.343811  0.115383 -0.065001
                                 0.019204 -0.006269  0.000001  0.000001 -0.000003 -0.000004 -0.000011  0.000024  0.000903  0.000144
                                -0.000296  0.000099 -0.000544 -0.000773 -0.001187  0.000950

   2.7   0     0.0091   -0.5440 -0.000000  0.000000 -0.000001  0.000002 -0.000008  0.000024 -0.000074  0.000232 -0.001224  0.003198
                                -0.003358  0.003461 -0.001986 -0.013040 -0.033274  0.005200 -0.424545  0.988651 -0.863850  0.716186
                                -0.818259  1.398185  0.000000 -0.000000 -0.000002  0.000002  0.000006 -0.000006 -0.000442  0.000821
                                 0.001128 -0.001782 -0.001889  0.002874  0.002591 -0.005197

                                   1 4f2-    1 4f2-    1 4f2-    1 4f2-    1 4f2-    1 4f2-    1 4f2-    1 4f2-    1 4f2-    1 4f2-
                                   1 4f2-    1 4f2-    1 4f2-    1 4f2-    1 4f2-    1 6h4-    1 6h2-    1 6h4-    1 6h2-    1 6h4-
                                   1 6h2-

   1.8   0     0.0485   -0.8037  0.000001 -0.000008  0.000038 -0.000170  0.001395 -0.002567  0.002156 -0.001980  0.003293 -0.006464
                                 0.020942 -0.095492  0.304046 -0.563085  1.313520 -0.000000 -0.000000  0.000000  0.000002 -0.000001
                                -0.000005

   2.8   0     0.1209   -1.0619 -0.000002  0.000016 -0.000075  0.000342 -0.002793  0.005148 -0.004303  0.004064 -0.006344  0.016608
                                -0.025913  0.290564 -0.619368  2.031394 -1.186381 -0.000000 -0.000001  0.000002  0.000012 -0.000005
                                -0.000026

 HOMO      3.1    -0.051052 =      -1.3892eV
 LUMO      4.1    -0.081701 =      -2.2232eV
 LUMO-HOMO        -0.030649 =      -0.8340eV


 **********************************************************************************************************************************
 DATASETS  * FILE   NREC   LENGTH (MB)   RECORD NAMES
              1      19       21.31       500      610      700      900      950      970     1000      129      960     1100
                                          VAR    BASINP    GEOM    SYMINP    ZMAT    AOBASIS   BASIS     P2S    ABASIS      S
                                         1400     1410     1420     1200     1210     1080     1600     1650     1700
                                           T        V       ECP      H0       H01     AOSYM     SMH    MOLCAS    OPER

              2       5        6.25       200      700     1000      520     4202
                                        OPTIONS   GEOM     BASIS   MCVARS     RHF

 PROGRAMS   *        TOTAL       RHF       INT
 CPU TIMES  *       166.99      8.33    158.27
 REAL TIME  *       175.26 SEC
 DISK USED  *         8.15 GB
 SF USED    *         0.12 MB
 GA USED    *         0.00 MB       (max)       0.00 MB       (current)
 **********************************************************************************************************************************
   -->
   <time start="07:36:54" end="07:39:49" cpu="166.99" system="7.74" real="175.26"/>
   <storage units="megabyte" memory="8001.84" sf="0.12" df="352.05" eaf="7795.75" ga="0.0"/>
  </jobstep><!--
  --><jobstep command="POP" commandset="POP">
   <!--


 PROGRAM * POP (Mulliken population analysis)


 Density matrix read from record         4202.2  Type=RHF/CHARGE (state 1.1)

 Population analysis by basis function type

 Unique atom        s        p        d        f        g    Total    Charge
   1  LU      3.99653  6.00000  1.00346  0.00000  0.00000 11.00000  + 0.00000


 **********************************************************************************************************************************
 DATASETS  * FILE   NREC   LENGTH (MB)   RECORD NAMES
              1      19       21.31       500      610      700      900      950      970     1000      129      960     1100
                                          VAR    BASINP    GEOM    SYMINP    ZMAT    AOBASIS   BASIS     P2S    ABASIS      S
                                         1400     1410     1420     1200     1210     1080     1600     1650     1700
                                           T        V       ECP      H0       H01     AOSYM     SMH    MOLCAS    OPER

              2       5        6.25       200      700     1000      520     4202
                                        OPTIONS   GEOM     BASIS   MCVARS     RHF

 PROGRAMS   *        TOTAL       POP       RHF       INT
 CPU TIMES  *       167.00      0.00      8.33    158.27
 REAL TIME  *       175.28 SEC
 DISK USED  *         8.15 GB
 SF USED    *         0.12 MB
 GA USED    *         0.00 MB       (max)       0.00 MB       (current)
 **********************************************************************************************************************************
   -->
   <time start="07:39:49" end="07:39:49" cpu="0.01" system="0.0" real="0.02"/>
   <storage units="megabyte" memory="8001.84" sf="0.12" df="352.05" eaf="7795.75" ga="0.0"/>
  </jobstep><!--
  --><jobstep command="MULTI" commandset="MULTI">
   <!--


 PROGRAM * MULTI (Direct Multiconfiguration SCF)       Authors: P.J. Knowles, H.-J. Werner (1984)     S.T. Elbert (1988)


 Number of closed-shell orbitals:   5 (   2   1   1   0   1   0   0   0 )
 Number of active  orbitals:        5 (   2   0   0   1   0   1   1   0 )
 Number of external orbitals:     432 (  99  69  69  35  69  35  35  21 )

 State symmetry 1

 Number of electrons:     1    Spin symmetry=Doublet   Space symmetry=1
 Number of states:        2
 Number of CSFs:          2   (2 determinants, 5 intermediate states)

 State symmetry 2

 Number of electrons:     1    Spin symmetry=Doublet   Space symmetry=4
 Number of states:        1
 Number of CSFs:          1   (1 determinants, 5 intermediate states)

 State symmetry 3

 Number of electrons:     1    Spin symmetry=Doublet   Space symmetry=6
 Number of states:        1
 Number of CSFs:          1   (1 determinants, 5 intermediate states)

 State symmetry 4

 Number of electrons:     1    Spin symmetry=Doublet   Space symmetry=7
 Number of states:        1
 Number of CSFs:          1   (1 determinants, 5 intermediate states)

 Molecular orbitals read from record     4202.2  Type=RHF/CANONICAL (state 1.1)
 *** IN SYMMETRY 1 ORBITAL  1 SYMMETRY CONTAMINATION OF 0.147D-02 HAS BEEN REMOVED
 *** IN SYMMETRY 1 ORBITAL  2 SYMMETRY CONTAMINATION OF 0.216D-01 HAS BEEN REMOVED
 *** IN SYMMETRY 1 ORBITAL  3 SYMMETRY CONTAMINATION OF 0.930D-01 HAS BEEN REMOVED
 *** IN SYMMETRY 1 ORBITAL  4 SYMMETRY CONTAMINATION OF 0.152D+00 HAS BEEN REMOVED

 EXTRA SYMMETRY OF MOS IN SYMMETRY 1:   1 1 3 2 3 1 1 1 3 1   1 3 2 1 2 3 1 4 6 5   2 3 1 4 6 5 2 3 1 4   6 5 2 3 1 5 6 4 3 2
                                        1 4 6 5 1 2 3 1 2 3   4 6 5 1 2 3 4 6 5 2   3 1 2 3 1 1 2 3 1 2   3 1 1 2 3 1 2 3 1 1
                                        2 3 1 2 3 1 1 2 3 1   1 2 3 1 1 1 1 1 1 1   1 2 2
 *** IN SYMMETRY 2 ORBITAL  1 SYMMETRY CONTAMINATION OF 0.577D-03 HAS BEEN REMOVED
 EXTRA SYMMETRY OF MOS IN SYMMETRY 2:   1 1 1 1 1 2 1 1 2 3   1 2 3 2 3 1 3 2 1 3   2 6 5 4 1 3 2 6 5 4   1 2 3 1 4 5 6 1 2 3
                                        1 2 3 1 2 3 1 2 3 1   1 2 3 1 2 3 1 1 2 3   1 1 1 1 1 1 1 1 1 3
 *** IN SYMMETRY 3 ORBITAL  1 SYMMETRY CONTAMINATION OF 0.742D-03 HAS BEEN REMOVED
 EXTRA SYMMETRY OF MOS IN SYMMETRY 3:   1 1 1 1 1 1 3 1 2 3   1 2 3 2 3 1 3 2 1 3   2 6 5 4 1 3 2 6 5 4   1 2 3 1 4 5 6 1 2 3
                                        1 2 3 1 2 3 1 2 3 1   1 2 3 1 2 3 1 1 2 3   1 1 1 1 1 1 1 1 1 2
 *** IN SYMMETRY 4 ORBITAL  1 SYMMETRY CONTAMINATION OF 0.148D-02 HAS BEEN REMOVED
 EXTRA SYMMETRY OF MOS IN SYMMETRY 4:   1 1 1 1 1 2 3 1 2 3   1 2 3 1 3 2 1 2 3 1   1 2 3 1 2 3 1 1 1 1   1 1 1 1 1 1
 *** IN SYMMETRY 5 ORBITAL  1 SYMMETRY CONTAMINATION OF 0.480D-03 HAS BEEN REMOVED
 EXTRA SYMMETRY OF MOS IN SYMMETRY 5:   1 1 1 1 1 1 2 1 2 3   1 2 3 2 3 1 3 2 1 3   2 5 4 6 1 3 2 5 4 6   1 2 3 1 6 4 5 1 2 3
                                        1 2 3 1 2 3 1 2 3 1   1 2 3 1 2 3 1 1 2 3   1 1 1 1 1 1 1 1 1 3
 *** IN SYMMETRY 6 ORBITAL  1 SYMMETRY CONTAMINATION OF 0.312D-02 HAS BEEN REMOVED
 EXTRA SYMMETRY OF MOS IN SYMMETRY 6:   1 1 1 1 1 2 3 1 2 3   1 3 2 1 3 2 1 2 3 1   1 2 3 1 2 3 1 1 1 1   1 1 1 1 1 1
 *** IN SYMMETRY 7 ORBITAL  1 SYMMETRY CONTAMINATION OF 0.278D-02 HAS BEEN REMOVED
 EXTRA SYMMETRY OF MOS IN SYMMETRY 7:   1 1 1 1 1 2 3 1 2 3   1 2 3 1 3 2 1 2 3 1   1 2 3 1 2 3 1 1 1 1   1 1 1 1 1 1
 EXTRA SYMMETRY OF MOS IN SYMMETRY 8:   1 1 1 1 1 1 2 3 1 2   3 1 3 2 1 1 1 1 1 1   1

 Wavefunction dump at record             5202.2

 Convergence thresholds  0.10E-01 (gradient)  0.10E-05 (energy)  0.10E-02 (step length)

 Weight factors for state symmetry  1:    0.20000   0.20000
 Weight factors for state symmetry  2:    0.20000
 Weight factors for state symmetry  3:    0.20000
 Weight factors for state symmetry  4:    0.20000

 Number of orbital rotations:      712   (     4 Core/Active    405 Core/Virtual   0 Active/Active    303 Active/Virtual)
 Total number of variables:        719


 ITER. MIC  NCI  NEG     ENERGY(VAR)     ENERGY(PROJ)   ENERGY CHANGE     GRAD(0)  GRAD(ORB)   GRAD(CI)     STEP       TIME

   1  102   16    1     -37.61407714     -37.65136434   -0.03728721    2.86822489 0.72275598 0.00000000  0.10D+01      1.09
   2   44   20    0     -37.40678357     -37.66628622   -0.25950265   *********** 0.00019973 0.00000000  0.18D+00      2.08
   3   35   20    0     -37.66641217     -37.66642155   -0.00000938    0.00223419 0.00000043 0.00000000  0.93D-02      3.13
   4   65   28    0     -37.66642157     -37.66642157   -0.00000000    0.00000388 0.00000000 0.00000000  0.19D-04      4.36

 ** WVFN ****  CONVERGENCE REACHED, FINAL GRADIENT:  0.12D-09



 Results for state 1.1
 =====================

 !MCSCF STATE 1.1 Energy              -37.666421565632
   --><property name="Energy" method="MCSCF" principal="true" stateSymmetry="1" stateNumber="1"
     value="-37.6664215656317"/><!--
 Nuclear energy                         0.00000000
 Kinetic energy                        12.47795304
 One electron energy                  -62.21718905
 Two electron energy                   24.55076749
 Virial ratio                           4.01863787

 !MCSCF STATE 1.1 Dipole moment         0.00000000     0.00000000     0.00000000
 Dipole moment /Debye                   0.00000000     0.00000000     0.00000000
   --><property name="Dipole moment" method="MCSCF" principal="true" stateSymmetry="1"
     stateNumber="1" value="0.0 0.0 0.0"/><!--

 Results for state 2.1
 =====================

 !MCSCF STATE 2.1 Energy              -37.666421565632
   --><property name="Energy" method="MCSCF" principal="true" stateSymmetry="1" stateNumber="2"
     value="-37.6664215656317"/><!--
 Nuclear energy                         0.00000000
 Kinetic energy                        12.47795304
 One electron energy                  -62.21718905
 Two electron energy                   24.55076749
 Virial ratio                           4.01863787

 !MCSCF STATE 2.1 Dipole moment         0.00000000     0.00000000     0.00000000
 Dipole moment /Debye                   0.00000000     0.00000000     0.00000000
   --><property name="Dipole moment" method="MCSCF" principal="true" stateSymmetry="1"
     stateNumber="2" value="0.0 0.0 0.0"/><!--



 Results for state 1.4
 =====================

 !MCSCF STATE 1.4 Energy              -37.666421565632
   --><property name="Energy" method="MCSCF" principal="true" stateSymmetry="4" stateNumber="1"
     value="-37.6664215656317"/><!--
 Nuclear energy                         0.00000000
 Kinetic energy                        12.47795304
 One electron energy                  -62.21718905
 Two electron energy                   24.55076749
 Virial ratio                           4.01863787

 !MCSCF STATE 1.4 Dipole moment         0.00000000     0.00000000     0.00000000
 Dipole moment /Debye                   0.00000000     0.00000000     0.00000000
   --><property name="Dipole moment" method="MCSCF" principal="true" stateSymmetry="4"
     stateNumber="1" value="0.0 0.0 0.0"/><!--



 Results for state 1.6
 =====================

 !MCSCF STATE 1.6 Energy              -37.666421565632
   --><property name="Energy" method="MCSCF" principal="true" stateSymmetry="6" stateNumber="1"
     value="-37.6664215656317"/><!--
 Nuclear energy                         0.00000000
 Kinetic energy                        12.47795304
 One electron energy                  -62.21718905
 Two electron energy                   24.55076749
 Virial ratio                           4.01863787

 !MCSCF STATE 1.6 Dipole moment         0.00000000     0.00000000     0.00000000
 Dipole moment /Debye                   0.00000000     0.00000000     0.00000000
   --><property name="Dipole moment" method="MCSCF" principal="true" stateSymmetry="6"
     stateNumber="1" value="0.0 0.0 0.0"/><!--



 Results for state 1.7
 =====================

 !MCSCF STATE 1.7 Energy              -37.666421565632
   --><property name="Energy" method="MCSCF" principal="true" stateSymmetry="7" stateNumber="1"
     value="-37.6664215656317"/><!--
 Nuclear energy                         0.00000000
 Kinetic energy                        12.47795304
 One electron energy                  -62.21718905
 Two electron energy                   24.55076749
 Virial ratio                           4.01863787

 !MCSCF STATE 1.7 Dipole moment         0.00000000     0.00000000     0.00000000
 Dipole moment /Debye                   0.00000000     0.00000000     0.00000000
   --><property name="Dipole moment" method="MCSCF" principal="true" stateSymmetry="7"
     stateNumber="1" value="0.0 0.0 0.0"/><!--

 State-averaged charge density matrix saved on record  5202.2 (density set 1)


 NATURAL ORBITALS (state averaged)
 =================================

   Orb     Occ        Energy       Coefficients

                                   1 1s      1 1s      1 1s      1 1s      1 1s      1 1s      1 1s      1 1s      1 1s      1 1s
                                   1 1s      1 1s      1 1s      1 1s      1 1s      1 1s      1 1s      1 1s      1 1s      1 1s
                                   1 1s      1 1s      1 1s      1 1s      1 1s      1 1s      1 1s      1 1s      1 1s      1 1s
                                   1 1s      1 1s      1 1s      1 1s      1 1s      1 1s      1 1s      1 1s      1 3d0     1 3d2+
                                   1 3d0     1 3d2+    1 3d0     1 3d2+    1 3d0     1 3d2+    1 3d0     1 3d2+    1 3d0     1 3d2+
                                   1 3d0     1 3d2+    1 3d0     1 3d2+    1 3d0     1 3d2+    1 3d0     1 3d2+    1 3d0     1 3d2+
                                   1 3d0     1 3d2+    1 3d0     1 3d2+    1 3d0     1 3d2+    1 3d0     1 3d2+    1 3d0     1 3d2+
                                   1 3d0     1 3d2+    1 3d0     1 3d2+    1 3d0     1 3d2+    1 3d0     1 3d2+    1 3d0     1 3d2+
                                   1 3d0     1 3d2+    1 5g0     1 5g4+    1 5g2+    1 5g0     1 5g4+    1 5g2+    1 5g0     1 5g4+
                                   1 5g2+    1 5g0     1 5g4+    1 5g2+    1 5g0     1 5g4+    1 5g2+    1 5g0     1 5g4+    1 5g2+
                                   1 5g0     1 5g4+    1 5g2+

   1.1  2.00000    -2.263413    -0.000000  0.000000 -0.000000  0.000000 -0.000000  0.000000 -0.000000  0.000000 -0.000001  0.000001
                                -0.000004  0.000010 -0.000028  0.000094 -0.000530 -0.001777  0.001335 -0.002204  0.005180  0.001663
                                -0.022857  0.323788 -0.614651  0.660098 -0.300136 -0.575492  0.031843  0.749454  0.499633  0.025362
                                 0.027648 -0.033332  0.048344 -0.035381  0.013638 -0.005198  0.001334 -0.000237  0.000000  0.000000
                                 0.000000  0.000000  0.000000  0.000000  0.000000  0.000000  0.000000  0.000000  0.000000  0.000000
                                 0.000000  0.000000  0.000000  0.000000  0.000000  0.000000  0.000000  0.000000  0.000000  0.000000
                                 0.000000  0.000000  0.000000  0.000000  0.000000  0.000000  0.000000  0.000000  0.000000  0.000000
                                 0.000000  0.000000  0.000000  0.000000  0.000000  0.000000  0.000000  0.000000  0.000000  0.000000
