
 Primary working directories    : /global/cscratch1/sd/haihan
 Secondary working directories  : /global/cscratch1/sd/haihan
 Wavefunction directory         : /global/homes/h/haihan/Research/ECP/f_group_element_ecps/Nb/Molpro/molecules/NbO/AE/wfu/
 Main file repository           : /global/cscratch1/sd/haihan/

 SHA1      : 19cd028119e0e09f93f0674bd8af7968d9b3eff6
 NAME      : 2015.1.36
 ARCHNAME  : linux/x86_64
 FC        : /opt/cray/pe/craype/2.5.14/bin/ftn
 BLASLIB   : -L/opt/intel/compilers_and_libraries_2018.1.163/linux/mkl/lib/intel64 -Wl,-_start-group -lmkl_intel_ilp64 -lmkl_intel_thread -lmkl_core -Wl,-_end-group -liomp5
 id        : lbl

 Nodes     nprocs
 nid01577    11
 Number of processes for MPI-2 version of Molpro:   nprocs(total)=   12   nprocs(compute)=   11   nprocs(helper)=    1

 Using customized tuning parameters: mindgm=7; mindgv=16; mindgc=1; mindgr=1; noblas=0; minvec=7
 default implementation of scratch files=sf  

 ***,Calculation for all-electron YH molecule, SCF and CCSD(T)
 memory,1,g
 gthresh,twoint=1.0E-15
 gthresh,throvl=1.0E-15
 
 set,dkroll=1,dkho=10,dkhp=4
 basis={
 Including file /global/u2/h/haihan/Research/ECP/f_group_element_ecps/Nb/Molpro/molecules/NbO/AE/r_2.40/../generate/Nb-aug-cc-pwCVTZ.basis
 Including file /global/u2/h/haihan/Research/ECP/f_group_element_ecps/Nb/Molpro/molecules/NbO/AE/r_2.40/../generate/O-aug-cc-pwCVTZ.basis
 }
 
 Nb_ccsd=-3818.57030200
 O_ccsd=-75.09173839
 
                                                                                 !These are the wf cards parameters
 ne = 49
 symm = 1
 ss= 3
 
                                                                                 !There are irrep cards paramters
 A1=12
 B1=6
 B2=6
 A2=2
 
 
 geometry={
     2
     NbH molecule
     Nb 0.0 0.0 0.0
     O 0.0 0.0 2.40
 }
 {rhf,nitord=20;
  maxit,200;
  wf,ne,symm,ss
  occ,A1,B1,B2,A2
  closed,A1,B1-1,B2-1,A2-1
  print,orbitals=2
 }
 scf=energy
 _CC_NORM_MAX=2.0
 {rccsd(t),shifts=0.5,shiftp=0.5,thrdis=1.0;diis,1,1,15,1;maxit,200;core}
 ccsd=energy
 bind=ccsd-Nb_ccsd-O_ccsd
 
 
 table,2.40,scf,ccsd,bind
 save
 type,csv
 

 Variables initialized (889), CPU time= 0.00 sec
 Commands  initialized (702), CPU time= 0.01 sec, 572 directives.
 Default parameters read. Elapsed time= 0.17 sec

 Checking input...
 Passed
1


                                         ***  PROGRAM SYSTEM MOLPRO  ***
                                       Copyright, TTI GmbH Stuttgart, 2015
                                    Version 2015.1 linked Dec 29 2018 15:55:43


 **********************************************************************************************************************************
 LABEL *   Calculation for all-electron YH molecule, SCF and CCSD(T)                     
  64 bit mpp version                                                                     DATE: 06-Oct-22          TIME: 22:26:34  
 **********************************************************************************************************************************

 SHA1:             19cd028119e0e09f93f0674bd8af7968d9b3eff6
 **********************************************************************************************************************************

 THRESHOLDS:

 ZERO    =  1.00D-12  ONEINT  =  1.00D-12  TWOINT  =  1.00D-15  PREFAC  =  1.00D-14  LOCALI  =  1.00D-09  EORDER  =  1.00D-04
 ENERGY  =  0.00D+00  ETEST   =  0.00D+00  EDENS   =  0.00D+00  THRDEDEF=  1.00D-06  GRADIENT=  1.00D-02  STEP    =  1.00D-03
 ORBITAL =  1.00D-05  CIVEC   =  1.00D-05  COEFF   =  1.00D-04  PRINTCI =  5.00D-02  PUNCHCI =  9.90D+01  OPTGRAD =  3.00D-04
 OPTENERG=  1.00D-06  OPTSTEP =  3.00D-04  THRGRAD =  1.00D-10  COMPRESS=  1.00D-11  VARMIN  =  1.00D-07  VARMAX  =  1.00D-03
 THRDOUB =  0.00D+00  THRDIV  =  1.00D-05  THRRED  =  1.00D-07  THRPSP  =  1.00D+00  THRDC   =  1.00D-10  THRCS   =  1.00D-10
 THRNRM  =  1.00D-08  THREQ   =  0.00D+00  THRDE   =  1.00D+00  THRREF  =  1.00D-05  SPARFAC =  1.00D+00  THRDLP  =  1.00D-07
 THRDIA  =  1.00D-10  THRDLS  =  1.00D-07  THRGPS  =  0.00D+00  THRKEX  =  0.00D+00  THRDIS  =  2.00D-01  THRVAR  =  1.00D-10
 THRLOC  =  1.00D-06  THRGAP  =  1.00D-06  THRLOCT = -1.00D+00  THRGAPT = -1.00D+00  THRORB  =  1.00D-06  THRMLTP =  0.00D+00
 THRCPQCI=  1.00D-10  KEXTA   =  0.00D+00  THRCOARS=  0.00D+00  SYMTOL  =  1.00D-06  GRADTOL =  1.00D-06  THROVL  =  1.00D-08
 THRORTH =  1.00D-08  GRID    =  1.00D-06  GRIDMAX =  1.00D-03  DTMAX   =  0.00D+00  THROCCDE=  1.00D-01  THROCCDE=  1.00D-01



 THRESHOLDS:

 ZERO    =  1.00D-12  ONEINT  =  1.00D-12  TWOINT  =  1.00D-15  PREFAC  =  1.00D-14  LOCALI  =  1.00D-09  EORDER  =  1.00D-04
 ENERGY  =  0.00D+00  ETEST   =  0.00D+00  EDENS   =  0.00D+00  THRDEDEF=  1.00D-06  GRADIENT=  1.00D-02  STEP    =  1.00D-03
 ORBITAL =  1.00D-05  CIVEC   =  1.00D-05  COEFF   =  1.00D-04  PRINTCI =  5.00D-02  PUNCHCI =  9.90D+01  OPTGRAD =  3.00D-04
 OPTENERG=  1.00D-06  OPTSTEP =  3.00D-04  THRGRAD =  1.00D-10  COMPRESS=  1.00D-11  VARMIN  =  1.00D-07  VARMAX  =  1.00D-03
 THRDOUB =  0.00D+00  THRDIV  =  1.00D-05  THRRED  =  1.00D-07  THRPSP  =  1.00D+00  THRDC   =  1.00D-10  THRCS   =  1.00D-10
 THRNRM  =  1.00D-08  THREQ   =  0.00D+00  THRDE   =  1.00D+00  THRREF  =  1.00D-05  SPARFAC =  1.00D+00  THRDLP  =  1.00D-07
 THRDIA  =  1.00D-10  THRDLS  =  1.00D-07  THRGPS  =  0.00D+00  THRKEX  =  0.00D+00  THRDIS  =  2.00D-01  THRVAR  =  1.00D-10
 THRLOC  =  1.00D-06  THRGAP  =  1.00D-06  THRLOCT = -1.00D+00  THRGAPT = -1.00D+00  THRORB  =  1.00D-06  THRMLTP =  0.00D+00
 THRCPQCI=  1.00D-10  KEXTA   =  0.00D+00  THRCOARS=  0.00D+00  SYMTOL  =  1.00D-06  GRADTOL =  1.00D-06  THROVL  =  1.00D-15
 THRORTH =  1.00D-08  GRID    =  1.00D-06  GRIDMAX =  1.00D-03  DTMAX   =  0.00D+00  THROCCDE=  1.00D-01  THROCCDE=  1.00D-01


 SETTING DKROLL         =         1.00000000                                  
 SETTING DKHO           =        10.00000000                                  
 SETTING DKHP           =         4.00000000                                  

 Variable memory set to 1000000000 words,  buffer space   230000 words

 SETTING BASIS          =    USERDEF
 SETTING NB_CCSD        =     -3818.57030200                                  
 SETTING O_CCSD         =       -75.09173839                                  
 SETTING NE             =        49.00000000                                  
 SETTING SYMM           =         1.00000000                                  
 SETTING SS             =         3.00000000                                  
 SETTING A1             =        12.00000000                                  
 SETTING B1             =         6.00000000                                  
 SETTING B2             =         6.00000000                                  
 SETTING A2             =         2.00000000                                  

Geometry recognized as XYZ



 Recomputing integrals since basis changed


 Using spherical harmonics



 PROGRAM * SEWARD (Integral evaluation for generally contracted gaussian basis sets)     Author: Roland Lindh, 1990

 Geometry written to block  1 of record 700


 Point group  C2v 



 ATOMIC COORDINATES

 NR  ATOM    CHARGE       X              Y              Z

   1  NB     41.00    0.000000000    0.000000000    0.000000000
   2  O       8.00    0.000000000    0.000000000    4.535342699

 Bond lengths in Bohr (Angstrom)

 1-2  4.535342699
     ( 2.400000000)

 NUCLEAR CHARGE:                   49
 NUMBER OF PRIMITIVE AOS:         604
 NUMBER OF SYMMETRY AOS:          463
 NUMBER OF CONTRACTIONS:          463   ( 188A1  + 109B1  + 109B2  +  57A2  )
 NUMBER OF CORE ORBITALS:          19   (  10A1  +   4B1  +   4B2  +   1A2  )
 NUMBER OF VALENCE ORBITALS:       10   (   5A1  +   2B1  +   2B2  +   1A2  )


 NUCLEAR REPULSION ENERGY   72.32088549

 One-electron integrals computed with SEWARD

 10nd-order Douglas-Kroll-Hess method activated. McWeeny DKH parametrization is used.

 Computing Douglas-Kroll / X2C integrals

 AO integral compression algorithm  1   Integral accuracy      1.0D-15

     3995.075 MB (compressed) written to integral file ( 33.8%)

     Node minimum: 250.348 MB, node maximum: 983.826 MB


 NUMBER OF SORTED TWO-ELECTRON INTEGRALS:  133772750.     BUFFER LENGTH:  32768
 NUMBER OF SEGMENTS:   5  SEGMENT LENGTH:   31987140      RECORD LENGTH: 524288

 Memory used in sort:      32.54 MW

 SORT1 READ  1479643020. AND WROTE    45263231. INTEGRALS IN    133 RECORDS. CPU TIME:    23.39 SEC, REAL TIME:    30.47 SEC
 SORT2 READ   491768835. AND WROTE  1471510799. INTEGRALS IN  13321 RECORDS. CPU TIME:     1.74 SEC, REAL TIME:     5.77 SEC

 Node minimum:   133705564.  Node maximum:   133852885. integrals

 OPERATOR DM      FOR CENTER  0  COORDINATES:    0.000000    0.000000    0.000000

 EXTRA SYMMETRY OF AOS IN SYMMETRY 1:   1 1 1 1 1 1 1 1 1 1   1 1 1 1 1 1 1 1 1 1   1 1 1 1 1 1 1 1 1 1   1 1 1 1 1 1 1 1 1 1
                                        1 1 1 1 1 1 1 1 1 1   1 1 1 1 1 1 1 1 1 1   1 1 1 1 1 1 2 1 2 1   2 1 2 1 2 1 2 1 2 1
                                        2 1 2 1 2 1 2 1 2 1   2 1 2 1 2 1 2 1 2 1   2 1 2 1 2 1 2 1 2 1   2 1 2 1 2 1 2 1 2 1
                                        2 1 2 1 3 2 1 3 2 1   3 2 1 3 2 1 3 2 2 3   1 2 3 1 2 3 1 4 3 2   1 4 3 2 1 1 1 1 1 1
                                        1 1 1 1 1 1 1 1 1 1   1 1 1 1 1 1 1 2 1 2   1 2 1 2 1 2 1 2
 EXTRA SYMMETRY OF AOS IN SYMMETRY 2:   1 1 1 1 1 1 1 1 1 1   1 1 1 1 1 1 1 1 1 1   1 1 1 1 1 1 1 1 1 1   1 1 1 1 1 1 1 1 1 1
                                        1 1 1 1 1 1 1 1 1 1   1 1 1 1 1 1 1 2 1 2   1 2 1 2 1 2 1 2 1 2   1 2 1 2 1 2 1 2 1 2
                                        3 1 2 3 1 2 3 3 2 1   3 2 1 1 1 1 1 1 1 1   1 1 1 1 1 1 2 1 2
 EXTRA SYMMETRY OF AOS IN SYMMETRY 3:   1 1 1 1 1 1 1 1 1 1   1 1 1 1 1 1 1 1 1 1   1 1 1 1 1 1 1 1 1 1   1 1 1 1 1 1 1 1 1 1
                                        1 1 1 1 1 1 1 1 1 1   1 1 1 1 1 1 1 2 1 2   1 2 1 2 1 2 1 2 1 2   1 2 1 2 1 2 1 2 1 2
                                        3 1 2 3 1 2 3 3 2 1   3 2 1 1 1 1 1 1 1 1   1 1 1 1 1 1 2 1 2
 EXTRA SYMMETRY OF AOS IN SYMMETRY 4:   1 1 1 1 1 1 1 1 1 1   1 1 1 1 1 1 1 1 1 1   1 1 1 1 1 1 1 1 1 1   2 1 2 1 2 1 2 1 2 2
                                        1 2 1 2 1 1 3 2 1 3   2 1 1 1 1 1 1

 Eigenvalues of metric

         1 0.327E-06 0.217E-05 0.547E-05 0.103E-04 0.124E-04 0.259E-04 0.301E-04 0.399E-04
         2 0.338E-06 0.217E-05 0.605E-05 0.126E-04 0.264E-04 0.399E-04 0.498E-04 0.359E-03
         3 0.338E-06 0.217E-05 0.605E-05 0.126E-04 0.264E-04 0.399E-04 0.498E-04 0.359E-03
         4 0.399E-04 0.664E-03 0.112E-02 0.208E-02 0.393E-02 0.742E-02 0.137E-01 0.245E-01


 **********************************************************************************************************************************
 DATASETS  * FILE   NREC   LENGTH (MB)   RECORD NAMES
              1      22       24.16       500      610      700      900      950      970     1000      129      960     1700   
                                          VAR    BASINP    GEOM    SYMINP    ZMAT    AOBASIS   BASIS     P2S    ABASIS    OPER   
                                         1101     1401     1411     1412     1650     1100     1400     1410     1200     1210   
                                          SR      EKINR    POTR     PVPR    MOLCAS      S      EKIN      POT      H0       H01  
                                         1080     1600   
                                         AOSYM     SMH  

 PROGRAMS   *        TOTAL       INT
 CPU TIMES  *       259.50    259.22
 REAL TIME  *       272.66 SEC
 DISK USED  *         9.87 GB      
 GA USED    *         0.00 MB       (max)       0.00 MB       (current)
 **********************************************************************************************************************************


 PROGRAM * RHF-SCF (OPEN SHELL)       Authors: W. Meyer, H.-J. Werner


 NUMBER OF ELECTRONS:      26+   23-    SPACE SYMMETRY=1    SPIN SYMMETRY: Quartet 
 CONVERGENCE THRESHOLDS:    1.00E-05 (Density)    1.00E-07 (Energy)
 MAX. NUMBER OF ITERATIONS:      200
 INTERPOLATION TYPE:            DIIS
 INTERPOLATION STEPS:              2 (START)      1 (STEP)
 LEVEL SHIFTS:                 -0.60 (CLOSED) -0.30 (OPEN) 

 Number of closed-shell orbitals:   23 (  12   5   5   1 )
 Number of open-shell orbitals:      3 (   0   1   1   1 )


 Orbital guess generated from atomic densities. Full valence occupancy:   15   6   6   2

 Molecular orbital dump at record        2100.2

 ITERATION    DDIFF          GRAD             ENERGY        2-EL.EN.            DIPOLE MOMENTS         DIIS   ORB.
    1      0.000D+00      0.000D+00     -3889.03465710   2955.225121    0.00000    0.00000   -8.72077    0    start
    2      0.000D+00      0.147D-01     -3886.99542693   3261.487160    0.00000    0.00000    9.87604    1    diag,B
    3      0.505D-01      0.374D-01     -3891.81589528   3142.513773    0.00000    0.00000   -3.38842    2    diag,B
    4      0.559D-02      0.749D-02     -3891.96735204   3120.524845    0.00000    0.00000   -3.83208    3    diag,B
    5      0.158D-02      0.390D-02     -3892.01882620   3114.434837    0.00000    0.00000   -4.43448    4    diag,B
    6      0.823D-03      0.192D-02     -3892.04055002   3107.396246    0.00000    0.00000   -4.77840    5    diag,B
    7      0.759D-03      0.538D-03     -3892.04564308   3104.676782    0.00000    0.00000   -4.87336    6    diag,B
    8      0.424D-03      0.318D-03     -3892.04829381   3103.993127    0.00000    0.00000   -4.83359    7    diag,B
    9      0.429D-03      0.260D-03     -3892.05075217   3104.191393    0.00000    0.00000   -4.69852    8    diag,B
   10      0.540D-03      0.196D-03     -3892.05207387   3104.212432    0.00000    0.00000   -4.60553    9    orth
   11      0.326D-03      0.180D-03     -3892.05355043   3103.947399    0.00000    0.00000   -4.49419    9    diag,B
   12      0.434D-03      0.135D-03     -3892.05509157   3103.798052    0.00000    0.00000   -4.31488    9    diag,B
   13      0.634D-03      0.106D-03     -3892.05612054   3103.782173    0.00000    0.00000   -4.13980    9    diag,B
   14      0.636D-03      0.757D-04     -3892.05675994   3103.636083    0.00000    0.00000   -3.89135    9    diag,B
   15      0.781D-03      0.639D-04     -3892.05682736   3103.634075    0.00000    0.00000   -3.87036    9    diag,B
   16      0.110D-03      0.239D-04     -3892.05685627   3103.618414    0.00000    0.00000   -3.81604    9    diag,B
   17      0.139D-03      0.117D-04     -3892.05685939   3103.629653    0.00000    0.00000   -3.81126    9    diag,B
   18      0.453D-04      0.754D-05     -3892.05686065   3103.632323    0.00000    0.00000   -3.80606    9    diag,B
   19      0.154D-04      0.478D-05     -3892.05686135   3103.635765    0.00000    0.00000   -3.80201    9    fixocc
   20      0.116D-04      0.321D-05     -3892.05686177   3103.643382    0.00000    0.00000   -3.79933    9    orth
   21      0.869D-05      0.164D-05     -3892.05686188   3103.647968    0.00000    0.00000   -3.79722    9    diag,B
   22      0.531D-05      0.789D-06     -3892.05686190   3103.649311    0.00000    0.00000   -3.79586    9    diag,B
   23      0.255D-05      0.397D-06     -3892.05686190   3103.649281    0.00000    0.00000   -3.79595    0    orth

 Final alpha occupancy:  12   6   6   2
 Final beta  occupancy:  12   5   5   1

 !RHF STATE 1.1 Energy              -3892.056861901860
 Nuclear energy                        72.32088549
 One-electron energy                -5516.20238811
 Two-electron energy                 1551.82464072
 Virial quotient                       -0.90895223
 !RHF STATE 1.1 Dipole moment           0.00000000     0.00000000    -3.79594914
 Dipole moment /Debye                   0.00000000     0.00000000    -9.64770841

 ELECTRON ORBITALS
 =================


   Orb  Occ    Energy  Couls-En    Coefficients

                                   1 1s      1 1s      1 1s      1 1s      1 1s      1 1s      1 1s      1 1s      1 1s      1 1s   
                                   1 1s      1 1s      1 1s      1 1s      1 1s      1 1s      1 1s      1 1s      1 1s      1 1s   
                                   1 1s      1 1s      1 1s      1 1s      1 1s      1 1s      1 1s      1 1s      1 1s      1 1s   
                                   1 1s      1 1s      1 2pz     1 2pz     1 2pz     1 2pz     1 2pz     1 2pz     1 2pz     1 2pz  
                                   1 2pz     1 2pz     1 2pz     1 2pz     1 2pz     1 2pz     1 2pz     1 2pz     1 2pz     1 2pz  
                                   1 2pz     1 2pz     1 2pz     1 2pz     1 2pz     1 2pz     1 2pz     1 2pz     1 2pz     1 2pz  
                                   1 2pz     1 2pz     1 2pz     1 2pz     1 2pz     1 3d0     1 3d2+    1 3d0     1 3d2+    1 3d0  
                                   1 3d2+    1 3d0     1 3d2+    1 3d0     1 3d2+    1 3d0     1 3d2+    1 3d0     1 3d2+    1 3d0  
                                   1 3d2+    1 3d0     1 3d2+    1 3d0     1 3d2+    1 3d0     1 3d2+    1 3d0     1 3d2+    1 3d0  
                                   1 3d2+    1 3d0     1 3d2+    1 3d0     1 3d2+    1 3d0     1 3d2+    1 3d0     1 3d2+    1 3d0  
                                   1 3d2+    1 3d0     1 3d2+    1 3d0     1 3d2+    1 3d0     1 3d2+    1 3d0     1 3d2+    1 3d0  
                                   1 3d2+    1 4f0     1 4f2+    1 4f0     1 4f2+    1 4f0     1 4f2+    1 4f0     1 4f2+    1 4f0  
                                   1 4f2+    1 4f0     1 4f2+    1 5g0     1 5g4+    1 5g2+    1 5g0     1 5g4+    1 5g2+    1 5g0  
                                   1 5g4+    1 5g2+    1 5g0     1 5g4+    1 5g2+    1 5g0     1 5g4+    1 5g2+    1 6h2+    1 6h4+ 
                                   1 6h0     1 6h2+    1 6h4+    1 6h0     1 6h2+    1 6h4+    1 6h0     1 7i6+    1 7i4+    1 7i2+ 
                                   1 7i0     1 7i6+    1 7i4+    1 7i2+    1 7i0     2 1s      2 1s      2 1s      2 1s      2 1s   
                                   2 1s      2 1s      2 1s      2 1s      2 1s      2 1s      2 1s      2 1s      2 2pz     2 2pz  
                                   2 2pz     2 2pz     2 2pz     2 2pz     2 2pz     2 2pz     2 3d0     2 3d2+    2 3d0     2 3d2+ 
                                   2 3d0     2 3d2+    2 3d0     2 3d2+    2 4f0     2 4f2+    2 4f0     2 4f2+ 

   1.1   2  -701.5542-1563.3289  0.000042  0.000115  0.000295  0.000468  0.000891  0.001786  0.003710  0.007904  0.017860  0.041501
                                 0.001175  0.099562  0.228266  0.385127  0.362542 -0.047560  0.073101 -0.011084  0.021827 -0.024369
                                 0.010904 -0.009598  0.011143 -0.006324  0.006994 -0.006208  0.001103 -0.000486  0.000174 -0.000071
                                 0.000029 -0.000008 -0.000000 -0.000000 -0.000000  0.000000 -0.000000  0.000000 -0.000001  0.000001
                                -0.000001  0.000006 -0.000007  0.000003 -0.000006  0.000016 -0.000035  0.000030 -0.000022  0.000043
                                -0.000282  0.000639 -0.001117  0.001150 -0.000630  0.000759 -0.001006  0.000591 -0.000205  0.000119
                                -0.000150 -0.000007  0.000012 -0.000006  0.000002 -0.000000 -0.000000  0.000000  0.000000 -0.000000
                                -0.000000  0.000000  0.000000 -0.000000 -0.000000 -0.000000 -0.000000 -0.000000  0.000000  0.000000
                                -0.000000 -0.000000  0.000000  0.000000 -0.000000 -0.000000  0.000000  0.000001 -0.000000 -0.000002
                                 0.000000  0.000005 -0.000000 -0.000012 -0.000000  0.000032  0.000000 -0.000053 -0.000000  0.000032
                                 0.000000 -0.000078 -0.000000  0.000025  0.000000 -0.000001 -0.000000  0.000000  0.000000 -0.000000
                                -0.000000  0.000001  0.000000 -0.000002 -0.000000  0.000003  0.000000 -0.000013 -0.000000 -0.000016
                                -0.000000  0.000007 -0.000000 -0.000001 -0.000000 -0.000000  0.000004  0.000000  0.000000 -0.000009
                                -0.000000 -0.000000 -0.000005  0.000000  0.000000  0.000003 -0.000000 -0.000000 -0.000000 -0.000000
                                -0.000001  0.000000  0.000000  0.000002 -0.000000 -0.000000 -0.000005  0.000000  0.000000 -0.000000
                                 0.000001 -0.000000  0.000000  0.000000 -0.000001  0.000000 -0.000000  0.000000 -0.000000  0.000000
                                -0.000002 -0.000005  0.000000 -0.000014  0.000028  0.000132  0.000004  0.000004 -0.000001 -0.000007
                                 0.000004 -0.000002 -0.000027 -0.000060  0.000006  0.000001 -0.000002  0.000000  0.000010 -0.000000
                                 0.000009  0.000000  0.000001 -0.000000 -0.000000  0.000000 -0.000006 -0.000000

   2.1   2  -100.9416 -316.6546 -0.000014 -0.000038 -0.000098 -0.000156 -0.000294 -0.000598 -0.001228 -0.002688 -0.005960 -0.015076
                                 0.001570 -0.038171 -0.087731 -0.193967 -0.178874 -0.068017  0.232175  0.724311  0.273552 -0.031071
                                -0.001115  0.019740 -0.026281  0.016221 -0.019664  0.017635 -0.003204  0.001442 -0.000517  0.000212
                                -0.000087  0.000025 -0.000000 -0.000000 -0.000000 -0.000000 -0.000000 -0.000000  0.000000 -0.000002
                                -0.000001 -0.000013  0.000009 -0.000020 -0.000031 -0.000099  0.000052 -0.000162 -0.000080 -0.000133
                                 0.000619 -0.001472  0.002705 -0.002877  0.001643 -0.002092  0.002827 -0.001691  0.000598 -0.000344
                                 0.000447  0.000022 -0.000036  0.000018 -0.000006  0.000000 -0.000000  0.000000  0.000000 -0.000000
                                -0.000000  0.000000  0.000000  0.000000 -0.000000  0.000001  0.000000  0.000000 -0.000000  0.000003
                                 0.000000  0.000011 -0.000000  0.000002 -0.000000  0.000001 -0.000000 -0.000001 -0.000000  0.000005
                                -0.000000 -0.000012  0.000000  0.000035 -0.000000 -0.000094  0.000000  0.000162 -0.000000 -0.000093
                                 0.000000  0.000231 -0.000000 -0.000076  0.000000  0.000002 -0.000000 -0.000000  0.000000  0.000000
                                 0.000000 -0.000001  0.000000  0.000007 -0.000000 -0.000009  0.000000  0.000041  0.000000  0.000048
                                 0.000000 -0.000021  0.000000  0.000005  0.000003 -0.000000 -0.000015 -0.000002 -0.000000  0.000030
                                 0.000001  0.000000  0.000013 -0.000000  0.000000 -0.000009  0.000000 -0.000000  0.000000 -0.000000
                                 0.000002 -0.000000  0.000000 -0.000005  0.000000 -0.000000  0.000014  0.000000  0.000000  0.000000
                                -0.000001  0.000000  0.000000 -0.000000  0.000004 -0.000000  0.000000 -0.000000  0.000000 -0.000000
                                 0.000004  0.000010 -0.000004  0.000045 -0.000087 -0.000397 -0.000008 -0.000007  0.000002  0.000018
                                -0.000011  0.000005  0.000086  0.000181 -0.000015 -0.000001  0.000007 -0.000000 -0.000030  0.000000
                                -0.000028 -0.000000 -0.000001  0.000000  0.000001  0.000000  0.000020 -0.000000

   3.1   2   -89.9365 -301.5849 -0.000000 -0.000000 -0.000000 -0.000000 -0.000000 -0.000000 -0.000000 -0.000001 -0.000002 -0.000006
                                 0.000001 -0.000014 -0.000032 -0.000071 -0.000061 -0.000032  0.000099  0.000267  0.000056  0.000025
                                -0.000022  0.000037 -0.000060  0.000047 -0.000079  0.000068 -0.000016  0.000051  0.000004 -0.000005
                                 0.000002 -0.000001  0.000015  0.000056  0.000199  0.000055  0.000667  0.000582  0.000980  0.002015
                                 0.007616  0.018570  0.000712  0.050136  0.118911  0.237817 -0.002921  0.348768  0.291739  0.103394
                                 0.013318 -0.006016  0.011322 -0.009721  0.004186 -0.002858  0.002808 -0.001212  0.000248 -0.000099
                                 0.000073 -0.000002 -0.000001  0.000000 -0.000000 -0.000000  0.000000 -0.000000 -0.000000 -0.000000
                                 0.000000 -0.000000 -0.000000 -0.000000  0.000000 -0.000001 -0.000000 -0.000002 -0.000000 -0.000006
                                -0.000000 -0.000013 -0.000000 -0.000013 -0.000000 -0.000004 -0.000000 -0.000001 -0.000000  0.000003
                                -0.000000 -0.000002 -0.000000  0.000006  0.000000 -0.000012 -0.000000  0.000016  0.000000 -0.000002
                                -0.000000  0.000021  0.000000 -0.000004 -0.000000 -0.000001 -0.000000  0.000000  0.000000 -0.000000
                                 0.000000 -0.000003 -0.000000  0.000016  0.000000 -0.000001 -0.000000  0.000008  0.000000  0.000006
                                 0.000000 -0.000002  0.000000  0.000001 -0.000000  0.000000 -0.000003  0.000000 -0.000000  0.000004
                                -0.000000  0.000000  0.000002 -0.000000 -0.000000 -0.000001 -0.000000 -0.000000 -0.000000  0.000000
                                 0.000001  0.000000 -0.000000 -0.000001 -0.000000  0.000000  0.000002  0.000000 -0.000000  0.000000
                                -0.000000  0.000000 -0.000000  0.000000  0.000000  0.000000 -0.000000  0.000000 -0.000000  0.000000
                                -0.000002 -0.000004 -0.000003  0.000007 -0.000015 -0.000049  0.000004  0.000003  0.000000  0.000001
                                -0.000001  0.000001  0.000014  0.000019 -0.000001 -0.000000  0.000001 -0.000000 -0.000003  0.000000
                                -0.000004 -0.000000 -0.000000  0.000000  0.000000  0.000000  0.000001  0.000000

   4.1   2   -20.4653  -61.4564  0.000000  0.000000  0.000000  0.000000  0.000000  0.000000  0.000000  0.000000  0.000000  0.000000
                                -0.000000  0.000000  0.000000  0.000001 -0.000002  0.000004 -0.000004  0.000000 -0.000037  0.000063
                                -0.000043  0.000114 -0.000095 -0.000065 -0.004630  0.009184 -0.006465 -0.002109  0.000554 -0.000003
                                -0.000005  0.000002 -0.000000  0.000000 -0.000000  0.000000 -0.000000  0.000000 -0.000000  0.000000
                                -0.000000  0.000004 -0.000004  0.000002 -0.000003  0.000013 -0.000028  0.000026 -0.000022  0.000052
                                -0.000389  0.000926 -0.001690  0.001771 -0.000988  0.001429 -0.002375  0.001611  0.001414 -0.004883
                                -0.001423  0.000312  0.000035 -0.000023  0.000008 -0.000000  0.000000  0.000000 -0.000000 -0.000001
                                 0.000000  0.000001 -0.000000 -0.000001  0.000000  0.000001  0.000000 -0.000001  0.000000  0.000001
                                 0.000000 -0.000004  0.000000  0.000005  0.000000 -0.000014  0.000000  0.000018  0.000000 -0.000032
                                 0.000000  0.000062  0.000000 -0.000206  0.000000  0.001088  0.000000 -0.002346 -0.000000 -0.001861
                                -0.000000  0.000003  0.000000  0.000205 -0.000000  0.000086  0.000000 -0.000026 -0.000000  0.000008
                                -0.000000  0.000072 -0.000000 -0.000168  0.000000  0.000272  0.000000 -0.001654  0.000000 -0.000424
                                -0.000000  0.000283  0.000000 -0.000020 -0.000000 -0.000000  0.000189 -0.000000  0.000000 -0.000648
                                 0.000000 -0.000000 -0.000301 -0.000000 -0.000000  0.000112 -0.000000  0.000000  0.000000  0.000000
                                 0.000008 -0.000000 -0.000000 -0.000010  0.000000  0.000000 -0.000116  0.000000  0.000000 -0.000000
                                -0.000004 -0.000000  0.000000  0.000000  0.000001  0.000743  0.004238  0.020744  0.079675  0.231927
                                 0.424962  0.334522  0.041060 -0.011072  0.008480  0.001334  0.010329  0.013898 -0.000061 -0.000174
                                -0.000322  0.000733 -0.004368 -0.001027 -0.000324 -0.000009 -0.000358 -0.000000  0.000109 -0.000000
                                 0.001780  0.000000  0.000222 -0.000000  0.000111  0.000000 -0.000519 -0.000000

   5.1   2   -18.1126 -107.4418  0.000006  0.000016  0.000041  0.000065  0.000124  0.000251  0.000516  0.001131  0.002506  0.006391
                                -0.000735  0.016288  0.037652  0.086232  0.081880  0.037186 -0.139055 -0.606901 -0.320396  0.339179
                                 0.763179  0.537577 -0.311471  0.163024 -0.162630  0.144518 -0.025826  0.011350 -0.004173  0.001725
                                -0.000705  0.000201  0.000000  0.000000  0.000000  0.000000  0.000001 -0.000000  0.000003 -0.000001
                                 0.000009 -0.000007  0.000029  0.000026  0.000117  0.000124  0.000174  0.000151  0.000388 -0.000592
                                 0.002028 -0.006861  0.012363 -0.014683  0.008649 -0.012445  0.017496 -0.010901  0.004106 -0.002576
                                 0.003325  0.000170 -0.000285  0.000140 -0.000044 -0.000000  0.000000 -0.000000 -0.000000 -0.000000
                                 0.000000 -0.000000 -0.000000 -0.000000  0.000000 -0.000002  0.000000 -0.000004  0.000000 -0.000013
                                 0.000000 -0.000038  0.000000 -0.000050  0.000000 -0.000046  0.000000  0.000074  0.000000  0.000048
                                 0.000000 -0.000140  0.000000  0.000254 -0.000000 -0.000648  0.000000  0.001130 -0.000000 -0.000736
                                 0.000000  0.001765 -0.000000 -0.000590  0.000000  0.000021 -0.000000 -0.000002 -0.000000  0.000000
                                -0.000000  0.000109  0.000000 -0.000077 -0.000000 -0.000037  0.000000  0.000251 -0.000000  0.000362
                                 0.000000 -0.000165 -0.000000  0.000019  0.000011 -0.000000 -0.000136 -0.000058  0.000000  0.000211
                                 0.000027  0.000000  0.000089 -0.000007 -0.000000 -0.000071  0.000002  0.000000  0.000000 -0.000000
                                 0.000011 -0.000000  0.000001 -0.000029  0.000000  0.000000  0.000093 -0.000000 -0.000000 -0.000000
                                -0.000007  0.000000 -0.000000  0.000000  0.000025  0.000000  0.000000 -0.000000  0.000000 -0.000001
                                 0.000022  0.000065 -0.000010  0.000272 -0.000537 -0.002963 -0.000058 -0.000042  0.000008  0.000080
                                -0.000064  0.000029  0.000547  0.001379 -0.000063 -0.000003  0.000043  0.000000 -0.000198 -0.000000
                                -0.000181  0.000000 -0.000006 -0.000000  0.000006  0.000000  0.000139 -0.000000

   6.1   2   -14.4079 -100.6304  0.000000  0.000000  0.000000  0.000000  0.000000  0.000001  0.000001  0.000002  0.000005  0.000013
                                -0.000002  0.000034  0.000078  0.000181  0.000160  0.000095 -0.000310 -0.001290 -0.000777  0.001047
                                 0.001606  0.000780 -0.000701  0.000491 -0.001278  0.001396 -0.000557  0.000486  0.000030 -0.000045
                                 0.000018 -0.000005 -0.000006 -0.000024 -0.000086 -0.000024 -0.000288 -0.000256 -0.000417 -0.000888
                                -0.003325 -0.008289 -0.000217 -0.022624 -0.055107 -0.115859  0.002910 -0.180426 -0.122308  0.158198
                                 0.460992 -0.006834  0.443365 -0.044338  0.137888 -0.015626  0.024779 -0.010469  0.002657 -0.001230
                                 0.000726 -0.000031  0.000001 -0.000001  0.000000 -0.000000  0.000000 -0.000000 -0.000000 -0.000001
                                 0.000000  0.000001 -0.000000 -0.000002  0.000000 -0.000006  0.000000 -0.000021  0.000000 -0.000056
                                 0.000000 -0.000138  0.000000 -0.000266  0.000000 -0.000379  0.000000 -0.000361  0.000000 -0.000132
                                 0.000000 -0.000059  0.000000 -0.000014  0.000000 -0.000030  0.000000  0.000057 -0.000000 -0.000127
                                 0.000000  0.000264  0.000000 -0.000071 -0.000000  0.000005  0.000000 -0.000001  0.000000  0.000000
                                 0.000000  0.000330  0.000000 -0.000327 -0.000000 -0.000036  0.000000 -0.000057 -0.000000  0.000072
                                -0.000000 -0.000019 -0.000000  0.000007  0.000001 -0.000000 -0.000013  0.000000  0.000000  0.000007
                                 0.000000  0.000000  0.000013  0.000000 -0.000000 -0.000002 -0.000000  0.000000 -0.000000  0.000037
                                 0.000060 -0.000000 -0.000030 -0.000049  0.000000  0.000005  0.000013  0.000000 -0.000000 -0.000000
                                -0.000001 -0.000000  0.000000 -0.000000  0.000003  0.000000  0.000000 -0.000000  0.000000 -0.000001
                                 0.000010  0.000037  0.000031 -0.000027  0.000029 -0.000396 -0.000041 -0.000021  0.000000  0.000004
                                -0.000004  0.000009 -0.000025  0.000157 -0.000003 -0.000000  0.000001  0.000000 -0.000013 -0.000000
                                 0.000019  0.000000 -0.000000 -0.000000  0.000001  0.000000  0.000007 -0.000000

   7.1   2    -8.3360  -89.9779 -0.000000 -0.000000 -0.000000 -0.000000 -0.000000 -0.000000 -0.000000 -0.000000 -0.000000 -0.000001
                                 0.000000 -0.000003 -0.000006 -0.000014 -0.000006 -0.000018  0.000038  0.000141  0.000117 -0.000380
                                -0.000351  0.000977 -0.000187 -0.000238  0.000468 -0.000985  0.000649  0.000020  0.000047 -0.000020
                                 0.000007 -0.000002 -0.000000 -0.000000 -0.000000 -0.000000 -0.000000 -0.000000 -0.000000 -0.000001
                                -0.000003 -0.000009  0.000000 -0.000024 -0.000056 -0.000121  0.000007 -0.000189 -0.000128  0.000138
                                 0.000558 -0.000170  0.000853 -0.000392  0.000529 -0.000372  0.000306 -0.000216 -0.000281  0.000492
                                -0.000009  0.000034 -0.000017  0.000008 -0.000002  0.000101  0.000000  0.000016  0.000000  0.001144
                                 0.000000 -0.000756 -0.000000  0.002169  0.000000  0.006184  0.000000  0.020196  0.000000  0.055333
                                 0.000000  0.131352  0.000000  0.237740  0.000000  0.316493  0.000000  0.293043  0.000000  0.155098
                                 0.000000  0.039226  0.000000  0.004171  0.000000  0.000113  0.000000  0.000250  0.000000  0.000152
                                -0.000000 -0.000078  0.000000  0.000055 -0.000000 -0.000024  0.000000  0.000006 -0.000000 -0.000002
                                -0.000000 -0.000521 -0.000000  0.000281  0.000000 -0.000238 -0.000000  0.000175  0.000000 -0.000009
                                -0.000000  0.000001  0.000000 -0.000074 -0.000041 -0.000000 -0.000116  0.000125  0.000000  0.000112
                                -0.000052 -0.000000  0.000003  0.000014  0.000000 -0.000005 -0.000004 -0.000000  0.000000  0.000001
                                 0.000037 -0.000000 -0.000001 -0.000039  0.000000 -0.000001  0.000037  0.000000  0.000028  0.000000
                                 0.000059 -0.000000 -0.000011 -0.000000 -0.000018  0.000000 -0.000000  0.000000 -0.000000  0.000001
                                -0.000017 -0.000062 -0.000069  0.000141 -0.000293 -0.000172  0.000072  0.000036  0.000001  0.000009
                                -0.000009 -0.000002  0.000293  0.000049 -0.000007 -0.000000  0.000007 -0.000000 -0.000035  0.000000
                                -0.000108 -0.000000 -0.000001  0.000000  0.000002 -0.000000  0.000018  0.000000

   8.1   2    -8.3322  -89.9492  0.000000  0.000000 -0.000000  0.000000  0.000000  0.000000  0.000000  0.000000  0.000000  0.000000
                                -0.000000  0.000000  0.000000  0.000000  0.000000  0.000000 -0.000000 -0.000000 -0.000000  0.000000
                                 0.000000 -0.000000  0.000000  0.000000 -0.000000  0.000000 -0.000000  0.000000 -0.000000  0.000000
                                -0.000000  0.000000  0.000000  0.000000  0.000000  0.000000  0.000000  0.000000  0.000000  0.000000
                                 0.000000  0.000000  0.000000  0.000000  0.000000  0.000000  0.000000  0.000000  0.000000 -0.000000
                                -0.000000 -0.000000  0.000000 -0.000000  0.000000 -0.000000  0.000000 -0.000000  0.000000 -0.000000
                                 0.000000 -0.000000  0.000000 -0.000000 -0.000000 -0.000000  0.000101 -0.000000  0.000016 -0.000000
                                 0.001144  0.000000 -0.000755 -0.000000  0.002168 -0.000000  0.006182 -0.000000  0.020189 -0.000000
                                 0.055313 -0.000000  0.131305 -0.000000  0.237652 -0.000000  0.316417 -0.000000  0.292970 -0.000000
                                 0.155168 -0.000000  0.039653 -0.000000  0.004203  0.000000  0.000273 -0.000000  0.000013  0.000000
                                -0.000006 -0.000000  0.000004  0.000000 -0.000002 -0.000000  0.000001  0.000000 -0.000000 -0.000000
                                 0.000000  0.000000 -0.000576 -0.000000  0.000351  0.000000 -0.000153 -0.000000  0.000032  0.000000
                                -0.000016 -0.000000  0.000007  0.000000  0.000000 -0.000117  0.000000 -0.000000  0.000155 -0.000000
                                 0.000000 -0.000072  0.000000 -0.000000  0.000020  0.000000  0.000000 -0.000005  0.000024 -0.000000
                                -0.000000 -0.000025  0.000000  0.000000  0.000002  0.000000 -0.000000  0.000066 -0.000000  0.000037
                                -0.000000 -0.000025  0.000000 -0.000015  0.000000 -0.000000 -0.000000 -0.000000 -0.000000 -0.000000
                                -0.000000  0.000000  0.000000 -0.000000  0.000000  0.000000 -0.000000 -0.000000 -0.000000 -0.000000
                                 0.000000 -0.000000 -0.000000 -0.000000  0.000000  0.000000 -0.000000 -0.000001  0.000000  0.000000
                                 0.000000 -0.000005 -0.000000  0.000000 -0.000000 -0.000000 -0.000000  0.000001

   9.1   2    -2.7814  -42.3593 -0.000002 -0.000006 -0.000016 -0.000025 -0.000048 -0.000097 -0.000199 -0.000436 -0.000969 -0.002450
                                 0.000233 -0.006237 -0.014644 -0.033398 -0.034142 -0.012029  0.054904  0.270774  0.113539 -0.099712
                                -0.658438 -0.567216  0.547763  0.561073  1.043251 -0.633609  0.120054 -0.048318  0.018425 -0.007765
                                 0.003196 -0.000914 -0.000000 -0.000000 -0.000000 -0.000000 -0.000001  0.000000 -0.000006  0.000001
                                -0.000020  0.000001 -0.000048 -0.000075 -0.000275 -0.000377 -0.000288 -0.000522 -0.000784  0.001550
                                -0.002579  0.013124 -0.023539  0.030168 -0.020156  0.025149 -0.041915  0.020542 -0.017499  0.009495
                                -0.013255 -0.000796  0.001277 -0.000635  0.000200  0.000000  0.000000  0.000000 -0.000000  0.000002
                                 0.000000 -0.000001 -0.000000  0.000005  0.000000  0.000018 -0.000000  0.000055 -0.000000  0.000157
                                -0.000000  0.000371 -0.000000  0.000671 -0.000000  0.000836 -0.000000  0.000652 -0.000000 -0.000375
                                 0.000000 -0.001115 -0.000000 -0.005574  0.000000 -0.000851 -0.000000 -0.002809  0.000000  0.002870
                                -0.000000 -0.007170  0.000000  0.002474 -0.000000 -0.000082  0.000000  0.000004 -0.000000 -0.000001
                                 0.000000 -0.000065  0.000000 -0.000138 -0.000000 -0.000828 -0.000000 -0.000306  0.000000 -0.001523
                                 0.000000  0.000715  0.000000 -0.000334 -0.000282  0.000000 -0.000543 -0.000743  0.000000 -0.000666
                                -0.000463 -0.000000 -0.000489 -0.000085  0.000000  0.000321  0.000016 -0.000000  0.000000 -0.000001
                                -0.000026 -0.000000  0.000010  0.000099  0.000000  0.000045 -0.000024 -0.000000 -0.000003  0.000000
                                 0.000000 -0.000000 -0.000004 -0.000000  0.000016 -0.000000 -0.000002 -0.000010 -0.000042 -0.000126
                                -0.000339 -0.000533  0.000221  0.000417  0.002020  0.011871  0.000182  0.000092 -0.000033 -0.000286
                                -0.000327 -0.000920 -0.001836 -0.005687  0.000093  0.000001 -0.000039  0.000000  0.000807  0.000000
                                 0.000505 -0.000000  0.000014  0.000000 -0.000050 -0.000000 -0.000521  0.000000

  10.1   2    -1.6914  -37.5470 -0.000000 -0.000000 -0.000000 -0.000001 -0.000001 -0.000002 -0.000004 -0.000009 -0.000019 -0.000049
                                 0.000004 -0.000125 -0.000294 -0.000670 -0.000696 -0.000228  0.001099  0.005522  0.002116 -0.001670
                                -0.014642 -0.010073  0.007666  0.024416  0.000909  0.005694 -0.018502 -0.004407 -0.000548  0.000241
                                -0.000059  0.000012  0.000002  0.000009  0.000031  0.000009  0.000103  0.000091  0.000150  0.000315
                                 0.001189  0.002947  0.000097  0.008099  0.019862  0.042016 -0.001020  0.066195  0.042462 -0.079020
                                -0.214381 -0.028247 -0.194405 -0.036486  0.119061  0.445501  0.016416  0.418604  0.176178  0.012900
                                 0.001149 -0.000897  0.000535 -0.000243  0.000074  0.000000 -0.000000  0.000001  0.000000  0.000000
                                -0.000000  0.000005  0.000000  0.000005 -0.000000  0.000040  0.000000  0.000100  0.000000  0.000322
                                 0.000000  0.000696  0.000000  0.001393  0.000000  0.001569  0.000000  0.001722  0.000000 -0.001268
                                 0.000000 -0.002420  0.000000 -0.008251 -0.000000 -0.005198 -0.000000 -0.003467 -0.000000 -0.005791
                                 0.000000  0.002288 -0.000000 -0.001852  0.000000  0.000826 -0.000000 -0.000210  0.000000  0.000067
                                -0.000000 -0.001557 -0.000000 -0.000080  0.000000 -0.009575  0.000000 -0.007637  0.000000 -0.000038
                                 0.000000 -0.000058 -0.000000 -0.000035  0.000021  0.000000  0.000340 -0.000002 -0.000000 -0.000290
                                 0.000038  0.000000 -0.000463  0.000012  0.000000  0.000238 -0.000001  0.000000 -0.000000  0.000106
                                 0.000138 -0.000000  0.000183  0.000422  0.000000 -0.000121 -0.000044 -0.000000 -0.000007  0.000000
                                -0.000037  0.000000 -0.000001  0.000000  0.000102 -0.000005 -0.000028 -0.000137 -0.000534 -0.001704
                                -0.003399 -0.003488  0.005233  0.012894  0.015652  0.006108 -0.001410 -0.000909 -0.000200 -0.001497
                                -0.004391 -0.007950 -0.011277 -0.001861 -0.000044 -0.000032  0.000263  0.000000  0.002049  0.000000
                                 0.002767 -0.000000  0.000023  0.000000 -0.000277 -0.000000 -0.000592  0.000000

  11.1   2    -1.0533  -17.1858  0.000000  0.000000  0.000000  0.000001  0.000001  0.000003  0.000006  0.000013  0.000028  0.000071
                                -0.000006  0.000180  0.000424  0.000965  0.001009  0.000321 -0.001578 -0.007987 -0.003025  0.002318
                                 0.021348  0.017367 -0.017617 -0.024710 -0.066065  0.045727  0.022230  0.001717 -0.003118  0.001393
                                -0.000494  0.000134 -0.000000 -0.000001 -0.000002 -0.000001 -0.000007 -0.000006 -0.000011 -0.000020
                                -0.000081 -0.000189 -0.000017 -0.000537 -0.001338 -0.002784 -0.000002 -0.004372 -0.002899  0.005511
                                 0.013289  0.005174  0.006731  0.009948 -0.013521 -0.028058 -0.003919 -0.035217 -0.005203  0.011027
                                -0.006937 -0.001157  0.000437 -0.000159  0.000045 -0.000001  0.000000  0.000000 -0.000000 -0.000014
                                 0.000000  0.000012 -0.000000 -0.000023 -0.000000 -0.000053 -0.000000 -0.000191 -0.000000 -0.000501
                                -0.000000 -0.001244 -0.000000 -0.002167 -0.000000 -0.002911 -0.000000 -0.002157 -0.000000  0.000378
                                -0.000000  0.006085  0.000000  0.007576 -0.000000  0.011087  0.000000  0.012059 -0.000000 -0.000468
                                 0.000000 -0.002238 -0.000000  0.000744  0.000000 -0.000267 -0.000000  0.000108  0.000000 -0.000038
                                -0.000000  0.000893 -0.000000 -0.000638  0.000000  0.003591 -0.000000  0.004902  0.000000 -0.003139
                                -0.000000  0.001167  0.000000  0.000115 -0.000016 -0.000000  0.000012  0.000010  0.000000  0.002203
                                 0.000023  0.000000 -0.001232  0.000002 -0.000000  0.000125 -0.000001 -0.000000  0.000000 -0.000008
                                 0.000012 -0.000000 -0.000019 -0.000066  0.000000  0.000025  0.001303  0.000000  0.000003 -0.000000
                                -0.000061 -0.000000  0.000019  0.000000  0.000436 -0.000164 -0.000934 -0.004629 -0.018157 -0.057701
                                -0.120131 -0.135658  0.174794  0.547758  0.397412  0.040105 -0.031796 -0.023187 -0.000024  0.000150
                                -0.001887 -0.003417 -0.018993 -0.004478 -0.000332 -0.000027 -0.000318  0.000000  0.001257 -0.000000
                                 0.003866 -0.000000 -0.000303 -0.000000  0.000048  0.000000 -0.001805  0.000000

  12.1   2    -0.2664  -16.8630  0.000000  0.000001  0.000003  0.000005  0.000009  0.000018  0.000038  0.000083  0.000184  0.000464
                                -0.000040  0.001180  0.002790  0.006339  0.006675  0.002052 -0.010347 -0.052807 -0.019315  0.013906
                                 0.145668  0.114136 -0.109488 -0.205314 -0.344045  0.072038  0.263929  0.428036  0.044686  0.015427
                                -0.007253  0.002164 -0.000000 -0.000000 -0.000002 -0.000001 -0.000006 -0.000006 -0.000007 -0.000020
                                -0.000067 -0.000187  0.000014 -0.000481 -0.001142 -0.002502  0.000181 -0.003974 -0.002356  0.004505
                                 0.014757 -0.002787  0.020702 -0.007538 -0.002977 -0.044961  0.024738 -0.060103 -0.002828  0.065525
                                 0.005287 -0.018347  0.002293 -0.001581  0.000521 -0.000008  0.000000 -0.000001 -0.000000 -0.000086
                                 0.000000  0.000057 -0.000000 -0.000164  0.000000 -0.000468 -0.000000 -0.001534 -0.000000 -0.004228
                                -0.000000 -0.010145 -0.000000 -0.018244 -0.000000 -0.023395 -0.000000 -0.018813 -0.000000  0.007476
                                 0.000000  0.049050  0.000000  0.080014  0.000000  0.083919  0.000000  0.104768  0.000000  0.045583
                                 0.000000  0.018881  0.000000 -0.006595  0.000000  0.001893  0.000000 -0.001077  0.000000  0.000362
                                -0.000000  0.001561  0.000000 -0.000626 -0.000000  0.005866  0.000000  0.019893 -0.000000 -0.006783
                                 0.000000 -0.000134 -0.000000 -0.000106 -0.000222  0.000000 -0.002046 -0.000069 -0.000000  0.007707
                                 0.000328 -0.000000 -0.001773  0.000220 -0.000000 -0.001482 -0.000017  0.000000 -0.000000 -0.000009
                                 0.000085  0.000000 -0.000017 -0.000244 -0.000000  0.000074  0.003776 -0.000000  0.000029  0.000000
                                -0.000055  0.000000  0.000134  0.000000  0.001080  0.000021  0.000122  0.000609  0.002372  0.007678
                                 0.014826  0.014069 -0.031467 -0.077235 -0.101288 -0.076629  0.009446  0.005539 -0.007255 -0.052927
                                -0.183097 -0.294642 -0.242273 -0.057315 -0.006468 -0.001462  0.002977 -0.000000  0.009086  0.000000
                                 0.005169 -0.000000  0.000229  0.000000 -0.002372 -0.000000 -0.002443 -0.000000

  13.1   0    -0.0541  -12.9672  0.000000  0.000001  0.000002  0.000004  0.000007  0.000014  0.000029  0.000063  0.000140  0.000352
                                -0.000032  0.000895  0.002109  0.004803  0.004989  0.001644 -0.007894 -0.039811 -0.015610  0.012419
                                 0.107657  0.092350 -0.091681 -0.146786 -0.316372  0.157745  0.040354  0.412854  0.330152  0.155931
                                 0.013946 -0.001096  0.000000  0.000001  0.000004  0.000001  0.000014  0.000013  0.000020  0.000046
                                 0.000166  0.000430 -0.000004  0.001153  0.002794  0.005992 -0.000259  0.009478  0.005879 -0.011270
                                -0.032973  0.000099 -0.037413  0.004430  0.015057  0.090531 -0.023106  0.109149  0.019268 -0.075870
                                -0.176209 -0.194403 -0.035747 -0.005151  0.001083  0.000006 -0.000000  0.000000 -0.000000  0.000067
                                 0.000000 -0.000049 -0.000000  0.000124  0.000000  0.000334 -0.000000  0.001119 -0.000000  0.003048
                                -0.000000  0.007372 -0.000000  0.013162 -0.000000  0.017055 -0.000000  0.013463 -0.000000 -0.004725
                                 0.000000 -0.036348 -0.000000 -0.053979  0.000000 -0.066170 -0.000000 -0.070522  0.000000 -0.064772
                                -0.000000  0.003935  0.000000 -0.006135 -0.000000  0.006547  0.000000  0.004707  0.000000 -0.001233
                                -0.000000 -0.000346  0.000000 -0.000012 -0.000000 -0.000938  0.000000  0.002484 -0.000000  0.028872
                                 0.000000  0.007350 -0.000000 -0.000088 -0.000875  0.000000  0.000275 -0.001050 -0.000000 -0.004796
                                -0.002765  0.000000  0.002821 -0.001740 -0.000000  0.001396  0.000082  0.000000 -0.000000  0.000002
                                -0.000025  0.000000  0.000053  0.000094 -0.000000  0.000279 -0.001465 -0.000000  0.000001  0.000000
                                 0.000069  0.000000 -0.000012 -0.000000 -0.000369 -0.000001 -0.000006 -0.000034 -0.000122 -0.000458
                                -0.000264  0.001318  0.004820  0.002817  0.019594 -0.045925 -0.003057 -0.001521  0.004111  0.029953
                                 0.104472  0.167082  0.149216  0.092371  0.003779  0.000835 -0.001182 -0.000000 -0.004035  0.000000
                                -0.001756 -0.000000 -0.000088  0.000000  0.001257 -0.000000  0.001802  0.000000

  14.1   0    -0.0016   -3.0345 -0.000000 -0.000000 -0.000001 -0.000001 -0.000002 -0.000004 -0.000008 -0.000017 -0.000038 -0.000094
                                 0.000007 -0.000239 -0.000570 -0.001289 -0.001405 -0.000355  0.002063  0.010856  0.003273 -0.001603
                                -0.030958 -0.018458  0.010172  0.057330  0.007874  0.059786 -0.077031 -0.043012 -0.259183  0.148517
                                -0.410495  1.011964 -0.000000 -0.000000 -0.000000 -0.000000 -0.000001  0.000000 -0.000003  0.000001
                                -0.000008  0.000005 -0.000024 -0.000024 -0.000105 -0.000120 -0.000146 -0.000154 -0.000316  0.000681
                                -0.001636  0.006815 -0.012775  0.015999 -0.011067  0.013853 -0.024225  0.012837 -0.009019  0.009473
                                 0.006370  0.026194 -0.093638 -0.095401 -0.540746 -0.000002  0.000000 -0.000000  0.000000 -0.000024
                                 0.000000  0.000016 -0.000000 -0.000046  0.000000 -0.000131  0.000000 -0.000430  0.000000 -0.001185
                                 0.000000 -0.002843  0.000000 -0.005113  0.000000 -0.006557  0.000000 -0.005286  0.000000  0.002031
                                -0.000000  0.013768 -0.000000  0.021839 -0.000000  0.025479 -0.000000  0.025508 -0.000000  0.020788
                                -0.000000  0.026329 -0.000000 -0.006003 -0.000000  0.052892  0.000000  0.036061 -0.000000  0.162122
                                 0.000000 -0.000116 -0.000000 -0.000025  0.000000 -0.000623  0.000000 -0.003218  0.000000 -0.005277
                                -0.000000 -0.009442  0.000000 -0.000180  0.000294 -0.000000  0.000138  0.000339 -0.000000 -0.000714
                                 0.000805 -0.000000 -0.001209  0.000544  0.000000 -0.002902  0.000084  0.000000  0.000000 -0.000002
                                -0.000001 -0.000000 -0.000004  0.000013  0.000000 -0.000063  0.000037  0.000000 -0.000000 -0.000000
                                -0.000009 -0.000000  0.000001  0.000000  0.000024 -0.000001 -0.000004 -0.000021 -0.000086 -0.000256
                                -0.000740 -0.001309  0.000161  0.003601 -0.000889  0.023098  0.000619  0.000267 -0.000348 -0.002530
                                -0.008919 -0.014042 -0.014394 -0.010042 -0.000336 -0.000072  0.000148  0.000000  0.000744 -0.000000
                                 0.001435  0.000000  0.000013 -0.000000 -0.000124  0.000000 -0.000502 -0.000000

                                   1 2px     1 2px     1 2px     1 2px     1 2px     1 2px     1 2px     1 2px     1 2px     1 2px  
                                   1 2px     1 2px     1 2px     1 2px     1 2px     1 2px     1 2px     1 2px     1 2px     1 2px  
                                   1 2px     1 2px     1 2px     1 2px     1 2px     1 2px     1 2px     1 2px     1 2px     1 2px  
                                   1 2px     1 2px     1 2px     1 3d1+    1 3d1+    1 3d1+    1 3d1+    1 3d1+    1 3d1+    1 3d1+ 
                                   1 3d1+    1 3d1+    1 3d1+    1 3d1+    1 3d1+    1 3d1+    1 3d1+    1 3d1+    1 3d1+    1 3d1+ 
                                   1 3d1+    1 3d1+    1 3d1+    1 3d1+    1 3d1+    1 3d1+    1 4f1+    1 4f3+    1 4f1+    1 4f3+ 
                                   1 4f1+    1 4f3+    1 4f1+    1 4f3+    1 4f1+    1 4f3+    1 4f1+    1 4f3+    1 5g1+    1 5g3+ 
                                   1 5g1+    1 5g3+    1 5g1+    1 5g3+    1 5g1+    1 5g3+    1 5g1+    1 5g3+    1 6h1+    1 6h3+ 
                                   1 6h5+    1 6h1+    1 6h3+    1 6h5+    1 6h1+    1 6h3+    1 6h5+    1 7i5+    1 7i3+    1 7i1+ 
                                   1 7i5+    1 7i3+    1 7i1+    2 2px     2 2px     2 2px     2 2px     2 2px     2 2px     2 2px  
                                   2 2px     2 3d1+    2 3d1+    2 3d1+    2 3d1+    2 4f1+    2 4f3+    2 4f1+    2 4f3+ 

   1.2   2   -89.9353 -301.5827  0.000015  0.000056  0.000199  0.000055  0.000667  0.000582  0.000980  0.002015  0.007616  0.018571
                                 0.000711  0.050137  0.118911  0.237821 -0.002923  0.348771  0.291724  0.103406  0.013278 -0.005896
                                 0.011088 -0.009473  0.004037 -0.002677  0.002565 -0.001070  0.000206 -0.000075  0.000025 -0.000006
                                 0.000004 -0.000002  0.000001 -0.000000 -0.000000 -0.000000 -0.000000 -0.000000 -0.000001 -0.000004
                                -0.000011 -0.000018 -0.000008 -0.000001 -0.000002 -0.000002 -0.000000  0.000001  0.000001  0.000001
                                -0.000001  0.000001  0.000001 -0.000000  0.000000 -0.000000  0.000005 -0.000004 -0.000011  0.000015
                                 0.000001  0.000000 -0.000002  0.000002  0.000001 -0.000001  0.000000  0.000000  0.000001 -0.000000
                                -0.000000  0.000000  0.000000 -0.000000 -0.000000 -0.000000  0.000000 -0.000000  0.000000 -0.000000
                                 0.000001 -0.000000  0.000000 -0.000000 -0.000000 -0.000000  0.000000 -0.000000 -0.000000 -0.000000
                                 0.000000 -0.000000 -0.000000 -0.000000 -0.000000  0.000000 -0.000000  0.000001 -0.000002  0.000000
                                 0.000000 -0.000000  0.000000 -0.000001 -0.000000 -0.000000  0.000000  0.000000 -0.000000

   2.2   2   -14.4066 -100.6160 -0.000006 -0.000024 -0.000086 -0.000024 -0.000288 -0.000256 -0.000417 -0.000888 -0.003325 -0.008287
                                -0.000219 -0.022623 -0.055110 -0.115855  0.002895 -0.180419 -0.122315  0.158254  0.460800 -0.006170
                                 0.441898 -0.043017  0.137071 -0.014001  0.022749 -0.009158  0.002053 -0.000734  0.000257 -0.000062
                                 0.000039 -0.000020  0.000006 -0.000000 -0.000000 -0.000000  0.000000 -0.000001 -0.000004 -0.000012
                                -0.000034 -0.000077 -0.000169 -0.000242 -0.000388 -0.000220  0.000007 -0.000004 -0.000009  0.000002
                                 0.000006  0.000005  0.000015 -0.000003  0.000001 -0.000000 -0.000020  0.000188 -0.000052 -0.000134
                                 0.000042 -0.000054  0.000009 -0.000027  0.000009  0.000006  0.000005 -0.000003  0.000003  0.000001
                                -0.000025  0.000001  0.000016  0.000001  0.000000  0.000000  0.000005 -0.000000  0.000047 -0.000009
                                 0.000058 -0.000040  0.000007 -0.000047  0.000009 -0.000001  0.000008 -0.000000  0.000000 -0.000001
                                 0.000000 -0.000000  0.000002 -0.000000 -0.000001  0.000000  0.000000 -0.000010 -0.000028  0.000001
                                 0.000000 -0.000001  0.000004  0.000010  0.000000  0.000001 -0.000000 -0.000008  0.000000

   3.2   2    -8.3445  -90.0239 -0.000000 -0.000000 -0.000000 -0.000000 -0.000000 -0.000000 -0.000000 -0.000001 -0.000004 -0.000009
                                -0.000000 -0.000025 -0.000061 -0.000130  0.000004 -0.000205 -0.000131  0.000222  0.000645 -0.000008
                                 0.000493 -0.000230 -0.000014 -0.000041 -0.000007 -0.000008 -0.000055  0.000008 -0.000007 -0.000002
                                 0.000001 -0.000001  0.000000  0.000101  0.000016  0.001146 -0.000757  0.002172  0.006193  0.020227
                                 0.055417  0.131562  0.238086  0.316838  0.292872  0.154271  0.038972  0.004197  0.000337  0.000079
                                 0.000050  0.000004  0.000002  0.000001 -0.000000  0.000000 -0.000526 -0.000001  0.000282  0.000003
                                -0.000216  0.000004  0.000043  0.000002 -0.000006 -0.000000  0.000003  0.000000 -0.000091  0.000025
                                -0.000018 -0.000077  0.000012  0.000031  0.000011 -0.000009 -0.000003  0.000003  0.000033 -0.000001
                                -0.000000 -0.000033  0.000001  0.000001  0.000017  0.000001  0.000000  0.000038 -0.000009  0.000052
                                -0.000015  0.000003 -0.000019 -0.000000  0.000000 -0.000011 -0.000005 -0.000051 -0.000010 -0.000002
                                -0.000000 -0.000001  0.000002  0.000035  0.000000  0.000003  0.000000 -0.000015 -0.000000

   4.2   2    -1.7062  -37.5827  0.000002  0.000009  0.000031  0.000009  0.000103  0.000091  0.000151  0.000316  0.001193  0.002960
                                 0.000096  0.008133  0.019942  0.042188 -0.001029  0.066468  0.042631 -0.079300 -0.215298 -0.028091
                                -0.196191 -0.034909  0.117716  0.450140  0.006306  0.435826  0.166592  0.017721  0.001326  0.000056
                                 0.000024 -0.000017  0.000006  0.000000  0.000000  0.000001  0.000000  0.000003  0.000013  0.000039
                                 0.000114  0.000259  0.000501  0.000601  0.000633 -0.000081 -0.000848 -0.001672 -0.004726 -0.003117
                                -0.000621 -0.000025  0.000163 -0.000032  0.000006 -0.000002  0.000126 -0.001101  0.000810 -0.000215
                                -0.000185 -0.005644  0.000953 -0.004147  0.000267  0.000458  0.000032 -0.000241 -0.000089  0.000055
                                -0.000604  0.000028 -0.000057  0.000189 -0.000115  0.000064  0.000073 -0.000008  0.000141 -0.000028
                                 0.000171  0.000181 -0.000048  0.000310 -0.000116  0.000044 -0.000160 -0.000006  0.000001 -0.000020
                                -0.000002  0.000005  0.000042  0.000030  0.000229  0.000676  0.001186  0.000738 -0.000300  0.000007
                                 0.000005 -0.000067 -0.000395 -0.000192 -0.000007  0.000056 -0.000003  0.000163  0.000007

   5.2   2    -0.3411  -15.2719 -0.000000 -0.000000 -0.000001 -0.000000 -0.000004 -0.000004 -0.000004 -0.000014 -0.000045 -0.000133
                                 0.000017 -0.000331 -0.000769 -0.001722  0.000178 -0.002748 -0.001553  0.002915  0.011086 -0.004896
                                 0.020628 -0.013298  0.004062 -0.038853  0.028407 -0.044103 -0.000464  0.013458  0.045768  0.001148
                                -0.000983  0.000824 -0.000292 -0.000003 -0.000001 -0.000028  0.000017 -0.000053 -0.000157 -0.000509
                                -0.001412 -0.003373 -0.006092 -0.007767 -0.006358  0.002524  0.015721  0.026802  0.024614  0.037034
                                 0.017635  0.020312 -0.013089  0.001103  0.000247 -0.000111  0.000997 -0.000012 -0.000132  0.000025
                                 0.003902 -0.000100  0.014285 -0.000209  0.007364 -0.000110 -0.004907 -0.000003  0.000417 -0.000034
                                -0.001036 -0.000034  0.005182 -0.000017 -0.000308  0.000042 -0.000989  0.000005  0.000076  0.000003
                                -0.000008 -0.000202 -0.000001 -0.000030  0.002274  0.000025  0.000080  0.000011 -0.000004 -0.000112
                                 0.000069 -0.000011  0.000801  0.010755  0.079046  0.274650  0.426014  0.361815  0.097818  0.009547
                                 0.002159 -0.002088 -0.007345 -0.013870 -0.000176  0.002268 -0.000002  0.004506  0.000008

   6.2   +    -0.3811  -26.0641  0.000000  0.000001  0.000002  0.000001  0.000007  0.000007  0.000008  0.000023  0.000079  0.000217
                                -0.000014  0.000564  0.001344  0.002934 -0.000201  0.004660  0.002778 -0.005325 -0.017403  0.003511
                                -0.025483  0.010774  0.001934  0.053884 -0.020778  0.060355 -0.008089 -0.059172 -0.085117 -0.014934
                                 0.004174 -0.001997  0.000629 -0.000026 -0.000004 -0.000294  0.000194 -0.000558 -0.001597 -0.005230
                                -0.014425 -0.034606 -0.062262 -0.079594 -0.063697  0.028198  0.173310  0.283399  0.312531  0.245290
                                 0.133479  0.034598  0.005837 -0.000407 -0.000055  0.000028 -0.002990  0.000215  0.001484 -0.000244
                                -0.013267  0.001024 -0.035200  0.002598 -0.017310  0.000802  0.001575 -0.000038 -0.001535 -0.001437
                                -0.002164 -0.001167 -0.008826 -0.002395 -0.006285 -0.001152  0.000007  0.000084  0.000041  0.000007
                                 0.000001 -0.000079  0.000039  0.000040 -0.000371  0.000202  0.000092  0.000011 -0.000007 -0.000030
                                 0.000002  0.000001 -0.000057 -0.001705 -0.012492 -0.044426 -0.067809 -0.063580 -0.023216 -0.001672
                                -0.000352 -0.000389 -0.002761  0.000175 -0.000040  0.000002 -0.000004  0.000803  0.000012

   7.2   0     0.0014   -3.0076 -0.000000 -0.000000 -0.000001 -0.000000 -0.000003 -0.000005  0.000001 -0.000016 -0.000030 -0.000144
                                 0.000064 -0.000286 -0.000571 -0.001498  0.000458 -0.002464 -0.000955  0.001642  0.014235 -0.017767
                                 0.044686 -0.043185  0.024371 -0.064627  0.073213 -0.071130  0.021939 -0.021225  0.077399  0.051870
                                 0.218580 -0.108813  0.859539 -0.000001  0.000000 -0.000019  0.000016 -0.000033 -0.000076 -0.000270
                                -0.000713 -0.001764 -0.003084 -0.004095 -0.003000  0.001104  0.009657  0.012926  0.019607  0.006150
                                 0.016545 -0.033319  0.029349 -0.110416 -0.020924 -0.355914 -0.000050 -0.000119 -0.000078  0.000121
                                -0.000031 -0.000578 -0.001528 -0.001668 -0.007257 -0.000913  0.008474 -0.000123 -0.000062 -0.000058
                                -0.000125 -0.000062 -0.000443 -0.000001 -0.000706  0.000084  0.004005  0.000023  0.000005  0.000000
                                 0.000003 -0.000027  0.000004 -0.000027 -0.000118  0.000022 -0.000022  0.000001 -0.000000  0.000001
                                 0.000005 -0.000000 -0.000008 -0.000413 -0.003052 -0.010500 -0.016431 -0.014084 -0.017600 -0.000340
                                -0.000081 -0.000079 -0.000542 -0.000151 -0.000007 -0.000036 -0.000001 -0.000010  0.000000

   8.2   0     0.0075   -3.7509 -0.000000 -0.000000 -0.000002 -0.000000 -0.000006 -0.000001 -0.000018 -0.000004 -0.000074 -0.000058
                                -0.000123 -0.000355 -0.001100 -0.001824 -0.000689 -0.002705 -0.002793  0.005717 -0.001482  0.034084
                                -0.056111  0.078666 -0.057725  0.052344 -0.123885  0.055038 -0.061758  0.070916  0.018392  0.323904
                                -0.247913  1.569852 -1.451039 -0.000002 -0.000001 -0.000018  0.000007 -0.000038 -0.000132 -0.000406
                                -0.001158 -0.002711 -0.004990 -0.006180 -0.005268  0.002841  0.012989  0.024856  0.021882  0.027488
                                -0.008447  0.014926 -0.056745 -0.031671 -0.326522  0.179039 -0.000054 -0.000197 -0.000178  0.000200
                                 0.000047 -0.000953 -0.002678 -0.002753 -0.007132 -0.001523  0.016924 -0.000304 -0.000087 -0.000091
                                -0.000257 -0.000098 -0.000569  0.000004 -0.000349  0.000144  0.010598  0.000059  0.000020  0.000000
                                 0.000005 -0.000081  0.000006 -0.000045 -0.000054  0.000036 -0.000035  0.000001 -0.000001 -0.000002
                                 0.000007 -0.000000  0.000002 -0.000655 -0.004859 -0.016582 -0.026065 -0.022031 -0.048963 -0.000515
                                -0.000127 -0.000102 -0.001106  0.000991 -0.000015 -0.000023 -0.000001 -0.000235  0.000001

                                   1 2py     1 2py     1 2py     1 2py     1 2py     1 2py     1 2py     1 2py     1 2py     1 2py  
                                   1 2py     1 2py     1 2py     1 2py     1 2py     1 2py     1 2py     1 2py     1 2py     1 2py  
                                   1 2py     1 2py     1 2py     1 2py     1 2py     1 2py     1 2py     1 2py     1 2py     1 2py  
                                   1 2py     1 2py     1 2py     1 3d1-    1 3d1-    1 3d1-    1 3d1-    1 3d1-    1 3d1-    1 3d1- 
                                   1 3d1-    1 3d1-    1 3d1-    1 3d1-    1 3d1-    1 3d1-    1 3d1-    1 3d1-    1 3d1-    1 3d1- 
                                   1 3d1-    1 3d1-    1 3d1-    1 3d1-    1 3d1-    1 3d1-    1 4f1-    1 4f3-    1 4f1-    1 4f3- 
                                   1 4f1-    1 4f3-    1 4f1-    1 4f3-    1 4f1-    1 4f3-    1 4f1-    1 4f3-    1 5g1-    1 5g3- 
                                   1 5g1-    1 5g3-    1 5g1-    1 5g3-    1 5g1-    1 5g3-    1 5g1-    1 5g3-    1 6h1-    1 6h3- 
                                   1 6h5-    1 6h1-    1 6h3-    1 6h5-    1 6h1-    1 6h3-    1 6h5-    1 7i5-    1 7i3-    1 7i1- 
                                   1 7i5-    1 7i3-    1 7i1-    2 2py     2 2py     2 2py     2 2py     2 2py     2 2py     2 2py  
                                   2 2py     2 3d1-    2 3d1-    2 3d1-    2 3d1-    2 4f1-    2 4f3-    2 4f1-    2 4f3- 

   1.3   2   -89.9353 -301.5827  0.000015  0.000056  0.000199  0.000055  0.000667  0.000582  0.000980  0.002015  0.007616  0.018571
                                 0.000711  0.050137  0.118911  0.237821 -0.002923  0.348771  0.291724  0.103406  0.013278 -0.005896
                                 0.011088 -0.009473  0.004037 -0.002677  0.002565 -0.001070  0.000206 -0.000075  0.000025 -0.000006
                                 0.000004 -0.000002  0.000001 -0.000000 -0.000000 -0.000000 -0.000000 -0.000000 -0.000001 -0.000004
                                -0.000011 -0.000018 -0.000008 -0.000001 -0.000002 -0.000002 -0.000000  0.000001  0.000001  0.000001
                                -0.000001  0.000001  0.000001 -0.000000  0.000000 -0.000000  0.000005  0.000004 -0.000011 -0.000015
                                 0.000001 -0.000000 -0.000002 -0.000002  0.000001  0.000001  0.000000 -0.000000  0.000001  0.000000
                                -0.000000 -0.000000  0.000000  0.000000 -0.000000  0.000000  0.000000  0.000000  0.000000  0.000000
                                 0.000001 -0.000000 -0.000000 -0.000000 -0.000000  0.000000  0.000000 -0.000000  0.000000 -0.000000
                                 0.000000  0.000000 -0.000000 -0.000000 -0.000000  0.000000 -0.000000  0.000001 -0.000002  0.000000
                                 0.000000 -0.000000  0.000000 -0.000001 -0.000000 -0.000000 -0.000000  0.000000  0.000000

   2.3   2   -14.4066 -100.6160 -0.000006 -0.000024 -0.000086 -0.000024 -0.000288 -0.000256 -0.000417 -0.000888 -0.003325 -0.008287
                                -0.000219 -0.022623 -0.055110 -0.115855  0.002895 -0.180419 -0.122315  0.158254  0.460800 -0.006170
                                 0.441898 -0.043017  0.137071 -0.014001  0.022749 -0.009158  0.002053 -0.000734  0.000257 -0.000062
                                 0.000039 -0.000020  0.000006 -0.000000 -0.000000 -0.000000  0.000000 -0.000001 -0.000004 -0.000012
                                -0.000034 -0.000077 -0.000169 -0.000242 -0.000388 -0.000220  0.000007 -0.000004 -0.000009  0.000002
                                 0.000006  0.000005  0.000015 -0.000003  0.000001 -0.000000 -0.000020 -0.000188 -0.000052  0.000134
                                 0.000042  0.000054  0.000009  0.000027  0.000009 -0.000006  0.000005  0.000003  0.000003 -0.000001
                                -0.000025 -0.000001  0.000016 -0.000001  0.000000 -0.000000  0.000005  0.000000  0.000047  0.000009
                                 0.000058 -0.000040 -0.000007 -0.000047  0.000009  0.000001  0.000008 -0.000000 -0.000000 -0.000001
                                 0.000000  0.000000  0.000002 -0.000000 -0.000001  0.000000  0.000000 -0.000010 -0.000028  0.000001
                                 0.000000 -0.000001  0.000004  0.000010  0.000000  0.000001  0.000000 -0.000008 -0.000000

   3.3   2    -8.3445  -90.0239 -0.000000 -0.000000 -0.000000 -0.000000 -0.000000 -0.000000 -0.000000 -0.000001 -0.000004 -0.000009
                                -0.000000 -0.000025 -0.000061 -0.000130  0.000004 -0.000205 -0.000131  0.000222  0.000645 -0.000008
                                 0.000493 -0.000230 -0.000014 -0.000041 -0.000007 -0.000008 -0.000055  0.000008 -0.000007 -0.000002
                                 0.000001 -0.000001  0.000000  0.000101  0.000016  0.001146 -0.000757  0.002172  0.006193  0.020227
                                 0.055417  0.131562  0.238086  0.316838  0.292872  0.154271  0.038972  0.004197  0.000337  0.000079
                                 0.000050  0.000004  0.000002  0.000001 -0.000000  0.000000 -0.000526  0.000001  0.000282 -0.000003
                                -0.000216 -0.000004  0.000043 -0.000002 -0.000006  0.000000  0.000003 -0.000000 -0.000091 -0.000025
                                -0.000018  0.000077  0.000012 -0.000031  0.000011  0.000009 -0.000003 -0.000003  0.000033  0.000001
                                -0.000000 -0.000033 -0.000001  0.000001  0.000017 -0.000001  0.000000  0.000038  0.000009  0.000052
                                -0.000015 -0.000003 -0.000019 -0.000000  0.000000 -0.000011 -0.000005 -0.000051 -0.000010 -0.000002
                                -0.000000 -0.000001  0.000002  0.000035  0.000000  0.000003 -0.000000 -0.000015  0.000000

   4.3   2    -1.7062  -37.5827  0.000002  0.000009  0.000031  0.000009  0.000103  0.000091  0.000151  0.000316  0.001193  0.002960
                                 0.000096  0.008133  0.019942  0.042188 -0.001029  0.066468  0.042631 -0.079300 -0.215298 -0.028091
                                -0.196191 -0.034909  0.117716  0.450140  0.006306  0.435826  0.166592  0.017721  0.001326  0.000056
                                 0.000024 -0.000017  0.000006  0.000000  0.000000  0.000001  0.000000  0.000003  0.000013  0.000039
                                 0.000114  0.000259  0.000501  0.000601  0.000633 -0.000081 -0.000848 -0.001672 -0.004726 -0.003117
                                -0.000621 -0.000025  0.000163 -0.000032  0.000006 -0.000002  0.000126  0.001101  0.000810  0.000215
                                -0.000185  0.005644  0.000953  0.004147  0.000267 -0.000458  0.000032  0.000241 -0.000089 -0.000055
                                -0.000604 -0.000028 -0.000057 -0.000189 -0.000115 -0.000064  0.000073  0.000008  0.000141  0.000028
                                 0.000171  0.000181  0.000048  0.000310 -0.000116 -0.000044 -0.000160 -0.000006 -0.000001 -0.000020
                                -0.000002 -0.000005  0.000042  0.000030  0.000229  0.000676  0.001186  0.000738 -0.000300  0.000007
                                 0.000005 -0.000067 -0.000395 -0.000192 -0.000007  0.000056  0.000003  0.000163 -0.000007

   5.3   2    -0.3411  -15.2719 -0.000000 -0.000000 -0.000001 -0.000000 -0.000004 -0.000004 -0.000004 -0.000014 -0.000045 -0.000133
                                 0.000017 -0.000331 -0.000769 -0.001722  0.000178 -0.002748 -0.001553  0.002915  0.011086 -0.004896
                                 0.020628 -0.013298  0.004062 -0.038853  0.028407 -0.044103 -0.000464  0.013458  0.045768  0.001148
                                -0.000983  0.000824 -0.000292 -0.000003 -0.000001 -0.000028  0.000017 -0.000053 -0.000157 -0.000509
                                -0.001412 -0.003373 -0.006092 -0.007767 -0.006358  0.002524  0.015721  0.026802  0.024614  0.037034
                                 0.017635  0.020312 -0.013089  0.001103  0.000247 -0.000111  0.000997  0.000012 -0.000132 -0.000025
                                 0.003902  0.000100  0.014285  0.000209  0.007364  0.000110 -0.004907  0.000003  0.000417  0.000034
                                -0.001036  0.000034  0.005182  0.000017 -0.000308 -0.000042 -0.000989 -0.000005  0.000076 -0.000003
                                -0.000008 -0.000202  0.000001 -0.000030  0.002274 -0.000025  0.000080  0.000011  0.000004 -0.000112
                                 0.000069  0.000011  0.000801  0.010755  0.079046  0.274650  0.426014  0.361815  0.097818  0.009547
                                 0.002159 -0.002088 -0.007345 -0.013870 -0.000176  0.002268  0.000002  0.004506 -0.000008

   6.3   +    -0.3811  -26.0641  0.000000  0.000001  0.000002  0.000001  0.000007  0.000007  0.000008  0.000023  0.000079  0.000217
                                -0.000014  0.000564  0.001344  0.002934 -0.000201  0.004660  0.002778 -0.005325 -0.017403  0.003511
                                -0.025483  0.010774  0.001934  0.053884 -0.020778  0.060355 -0.008089 -0.059172 -0.085117 -0.014934
                                 0.004174 -0.001997  0.000629 -0.000026 -0.000004 -0.000294  0.000194 -0.000558 -0.001597 -0.005230
                                -0.014425 -0.034606 -0.062262 -0.079594 -0.063697  0.028198  0.173310  0.283399  0.312531  0.245290
                                 0.133479  0.034598  0.005837 -0.000407 -0.000055  0.000028 -0.002990 -0.000215  0.001484  0.000244
                                -0.013267 -0.001024 -0.035200 -0.002598 -0.017310 -0.000802  0.001575  0.000038 -0.001535  0.001437
                                -0.002164  0.001167 -0.008826  0.002395 -0.006285  0.001152  0.000007 -0.000084  0.000041 -0.000007
                                 0.000001 -0.000079 -0.000039  0.000040 -0.000371 -0.000202  0.000092  0.000011  0.000007 -0.000030
                                 0.000002 -0.000001 -0.000057 -0.001705 -0.012492 -0.044426 -0.067809 -0.063580 -0.023216 -0.001672
                                -0.000352 -0.000389 -0.002761  0.000175 -0.000040  0.000002  0.000004  0.000803 -0.000012

   7.3   0     0.0014   -3.0076 -0.000000 -0.000000 -0.000001 -0.000000 -0.000003 -0.000005  0.000001 -0.000016 -0.000030 -0.000144
                                 0.000064 -0.000286 -0.000571 -0.001498  0.000458 -0.002464 -0.000955  0.001642  0.014235 -0.017767
                                 0.044686 -0.043185  0.024371 -0.064627  0.073213 -0.071130  0.021939 -0.021225  0.077399  0.051870
                                 0.218580 -0.108813  0.859539 -0.000001  0.000000 -0.000019  0.000016 -0.000033 -0.000076 -0.000270
                                -0.000713 -0.001764 -0.003084 -0.004095 -0.003000  0.001104  0.009657  0.012926  0.019607  0.006150
                                 0.016545 -0.033319  0.029349 -0.110416 -0.020924 -0.355914 -0.000050  0.000119 -0.000078 -0.000121
                                -0.000031  0.000578 -0.001528  0.001668 -0.007257  0.000913  0.008474  0.000123 -0.000062  0.000058
                                -0.000125  0.000062 -0.000443  0.000001 -0.000706 -0.000084  0.004005 -0.000023  0.000005 -0.000000
                                 0.000003 -0.000027 -0.000004 -0.000027 -0.000118 -0.000022 -0.000022  0.000001  0.000000  0.000001
                                 0.000005  0.000000 -0.000008 -0.000413 -0.003052 -0.010500 -0.016431 -0.014084 -0.017600 -0.000340
                                -0.000081 -0.000079 -0.000542 -0.000151 -0.000007 -0.000036  0.000001 -0.000010 -0.000000

   8.3   0     0.0075   -3.7509 -0.000000 -0.000000 -0.000002 -0.000000 -0.000006 -0.000001 -0.000018 -0.000004 -0.000074 -0.000058
                                -0.000123 -0.000355 -0.001100 -0.001824 -0.000689 -0.002705 -0.002793  0.005717 -0.001482  0.034084
                                -0.056111  0.078666 -0.057725  0.052344 -0.123885  0.055038 -0.061758  0.070916  0.018392  0.323904
                                -0.247913  1.569852 -1.451039 -0.000002 -0.000001 -0.000018  0.000007 -0.000038 -0.000132 -0.000406
                                -0.001158 -0.002711 -0.004990 -0.006180 -0.005268  0.002841  0.012989  0.024856  0.021882  0.027488
                                -0.008447  0.014926 -0.056745 -0.031671 -0.326522  0.179039 -0.000054  0.000197 -0.000178 -0.000200
                                 0.000047  0.000953 -0.002678  0.002753 -0.007132  0.001523  0.016924  0.000304 -0.000087  0.000091
                                -0.000257  0.000098 -0.000569 -0.000004 -0.000349 -0.000144  0.010598 -0.000059  0.000020 -0.000000
                                 0.000005 -0.000081 -0.000006 -0.000045 -0.000054 -0.000036 -0.000035  0.000001  0.000001 -0.000002
                                 0.000007  0.000000  0.000002 -0.000655 -0.004859 -0.016582 -0.026065 -0.022031 -0.048963 -0.000515
                                -0.000127 -0.000102 -0.001106  0.000991 -0.000015 -0.000023  0.000001 -0.000235 -0.000001

                                   1 3d2-    1 3d2-    1 3d2-    1 3d2-    1 3d2-    1 3d2-    1 3d2-    1 3d2-    1 3d2-    1 3d2- 
                                   1 3d2-    1 3d2-    1 3d2-    1 3d2-    1 3d2-    1 3d2-    1 3d2-    1 3d2-    1 3d2-    1 3d2- 
                                   1 3d2-    1 3d2-    1 3d2-    1 4f2-    1 4f2-    1 4f2-    1 4f2-    1 4f2-    1 4f2-    1 5g2- 
                                   1 5g4-    1 5g2-    1 5g4-    1 5g2-    1 5g4-    1 5g2-    1 5g4-    1 5g2-    1 5g4-    1 6h4- 
                                   1 6h2-    1 6h4-    1 6h2-    1 6h4-    1 6h2-    1 7i2-    1 7i6-    1 7i4-    1 7i2-    1 7i6- 
                                   1 7i4-    2 3d2-    2 3d2-    2 3d2-    2 3d2-    2 4f2-    2 4f2- 

   1.4   2    -8.3432  -90.0115  0.000101  0.000016  0.001146 -0.000757  0.002172  0.006193  0.020227  0.055416  0.131564  0.238078
                                 0.316844  0.292790  0.154208  0.039189  0.004283  0.000346  0.000068  0.000015  0.000010 -0.000002
                                 0.000001 -0.000000  0.000000 -0.000567  0.000346 -0.000158  0.000026 -0.000017  0.000007 -0.000088
                                 0.000000  0.000073 -0.000000 -0.000037  0.000000  0.000010 -0.000000 -0.000003  0.000000  0.000000
                                 0.000023 -0.000000 -0.000023  0.000000  0.000003  0.000030  0.000066 -0.000000 -0.000013 -0.000025
                                 0.000000 -0.000000 -0.000000 -0.000004 -0.000000 -0.000001  0.000003

   2.4   +    -0.4115  -26.3363  0.000026  0.000004  0.000295 -0.000193  0.000562  0.001615  0.005283  0.014584  0.034966  0.062945
                                 0.080418  0.064525 -0.028444 -0.173990 -0.286143 -0.317743 -0.253033 -0.132383 -0.035039 -0.002718
                                 0.000035 -0.000012  0.000004  0.001850 -0.001203  0.008117  0.025703  0.010919 -0.001026 -0.000813
                                -0.000000 -0.000002  0.000000  0.003061  0.000000  0.002412  0.000000 -0.000298 -0.000000 -0.000000
                                -0.000023  0.000000  0.000170 -0.000000  0.000615  0.000023 -0.000022  0.000000  0.000121 -0.000047
                                 0.000000 -0.000183 -0.000921 -0.000567 -0.000016  0.000122  0.000351

   3.4   0     0.0086   -1.9700  0.000000 -0.000002  0.000022 -0.000034  0.000025 -0.000015  0.000058  0.000005  0.000279  0.000051
                                 0.000843 -0.000668  0.001801 -0.004736  0.006549 -0.017360  0.030365 -0.062018  0.115939 -0.194666
                                 0.262005 -0.487975  1.278213  0.000051 -0.000132  0.000173 -0.000804  0.003562 -0.014930 -0.000013
                                -0.000000  0.000049  0.000000 -0.000050 -0.000000  0.000209  0.000000 -0.001111 -0.000000 -0.000000
                                 0.000001  0.000000 -0.000004  0.000000  0.000022 -0.000000 -0.000000 -0.000000  0.000002 -0.000000
                                 0.000000 -0.000001  0.000066 -0.000188  0.000001 -0.000005  0.000006

   4.4   0     0.0262   -3.1114 -0.000000  0.000005 -0.000047  0.000079 -0.000044  0.000099  0.000048  0.000534  0.000593  0.002228
                                 0.000841  0.004123 -0.005794  0.005488 -0.027938  0.032466 -0.088800  0.160196 -0.306798  0.550746
                                -0.690765  1.841465 -0.990619  0.000207 -0.000567  0.000688 -0.003619  0.014930 -0.077170 -0.000031
                                 0.000000  0.000106 -0.000000 -0.000002  0.000000  0.000427 -0.000000 -0.004882  0.000000  0.000000
                                 0.000008 -0.000000 -0.000022  0.000000  0.000119 -0.000002 -0.000002 -0.000000  0.000011 -0.000002
                                 0.000000  0.000038  0.000070 -0.000054  0.000001 -0.000073  0.000318

 HOMO     12.1    -0.266432 =      -7.2500eV
 LUMO     13.1    -0.054126 =      -1.4728eV
 LUMO-HOMO         0.212306 =       5.7771eV


 **********************************************************************************************************************************
 DATASETS  * FILE   NREC   LENGTH (MB)   RECORD NAMES
              1      22       24.16       500      610      700      900      950      970     1000      129      960     1700   
                                          VAR    BASINP    GEOM    SYMINP    ZMAT    AOBASIS   BASIS     P2S    ABASIS    OPER   
                                         1101     1401     1411     1412     1650     1100     1400     1410     1200     1210   
                                          SR      EKINR    POTR     PVPR    MOLCAS      S      EKIN      POT      H0       H01  
                                         1080     1600   
                                         AOSYM     SMH  

              2       4        4.60       700     1000      520     2100   
                                         GEOM     BASIS   MCVARS     RHF  

 PROGRAMS   *        TOTAL       RHF       INT
 CPU TIMES  *       275.11     15.59    259.22
 REAL TIME  *       290.38 SEC
 DISK USED  *        10.29 GB      
 SF USED    *         0.25 MB      
 GA USED    *         0.00 MB       (max)       0.00 MB       (current)
 **********************************************************************************************************************************
 SETTING SCF            =     -3892.05686190  AU                              
 SETTING _CC_NORM_MAX   =         2.00000000                                  


 PROGRAM * CCSD (Restricted open-shell coupled cluster)     Authors: C. Hampel, H.-J. Werner, 1991, M. Deegan, P.J. Knowles, 1992


 Convergence thresholds:  THRVAR = 1.00D-08  THRDEN = 1.00D-06

 CCSD(T)     terms to be evaluated (factor= 1.000)


 Number of closed-shell orbitals:  23 (  12   5   5   1 )
 Number of active  orbitals:        3 (   0   1   1   1 )
 Number of external orbitals:     437 ( 176 103 103  55 )

 Memory could be reduced to 857.21 Mwords without degradation in triples

 Number of N-1 electron functions:              49
 Number of N-2 electron functions:            1176
 Number of singly external CSFs:              6680
 Number of doubly external CSFs:          43991708
 Total number of CSFs:                    43998388

 Molecular orbitals read from record     2100.2  Type=RHF/CANONICAL (state 1.1)

 Integral transformation finished. Total CPU:  34.45 sec, npass=  1  Memory used:  90.08 MW

 Starting RMP2 calculation

 Wavefunction is spin-projected

 ITER.      SQ.NORM     CORR.ENERGY   TOTAL ENERGY   ENERGY CHANGE        DEN1      VAR(S)    VAR(P)  DIIS     TIME
   1      1.23489098    -1.66091376 -3893.71777566    -1.66091376    -0.01437257  0.12D-03  0.80D-02  1  1    40.79
   2      1.26238842    -1.67800841 -3893.73487031    -0.01709464    -0.00070269  0.13D-04  0.59D-03  2  2    52.07
   3      1.27206248    -1.68137519 -3893.73823710    -0.00336679    -0.00003239  0.82D-06  0.29D-04  3  3    69.61
   4      1.27379609    -1.68170752 -3893.73856943    -0.00033233    -0.00000150  0.43D-07  0.13D-05  4  4    77.75
   5      1.27401228    -1.68174148 -3893.73860338    -0.00003395    -0.00000005  0.26D-08  0.43D-07  5  5    90.92
   6      1.27403077    -1.68174376 -3893.73860566    -0.00000228    -0.00000000  0.41D-09  0.13D-08  6  6   103.06
   7      1.27403210    -1.68174399 -3893.73860589    -0.00000023    -0.00000000  0.10D-09  0.41D-10  6  1   112.80

 Norm of t1 vector:      0.05101632      S-energy:    -0.00549534      T1 diagnostic:  0.00027552
 Norm of t2 vector:      0.52098890      P-energy:    -1.67624864
                                         Alpha-Beta:  -1.16596584
                                         Alpha-Alpha: -0.27714313
                                         Beta-Beta:   -0.23313967

 Spin contamination <S**2-Sz**2-Sz>     0.00000000
  Reference energy                  -3892.056861901863
  RHF-RMP2 correlation energy          -1.681743987501
 !RHF-RMP2 energy                   -3893.738605889364
 (NB above energy spin projected)

 Starting RCCSD calculation

 ITER.      SQ.NORM     CORR.ENERGY   TOTAL ENERGY   ENERGY CHANGE        DEN1      VAR(S)    VAR(P)  DIIS     TIME
   1      1.19619728    -1.57957599 -3893.63643789    -1.57957599    -0.02785289  0.56D-02  0.38D-02  0  0   191.00
   2      1.22373685    -1.60335619 -3893.66021809    -0.02378020    -0.00424588  0.15D-02  0.14D-02  1  1   271.11
   3      1.24401582    -1.60752994 -3893.66439184    -0.00417374    -0.00193447  0.12D-02  0.45D-03  2  2   355.82
   4      1.28130738    -1.61428772 -3893.67114963    -0.00675779    -0.00062726  0.39D-03  0.13D-03  3  3   441.69
   5      1.31495202    -1.61674446 -3893.67360637    -0.00245674    -0.00018552  0.15D-03  0.24D-04  4  4   522.78
   6      1.33325365    -1.61790953 -3893.67477143    -0.00116507    -0.00007012  0.44D-04  0.16D-04  5  5   604.22
   7      1.34408519    -1.61842072 -3893.67528262    -0.00051119    -0.00002548  0.18D-04  0.56D-05  6  6   683.84
   8      1.35119526    -1.61869479 -3893.67555669    -0.00027407    -0.00001082  0.79D-05  0.26D-05  7  7   768.30
   9      1.35457729    -1.61882157 -3893.67568347    -0.00012678    -0.00000570  0.47D-05  0.11D-05  8  8   845.56
  10      1.35665256    -1.61889346 -3893.67575537    -0.00007189    -0.00000266  0.23D-05  0.50D-06  9  9   941.10
  11      1.35820568    -1.61897158 -3893.67583348    -0.00007811    -0.00000135  0.12D-05  0.24D-06 10 10  1021.74
  12      1.35875121    -1.61899090 -3893.67585280    -0.00001932    -0.00000081  0.71D-06  0.15D-06 11 11  1113.36
  13      1.35927380    -1.61901745 -3893.67587935    -0.00002655    -0.00000053  0.47D-06  0.10D-06 12 12  1196.96
  14      1.35979442    -1.61903618 -3893.67589808    -0.00001873    -0.00000035  0.29D-06  0.72D-07 13 13  1302.38
  15      1.36057614    -1.61905447 -3893.67591637    -0.00001829    -0.00000019  0.15D-06  0.39D-07 14 14  1386.25
  16      1.36109043    -1.61907193 -3893.67593383    -0.00001745    -0.00000009  0.68D-07  0.19D-07 15 15  1492.21
  17      1.36150562    -1.61908251 -3893.67594441    -0.00001058    -0.00000004  0.28D-07  0.81D-08 15  1  1570.38
  18      1.36163719    -1.61908778 -3893.67594968    -0.00000527    -0.00000002  0.12D-07  0.31D-08 15  2  1653.19
  19      1.36177373    -1.61909234 -3893.67595424    -0.00000456    -0.00000001  0.42D-08  0.11D-08 15  4  1763.02
  20      1.36179299    -1.61909286 -3893.67595476    -0.00000052    -0.00000000  0.14D-08  0.36D-09 15  3  1854.57

 Norm of t1 vector:      0.32512076      S-energy:    -0.00615227      T1 diagnostic:  0.03154195
                                                                       D1 diagnostic:  0.09978884
 Norm of t2 vector:      0.50605285      P-energy:    -1.61294059
                                         Alpha-Beta:  -1.15313836
                                         Alpha-Alpha: -0.25007174
                                         Beta-Beta:   -0.20973049

 Singles amplitudes (print threshold =  0.500E-01):

         I         SYM. A    A   T(IA) [Beta-Beta]

        17         2         1      0.14100200
        23         3         1      0.14100200

 Doubles amplitudes (print threshold =  0.500E-01):

         I         J         SYM. A    SYM. B    A         B      T(IJ, AB) [Alpha-Beta]

        12        12         1         1         1         1     -0.11575426
        12        12         1         1         1        25     -0.05252365
        12        12         1         1        25         1     -0.05252365

 Spin contamination <S**2-Sz**2-Sz>     0.00000000
 

  Correlated core orbitals:             1.1       2.1       3.1       4.1       5.1       6.1       7.1       8.1       9.1      10.1
                                        1.2       2.2       3.2       4.2       1.3       2.3       3.3       4.3       1.4
  Orbital energies:                  -701.5544 -100.9505  -89.9452  -20.4660  -18.1183  -14.4146   -8.3402   -8.3364   -2.8465   -1.7778
                                      -89.9441  -14.4135   -8.3647   -1.7939  -89.9441  -14.4135   -8.3647   -1.7939   -8.3638
 
  RCCSD core-core energy               -1.061704472459
  RCCSD core-valence energy            -0.195575204096
  RCCSD valence correlation energy     -0.361813184526
 

 RESULTS
 =======

  Reference energy                  -3892.056861901863
  RCCSD singles energy                 -0.006152272804
  RCCSD pair energy                    -1.612940588277
  RCCSD correlation energy             -1.619092861081
  Triples (T) contribution             -0.051386676473
  Total correlation energy             -1.670479537553
 
  RHF-RCCSD energy                  -3893.675954762944
  RHF-RCCSD[T] energy               -3893.738504891192
  RHF-RCCSD-T energy                -3893.724158865783
 !RHF-RCCSD(T) energy               -3893.727341439416

 Program statistics:

 Available memory in ccsd:               999994232
 Min. memory needed in ccsd:             120731663
 Max. memory used in ccsd:               177583233
 Max. memory used in cckext:             136311229 (20 integral passes)
 Max. memory used in cckint:              90084982 ( 1 integral passes)



 **********************************************************************************************************************************
 DATASETS  * FILE   NREC   LENGTH (MB)   RECORD NAMES
              1      22       24.16       500      610      700      900      950      970     1000      129      960     1700   
                                          VAR    BASINP    GEOM    SYMINP    ZMAT    AOBASIS   BASIS     P2S    ABASIS    OPER   
                                         1101     1401     1411     1412     1650     1100     1400     1410     1200     1210   
                                          SR      EKINR    POTR     PVPR    MOLCAS      S      EKIN      POT      H0       H01  
                                         1080     1600   
                                         AOSYM     SMH  

              2       4        4.60       700     1000      520     2100   
                                         GEOM     BASIS   MCVARS     RHF  

 PROGRAMS   *        TOTAL  RCCSD(T)       RHF       INT
 CPU TIMES  *      4438.61   4163.48     15.59    259.22
 REAL TIME  *      6791.94 SEC
 DISK USED  *       164.20 GB      
 SF USED    *        18.16 GB      
 GA USED    *         0.00 MB       (max)       0.00 MB       (current)
 **********************************************************************************************************************************
 SETTING CCSD           =     -3893.72734144  AU                              
 SETTING BIND           =        -0.06530105  AU                              
 Output type csv         
                                                                                                                                                                                                                                                                

  2.40,SCF,CCSD,BIND
   2.4,   -3892.056862,   -3893.727341,   -0.06530105
                                                  

 RCCSD(T)/USERDEF energy=  -3893.727341439416

        RCCSD(T)        RHF-SCF 
  -3893.72734144  -3892.05686190
 **********************************************************************************************************************************
 Molpro calculation terminated
 Variable memory released
