<?xml version="1.0"?>
<molpro xmlns="http://www.molpro.net/schema/molpro-output"
  xmlns:xsd="http://www.w3.org/1999/XMLSchema"
  xmlns:cml="http://www.xml-cml.org/schema"
  xmlns:stm="http://www.xml-cml.org/schema"
  xmlns:xhtml="http://www.w3.org/1999/xhtml">
 <!--

 Nodes     nprocs
 nid00747    11
 Number of processes for MPI-2 version of Molpro:   nprocs(total)=   12   nprocs(compute)=   11   nprocs(helper)=    1

 Using customized tuning parameters: mindgm=7; mindgv=16; mindgc=1; mindgr=1; noblas=0; minvec=7
 default implementation of scratch files=sf

 --><job>
  <!--

 Variables initialized (889), CPU time= 0.04 sec
 Commands  initialized (702), CPU time= 0.01 sec, 572 directives.
 Default parameters read. Elapsed time= 0.19 sec

 Checking input...
 Passed
1


                                         ***  PROGRAM SYSTEM MOLPRO  ***
                                       Copyright, TTI GmbH Stuttgart, 2015
                                    Version 2015.1 linked Dec 29 2018 15:55:43


 **********************************************************************************************************************************
 LABEL *   Calculation for GdO, singlet and triplet
  64 bit mpp version                                                                     DATE: 29-Nov-22          TIME: 18:43:32
 **********************************************************************************************************************************

 SHA1:             19cd028119e0e09f93f0674bd8af7968d9b3eff6
 **********************************************************************************************************************************
  -->
  <!--

 THRESHOLDS:

 ZERO    =  1.00D-12  ONEINT  =  1.00D-12  TWOINT  =  1.00D-15  PREFAC  =  1.00D-14  LOCALI  =  1.00D-09  EORDER  =  1.00D-04
 ENERGY  =  0.00D+00  ETEST   =  0.00D+00  EDENS   =  0.00D+00  THRDEDEF=  1.00D-06  GRADIENT=  1.00D-02  STEP    =  1.00D-03
 ORBITAL =  1.00D-05  CIVEC   =  1.00D-05  COEFF   =  1.00D-04  PRINTCI =  5.00D-02  PUNCHCI =  9.90D+01  OPTGRAD =  3.00D-04
 OPTENERG=  1.00D-06  OPTSTEP =  3.00D-04  THRGRAD =  1.00D-10  COMPRESS=  1.00D-11  VARMIN  =  1.00D-07  VARMAX  =  1.00D-03
 THRDOUB =  0.00D+00  THRDIV  =  1.00D-05  THRRED  =  1.00D-07  THRPSP  =  1.00D+00  THRDC   =  1.00D-10  THRCS   =  1.00D-10
 THRNRM  =  1.00D-08  THREQ   =  0.00D+00  THRDE   =  1.00D+00  THRREF  =  1.00D-05  SPARFAC =  1.00D+00  THRDLP  =  1.00D-07
 THRDIA  =  1.00D-10  THRDLS  =  1.00D-07  THRGPS  =  0.00D+00  THRKEX  =  0.00D+00  THRDIS  =  2.00D-01  THRVAR  =  1.00D-10
 THRLOC  =  1.00D-06  THRGAP  =  1.00D-06  THRLOCT = -1.00D+00  THRGAPT = -1.00D+00  THRORB  =  1.00D-06  THRMLTP =  0.00D+00
 THRCPQCI=  1.00D-10  KEXTA   =  0.00D+00  THRCOARS=  0.00D+00  SYMTOL  =  1.00D-06  GRADTOL =  1.00D-06  THROVL  =  1.00D-08
 THRORTH =  1.00D-08  GRID    =  1.00D-06  GRIDMAX =  1.00D-03  DTMAX   =  0.00D+00  THROCCDE=  1.00D-01  THROCCDE=  1.00D-01



 THRESHOLDS:

 ZERO    =  1.00D-12  ONEINT  =  1.00D-12  TWOINT  =  1.00D-15  PREFAC  =  1.00D-14  LOCALI  =  1.00D-09  EORDER  =  1.00D-04
 ENERGY  =  0.00D+00  ETEST   =  0.00D+00  EDENS   =  0.00D+00  THRDEDEF=  1.00D-06  GRADIENT=  1.00D-02  STEP    =  1.00D-03
 ORBITAL =  1.00D-05  CIVEC   =  1.00D-05  COEFF   =  1.00D-04  PRINTCI =  5.00D-02  PUNCHCI =  9.90D+01  OPTGRAD =  3.00D-04
 OPTENERG=  1.00D-06  OPTSTEP =  3.00D-04  THRGRAD =  1.00D-10  COMPRESS=  1.00D-11  VARMIN  =  1.00D-07  VARMAX  =  1.00D-03
 THRDOUB =  0.00D+00  THRDIV  =  1.00D-05  THRRED  =  1.00D-07  THRPSP  =  1.00D+00  THRDC   =  1.00D-10  THRCS   =  1.00D-10
 THRNRM  =  1.00D-08  THREQ   =  0.00D+00  THRDE   =  1.00D+00  THRREF  =  1.00D-05  SPARFAC =  1.00D+00  THRDLP  =  1.00D-07
 THRDIA  =  1.00D-10  THRDLS  =  1.00D-07  THRGPS  =  0.00D+00  THRKEX  =  0.00D+00  THRDIS  =  2.00D-01  THRVAR  =  1.00D-10
 THRLOC  =  1.00D-06  THRGAP  =  1.00D-06  THRLOCT = -1.00D+00  THRGAPT = -1.00D+00  THRORB  =  1.00D-06  THRMLTP =  0.00D+00
 THRCPQCI=  1.00D-10  KEXTA   =  0.00D+00  THRCOARS=  0.00D+00  SYMTOL  =  1.00D-06  GRADTOL =  1.00D-06  THROVL  =  1.00D-15
 THRORTH =  1.00D-08  GRID    =  1.00D-06  GRIDMAX =  1.00D-03  DTMAX   =  0.00D+00  THROCCDE=  1.00D-01  THROCCDE=  1.00D-01



 Variable memory set to 1000000000 words,  buffer space   230000 words

 SETTING BASIS          =    USERDEF
 SETTING GD_CCSD        =      -109.29937150
 SETTING O_CCSD         =       -15.86622096
 SETTING NE             =        24.00000000
 SETTING SYMM           =         4.00000000
 SETTING SS             =         8.00000000
 SETTING A1             =         7.00000000
 SETTING B1             =         4.00000000
 SETTING B2             =         4.00000000
 SETTING A2             =         1.00000000

Geometry recognized as XYZ

  --><jobstep command="RKS-SCF" commandset="SCFPRO">
   <!--


 Recomputing integrals since basis changed


 Using spherical harmonics



 PROGRAM * SEWARD (Integral evaluation for generally contracted gaussian basis sets)     Author: Roland Lindh, 1990

 Geometry written to block  1 of record 700


 Point group  C2v


   --><cml:molecule>
    <cml:symmetry pointGroup="C2v"/>
    <cml:atomArray>
     <cml:atom id="a1" elementType="Gd" x3="0.0" y3="0.0" z3="0.0"/>
     <cml:atom id="a2" elementType="O" x3="0.0" y3="0.0" z3="1.4"/>
    </cml:atomArray>
    <cml:bondArray>
     <cml:bond atomRefs2="a1 a2"/>
    </cml:bondArray>
   </cml:molecule><!--

 ATOMIC COORDINATES

 NR  ATOM    CHARGE       X              Y              Z

   1  GD     18.00    0.000000000    0.000000000    0.000000000
   2  O       6.00    0.000000000    0.000000000    2.645616574

 Bond lengths in Bohr (Angstrom)

 1-2  2.645616574
     ( 1.400000000)

 NUCLEAR CHARGE:                   24
 NUMBER OF PRIMITIVE AOS:         673
 NUMBER OF SYMMETRY AOS:          515
 NUMBER OF CONTRACTIONS:          515   ( 203A1  + 123B1  + 123B2  +  66A2  )
 NUMBER OF CORE ORBITALS:           0   (   0A1  +   0B1  +   0B2  +   0A2  )
 NUMBER OF VALENCE ORBITALS:       21   (   9A1  +   5B1  +   5B2  +   2A2  )


 NUCLEAR REPULSION ENERGY   40.82224199

 EXTRA SYMMETRY OF AOS IN SYMMETRY 1:   1 1 1 1 1 1 1 1 1 1   1 1 1 1 1 1 1 1 1 1   1 1 1 1 1 1 1 1 1 1   1 1 1 1 1 1 1 1 1 1
                                        1 1 1 1 1 1 1 1 1 1   1 1 1 1 1 1 1 1 1 1   1 1 1 2 1 2 1 2 1 2   1 2 1 2 1 2 1 2 1 2
                                        1 2 1 2 1 2 1 2 1 2   1 2 1 2 1 2 1 2 1 2   1 2 1 2 1 2 1 2 1 2   1 2 1 2 1 2 1 2 1 2
                                        1 2 1 2 1 2 1 2 1 2   1 2 1 2 1 3 2 1 3 2   1 3 2 1 3 2 1 3 2 1   3 2 1 3 2 1 3 2 1 3
                                        2 2 3 1 2 3 1 2 3 1   1 1 1 1 1 1 1 1 1 1   1 1 1 1 1 1 1 1 1 1   1 1 2 1 2 1 2 1 2 1
                                        2 1 2
 EXTRA SYMMETRY OF AOS IN SYMMETRY 2:   1 1 1 1 1 1 1 1 1 1   1 1 1 1 1 1 1 1 1 1   1 1 1 1 1 1 1 1 1 1   1 1 1 1 1 1 1 1 1 1
                                        1 1 1 1 1 1 1 1 1 1   1 1 1 2 1 2 1 2 1 2   1 2 1 2 1 2 1 2 1 2   1 2 1 2 1 2 1 2 1 2
                                        1 2 1 2 1 2 1 2 1 2   1 2 1 2 1 2 1 2 1 2   3 1 2 3 1 2 3 1 1 1   1 1 1 1 1 1 1 1 1 1
                                        2 1 2
 EXTRA SYMMETRY OF AOS IN SYMMETRY 3:   1 1 1 1 1 1 1 1 1 1   1 1 1 1 1 1 1 1 1 1   1 1 1 1 1 1 1 1 1 1   1 1 1 1 1 1 1 1 1 1
                                        1 1 1 1 1 1 1 1 1 1   1 1 1 2 1 2 1 2 1 2   1 2 1 2 1 2 1 2 1 2   1 2 1 2 1 2 1 2 1 2
                                        1 2 1 2 1 2 1 2 1 2   1 2 1 2 1 2 1 2 1 2   3 1 2 3 1 2 3 1 1 1   1 1 1 1 1 1 1 1 1 1
                                        2 1 2
 EXTRA SYMMETRY OF AOS IN SYMMETRY 4:   1 1 1 1 1 1 1 1 1 1   1 1 1 1 1 1 1 1 1 1   1 1 1 1 1 1 1 1 1 1   1 1 1 1 1 1 1 2 1 2
                                        1 2 1 2 1 2 1 2 1 2   1 2 1 2 2 1 2 1 2 1   1 1 1 1 1 1

 Eigenvalues of metric

         1 0.109E-06 0.267E-06 0.581E-06 0.681E-06 0.727E-06 0.733E-06 0.118E-05 0.251E-05
         2 0.615E-06 0.724E-06 0.438E-05 0.138E-04 0.237E-04 0.413E-04 0.841E-04 0.142E-03
         3 0.615E-06 0.724E-06 0.438E-05 0.138E-04 0.237E-04 0.413E-04 0.841E-04 0.142E-03
         4 0.727E-06 0.238E-04 0.148E-03 0.539E-03 0.824E-03 0.926E-03 0.418E-02 0.880E-02


 Contracted 2-electron integrals neglected if value below      1.0D-15
 AO integral compression algorithm  1   Integral accuracy      1.0D-15

     8355.316 MB (compressed) written to integral file ( 45.0%)

     Node minimum: 533.725 MB, node maximum: 961.282 MB


 NUMBER OF SORTED TWO-ELECTRON INTEGRALS:  203908241.     BUFFER LENGTH:  32768
 NUMBER OF SEGMENTS:   7  SEGMENT LENGTH:   31990770      RECORD LENGTH: 524288

 Memory used in sort:      32.55 MW

 SORT1 READ  2319806290. AND WROTE    90829705. INTEGRALS IN    264 RECORDS. CPU TIME:    40.54 SEC, REAL TIME:    60.67 SEC
 SORT2 READ  1000084486. AND WROTE  2243484243. INTEGRALS IN  33506 RECORDS. CPU TIME:     3.13 SEC, REAL TIME:     5.03 SEC

 Node minimum:   203897834.  Node maximum:   204073967. integrals

 OPERATOR DM      FOR CENTER  0  COORDINATES:    0.000000    0.000000    0.000000


 **********************************************************************************************************************************
 DATASETS  * FILE   NREC   LENGTH (MB)   RECORD NAMES
              1      19       23.11       500      610      700      900      950      970     1000      129      960     1100
                                          VAR    BASINP    GEOM    SYMINP    ZMAT    AOBASIS   BASIS     P2S    ABASIS      S
                                         1400     1410     1420     1200     1210     1080     1600     1650     1700
                                           T        V       ECP      H0       H01     AOSYM     SMH    MOLCAS    OPER

 PROGRAMS   *        TOTAL       INT
 CPU TIMES  *       155.95    155.63
 REAL TIME  *       179.85 SEC
 DISK USED  *        20.31 GB
 GA USED    *         0.00 MB       (max)       0.00 MB       (current)
 **********************************************************************************************************************************

 Density functional group PBE0=PBEX+PBEC
 Functional: PBEX(Automatically generated (new) PBEX)                          Gradient terms: 1
 Functional: PBEC(Automatically generated (new) PBEC)                          Gradient terms: 1
 Use grid at  1800.2


 Exact exchange will be calculated, factor:  0.2500

 Functional: PBEX                      Factor:  0.7500
 Functional: PBEC                      Factor:  1.0000

 Generated new metagrid on record  1800.2 with target accuracy 1.0D-06 and 6126 points in CPU time    0.1
 Computed new grid on record 1800.1 in CPU time    0.1
  410982 words reserved for DFT integration

 PROGRAM * RKS-SCF (Restricted open shell Kohn-Sham)     Authors: W. Meyer, H.-J. Werner, P.J. Knowles, 1993

 NUMBER OF ELECTRONS:      16+    8-    SPACE SYMMETRY=4    SPIN SYMMETRY: Nonet
 CONVERGENCE THRESHOLDS:    1.00E-05 (Density)    1.00E-06 (Energy)
 MAX. NUMBER OF ITERATIONS:      200
 INTERPOLATION TYPE:            DIIS
 INTERPOLATION STEPS:              2 (START)      1 (STEP)
 LEVEL SHIFTS:                 -0.60 (CLOSED) -0.30 (OPEN)

 Number of closed-shell orbitals:    8 (   4   2   2   0 )
 Number of open-shell orbitals:      8 (   3   2   2   1 )


 Use fine grid record 1800.2 for energy threshold  1.0D-06
 Guess basis ATOMIC-GUESS,GD=ECP46_GUESS,O=ECP2_GUESS not found. No density guess!


 Molecular orbital dump at record        2202.2

 ITERATION    DDIFF          GRAD             ENERGY        2-EL.EN.            DIPOLE MOMENTS         DIIS   ORB.
    1      0.000D+00      0.000D+00       -67.15093669    550.689298    0.00000    0.00000   10.23058    0    start
    2      0.000D+00      0.214D+00       -34.79550568    146.699769    0.00000    0.00000 -124.19752    0    diag,B
    3      0.542D+01      0.874D-01       -56.81224057    560.270281    0.00000    0.00000   17.43358    1    diag,B
    4      0.540D+01      0.218D+00       -72.06551115    527.631774    0.00000    0.00000   16.36414    2    diag,B
    5      0.734D-01      0.181D+00       -82.76058053    502.024667    0.00000    0.00000   15.25757    3    diag,B
    6      0.112D+00      0.157D+00       -86.22489841    493.555550    0.00000    0.00000   14.64667    4    diag,B
    7      0.283D-01      0.149D+00       -86.99082139    491.280316    0.00000    0.00000   14.62965    5    diag,B
    8      0.705D-02      0.147D+00       -87.20020754    490.862470    0.00000    0.00000   14.56102    6    diag,B
    9      0.298D-02      0.146D+00       -87.19396255    490.878515    0.00000    0.00000   14.56235    7    diag,B
   10      0.538D-04      0.146D+00       -90.23923900    481.729059    0.00000    0.00000   14.20308    8    orth
   11      0.186D-01      0.140D+00       -90.27922628    481.766762    0.00000    0.00000   14.13751    9    diag,B
   12      0.108D-02      0.140D+00       -91.60322196    478.233854    0.00000    0.00000   13.87174   10    diag,B
   13      0.812D-02      0.137D+00       -93.17365163    472.670740    0.00000    0.00000   13.86371   11    diag,B
   14      0.735D-02      0.133D+00       -93.24732183    472.353441    0.00000    0.00000   13.88360   12    diag,B
   15      0.526D-03      0.132D+00       -94.35716227    469.232933    0.00000    0.00000   13.62943   13    diag,B
   16      0.387D-02      0.130D+00       -95.22373630    466.828384    0.00000    0.00000   13.38662   14    diag,B
   17      0.388D-02      0.128D+00       -98.27600403    455.824262    0.00000    0.00000   13.11566   15    diag,B
   18      0.126D-01      0.121D+00       -98.03557996    456.728948    0.00000    0.00000   13.07418   16    diag,B
   19      0.452D-02      0.123D+00      -101.41028835    446.984428    0.00000    0.00000   11.93151   17    diag,B
   20      0.114D-01      0.116D+00      -101.72868600    446.161624    0.00000    0.00000   11.78579   18    orth
   21      0.180D-02      0.115D+00      -104.36611355    437.003686    0.00000    0.00000   11.02257   19    diag,B
   22      0.844D-02      0.107D+00      -106.73278514    431.758424    0.00000    0.00000    9.46719   20    diag,B
   23      0.117D-01      0.103D+00      -106.71870867    431.937726    0.00000    0.00000    9.43628   21    diag,B
   24      0.642D-03      0.104D+00      -107.68988115    429.648085    0.00000    0.00000    8.87677   22    diag,B
   25      0.760D-02      0.102D+00      -110.11533516    419.896540    0.00000    0.00000    8.57126   23    diag,B
   26      0.473D-02      0.949D-01      -115.38766089    398.703371    0.00000    0.00000    7.48321   24    diag,B
   27      0.840D-02      0.748D-01      -116.28798461    394.813048    0.00000    0.00000    7.12537   25    diag,B
   28      0.287D-02      0.707D-01      -119.38686808    378.668828    0.00000    0.00000    5.97057   26    diag,B
   29      0.105D-01      0.559D-01      -120.94467061    369.058043    0.00000    0.00000    5.33373   27    diag,B
   30      0.820D-02      0.489D-01      -122.86109584    357.277709    0.00000    0.00000    3.95668   28    orth
   31      0.918D-02      0.393D-01      -124.73150162    340.647454    0.00000    0.00000    2.41808   29    diag,B
   32      0.109D-01      0.258D-01      -125.94030308    326.128756    0.00000    0.00000    0.50646   29    diag,B
   33      0.530D-02      0.123D-01      -126.20988524    319.328302    0.00000    0.00000   -0.11567   29    diag,B
   34      0.398D-02      0.715D-02      -126.28899265    315.613371    0.00000    0.00000   -0.46720   29    diag,B
   35      0.332D-02      0.341D-02      -126.31075310    313.231873    0.00000    0.00000   -0.60414   29    diag,B
   36      0.153D-02      0.108D-02      -126.31480543    312.442635    0.00000    0.00000   -0.69162   29    diag,B
   37      0.742D-03      0.236D-03      -126.31580624    312.024504    0.00000    0.00000   -0.70205   29    diag,B
   38      0.413D-03      0.134D-03      -126.31626437    311.950674    0.00000    0.00000   -0.70727   29    diag,B
   39      0.178D-03      0.113D-03      -126.31668413    311.822276    0.00000    0.00000   -0.70612   29    diag,B
   40      0.142D-03      0.103D-03      -126.31685281    311.793168    0.00000    0.00000   -0.70676   29    orth
   41      0.709D-04      0.111D-03      -126.31686505    311.792541    0.00000    0.00000   -0.70678   29    diag,B
   42      0.786D-05      0.113D-03      -126.31687661    311.709815    0.00000    0.00000   -0.70616   29    diag,B
   43      0.205D-03      0.804D-04      -126.31725012    311.565327    0.00000    0.00000   -0.70797   29    diag,B
   44      0.242D-03      0.432D-04      -126.31740502    311.396245    0.00000    0.00000   -0.71017   29    diag,B
   45      0.155D-03      0.412D-04      -126.31745841    311.346761    0.00000    0.00000   -0.71237   29    diag,B
   46      0.769D-04      0.428D-04      -126.31751672    311.317807    0.00000    0.00000   -0.71533   29    diag,B
   47      0.104D-03      0.253D-04      -126.31753466    311.291585    0.00000    0.00000   -0.71656   29    diag,B
   48      0.270D-04      0.222D-04      -126.31758621    311.235826    0.00000    0.00000   -0.72181   29    diag,B
   49      0.840D-04      0.250D-04      -126.31760350    311.233955    0.00000    0.00000   -0.72450   29    fixocc
   50      0.368D-04      0.156D-04      -126.31763797    311.183011    0.00000    0.00000   -0.73126   29    orth
   51      0.721D-04      0.164D-04      -126.31765700    311.164753    0.00000    0.00000   -0.73701   29    diag,B
   52      0.519D-04      0.134D-04      -126.31767661    311.118648    0.00000    0.00000   -0.74378   29    diag,B
   53      0.647D-04      0.156D-04      -126.31768721    311.100054    0.00000    0.00000   -0.74792   29    diag,B
   54      0.434D-04      0.119D-04      -126.31768613    311.102084    0.00000    0.00000   -0.74759   29    diag,B
   55      0.429D-05      0.120D-04      -126.31769327    311.068654    0.00000    0.00000   -0.75176   29    diag,B
   56      0.452D-04      0.151D-04      -126.31770511    311.036207    0.00000    0.00000   -0.75895   29    diag,B
   57      0.818D-04      0.582D-05      -126.31771975    310.923992    0.00000    0.00000   -0.76982   29    diag,B
   58      0.127D-03      0.191D-04      -126.31772716    310.863364    0.00000    0.00000   -0.77561   29    diag,B
   59      0.784D-04      0.220D-04      -126.31773629    310.784549    0.00000    0.00000   -0.78200   29    diag,B
   60      0.935D-04      0.279D-04      -126.31773040    310.833092    0.00000    0.00000   -0.77797   29    orth
   61      0.592D-04      0.251D-04      -126.31770995    310.954924    0.00000    0.00000   -0.76363   29    diag,B
   62      0.201D-03      0.413D-04      -126.31771578    310.925525    0.00000    0.00000   -0.76748   29    diag,B
   63      0.521D-04      0.363D-04      -126.31772217    310.895069    0.00000    0.00000   -0.77160   29    diag,B
   64      0.612D-04      0.281D-04      -126.31773836    310.756497    0.00000    0.00000   -0.78311   29    diag,B
   65      0.168D-03      0.375D-04      -126.31773803    310.761912    0.00000    0.00000   -0.78272   29    diag,B
   66      0.466D-05      0.359D-04      -126.31775143    310.642133    0.00000    0.00000   -0.78993   29    diag,B
   67      0.115D-03      0.569D-04      -126.31775300    310.623109    0.00000    0.00000   -0.79093   29    diag,B
   68      0.204D-04      0.625D-04      -126.31775800    310.583272    0.00000    0.00000   -0.79303   29    diag,B
   69      0.358D-04      0.705D-04      -126.31776451    310.534078    0.00000    0.00000   -0.79556   29    diag,B
   70      0.422D-04      0.810D-04      -126.31776760    310.512734    0.00000    0.00000   -0.79665   29    orth
   71      0.202D-04      0.856D-04      -126.31776465    310.535785    0.00000    0.00000   -0.79552   29    diag,B
   72      0.203D-04      0.801D-04      -126.31776857    310.508157    0.00000    0.00000   -0.79688   29    diag,B
   73      0.234D-04      0.862D-04      -126.31777878    310.442559    0.00000    0.00000   -0.80012   29    diag,B
   74      0.547D-04      0.101D-03      -126.31778232    310.422026    0.00000    0.00000   -0.80104   29    diag,B
   75      0.173D-04      0.106D-03      -126.31776960    310.504686    0.00000    0.00000   -0.79727   29    diag,B
   76      0.671D-04      0.862D-04      -126.31776643    310.523553    0.00000    0.00000   -0.79622   29    diag,B
   77      0.173D-04      0.827D-04      -126.31776340    310.542191    0.00000    0.00000   -0.79508   29    diag,B
   78      0.192D-04      0.794D-04      -126.31775960    310.569172    0.00000    0.00000   -0.79362   29    diag,B
   79      0.241D-04      0.739D-04      -126.31775784    310.581890    0.00000    0.00000   -0.79298   29    diag,B
   80      0.122D-04      0.715D-04      -126.31775839    310.577125    0.00000    0.00000   -0.79337   29    orth
   81      0.549D-05      0.727D-04      -126.31775844    310.576160    0.00000    0.00000   -0.79329   29    diag,B
   82      0.585D-05      0.730D-04      -126.31776119    310.556819    0.00000    0.00000   -0.79431   29    diag,B
   83      0.203D-04      0.768D-04      -126.31776258    310.546547    0.00000    0.00000   -0.79498   29    diag,B
   84      0.160D-04      0.789D-04      -126.31776325    310.541743    0.00000    0.00000   -0.79509   29    diag,B
   85      0.189D-04      0.799D-04      -126.31776883    310.502013    0.00000    0.00000   -0.79700   29    diag,B
   86      0.411D-04      0.887D-04      -126.31776860    310.503862    0.00000    0.00000   -0.79706   29    diag,B
   87      0.338D-05      0.883D-04      -126.31776253    310.546749    0.00000    0.00000   -0.79477   29    diag,B
   88      0.437D-04      0.789D-04      -126.31776844    310.505058    0.00000    0.00000   -0.79709   29    diag,B
   89      0.392D-04      0.878D-04      -126.31776912    310.501292    0.00000    0.00000   -0.79697   29    diag,B
   90      0.644D-05      0.886D-04      -126.31776292    310.545003    0.00000    0.00000   -0.79461   29    orth
   91      0.423D-04      0.791D-04      -126.31776332    310.541055    0.00000    0.00000   -0.79516   29    diag,B
   92      0.763D-05      0.801D-04      -126.31777247    310.477890    0.00000    0.00000   -0.79803   29    diag,B
   93      0.576D-04      0.941D-04      -126.31777143    310.484952    0.00000    0.00000   -0.79789   29    diag,B
   94      0.681D-05      0.924D-04      -126.31776146    310.555322    0.00000    0.00000   -0.79425   29    diag,B
   95      0.670D-04      0.769D-04      -126.31776319    310.542539    0.00000    0.00000   -0.79526   29    diag,B
   96      0.190D-04      0.796D-04      -126.31776287    310.543133    0.00000    0.00000   -0.79480   29    diag,B
   97      0.133D-04      0.799D-04      -126.31776182    310.551628    0.00000    0.00000   -0.79424   29    diag,B
   98      0.198D-04      0.779D-04      -126.31776292    310.543608    0.00000    0.00000   -0.79503   29    diag,B
   99      0.126D-04      0.796D-04      -126.31776675    310.517283    0.00000    0.00000   -0.79634   29    diag,B
  100      0.262D-04      0.851D-04      -126.31776808    310.507669    0.00000    0.00000   -0.79673   29    orth
  101      0.245D-04      0.874D-04      -126.31776318    310.542061    0.00000    0.00000   -0.79506   29    diag,B
  102      0.297D-04      0.800D-04      -126.31776169    310.554051    0.00000    0.00000   -0.79464   29    diag,B
  103      0.191D-04      0.772D-04      -126.31776532    310.526464    0.00000    0.00000   -0.79576   29    diag,B
  104      0.255D-04      0.833D-04      -126.31776407    310.536040    0.00000    0.00000   -0.79555   29    diag,B
  105      0.191D-04      0.811D-04      -126.31776720    310.514076    0.00000    0.00000   -0.79627   29    diag,B
  106      0.278D-04      0.858D-04      -126.31776527    310.527598    0.00000    0.00000   -0.79584   29    diag,B
  107      0.119D-04      0.829D-04      -126.31776463    310.531614    0.00000    0.00000   -0.79598   29    diag,B
  108      0.173D-04      0.822D-04      -126.31776629    310.520298    0.00000    0.00000   -0.79604   29    diag,B
  109      0.138D-04      0.845D-04      -126.31776828    310.507231    0.00000    0.00000   -0.79693   29    diag,B
  110      0.140D-04      0.872D-04      -126.31776160    310.554612    0.00000    0.00000   -0.79454   29    orth
  111      0.419D-04      0.770D-04      -126.31776435    310.535787    0.00000    0.00000   -0.79545   29    diag,B
  112      0.289D-04      0.810D-04      -126.31776451    310.532068    0.00000    0.00000   -0.79561   29    diag,B
  113      0.854D-05      0.822D-04      -126.31779121    310.362280    0.00000    0.00000   -0.80345   29    diag,B
  114      0.141D-03      0.122D-03      -126.31776437    310.534117    0.00000    0.00000   -0.79551   29    diag,B
  115      0.140D-03      0.814D-04      -126.31776435    310.528375    0.00000    0.00000   -0.79564   29    diag,B
  116      0.159D-04      0.842D-04      -126.31776543    310.522749    0.00000    0.00000   -0.79598   29    diag,B
  117      0.590D-05      0.849D-04      -126.31774862    310.651389    0.00000    0.00000   -0.78894   29    diag,B
  118      0.116D-03      0.596D-04      -126.31774890    310.648439    0.00000    0.00000   -0.78912   29    diag,B
  119      0.490D-05      0.605D-04      -126.31775331    310.612008    0.00000    0.00000   -0.79124   29    diag,B
  120      0.338D-04      0.673D-04      -126.31775239    310.619239    0.00000    0.00000   -0.79079   29    orth
  121      0.804D-05      0.660D-04      -126.31774958    310.642314    0.00000    0.00000   -0.78946   29    diag,B
  122      0.228D-04      0.617D-04      -126.31774945    310.642805    0.00000    0.00000   -0.78941   29    diag,B
  123      0.173D-04      0.618D-04      -126.31774823    310.652771    0.00000    0.00000   -0.78882   29    diag,B
  124      0.106D-04      0.601D-04      -126.31774448    310.685799    0.00000    0.00000   -0.78693   29    diag,B
  125      0.328D-04      0.544D-04      -126.31774446    310.685737    0.00000    0.00000   -0.78696   29    diag,B
  126      0.241D-05      0.544D-04      -126.31774444    310.685589    0.00000    0.00000   -0.78694   29    diag,B
  127      0.272D-05      0.546D-04      -126.31774688    310.663475    0.00000    0.00000   -0.78825   29    diag,B
  128      0.214D-04      0.585D-04      -126.31774956    310.641838    0.00000    0.00000   -0.78956   29    diag,B
  129      0.271D-04      0.621D-04      -126.31775440    310.600620    0.00000    0.00000   -0.79186   29    diag,B
  130      0.386D-04      0.703D-04      -126.31775168    310.622776    0.00000    0.00000   -0.79057   29    orth
  131      0.219D-04      0.659D-04      -126.31775071    310.631685    0.00000    0.00000   -0.79010   29    diag,B
  132      0.197D-04      0.641D-04      -126.31775157    310.623581    0.00000    0.00000   -0.79059   29    diag,B
  133      0.109D-04      0.659D-04      -126.31775125    310.626505    0.00000    0.00000   -0.79039   29    diag,B
  134      0.983D-05      0.652D-04      -126.31774977    310.639729    0.00000    0.00000   -0.78964   29    diag,B
  135      0.197D-04      0.626D-04      -126.31775229    310.617900    0.00000    0.00000   -0.79092   29    diag,B
  136      0.209D-04      0.669D-04      -126.31775036    310.633998    0.00000    0.00000   -0.78994   29    diag,B
  137      0.163D-04      0.638D-04      -126.31775143    310.625779    0.00000    0.00000   -0.79042   29    diag,B
  138      0.118D-04      0.652D-04      -126.31775115    310.627201    0.00000    0.00000   -0.79044   29    diag,B
  139      0.750D-05      0.651D-04      -126.31775058    310.631949    0.00000    0.00000   -0.79008   29    diag,B
  140      0.697D-05      0.642D-04      -126.31774895    310.646693    0.00000    0.00000   -0.78920   29    orth
  141      0.148D-04      0.613D-04      -126.31775115    310.627267    0.00000    0.00000   -0.79045   29    diag,B
  142      0.188D-04      0.651D-04      -126.31774865    310.648410    0.00000    0.00000   -0.78913   29    diag,B
  143      0.210D-04      0.611D-04      -126.31774977    310.639754    0.00000    0.00000   -0.78957   29    diag,B
  144      0.104D-04      0.626D-04      -126.31774932    310.642496    0.00000    0.00000   -0.78963   29    diag,B
  145      0.895D-05      0.623D-04      -126.31774896    310.645492    0.00000    0.00000   -0.78935   29    diag,B
  146      0.865D-05      0.617D-04      -126.31774729    310.660876    0.00000    0.00000   -0.78835   29    diag,B
  147      0.151D-04      0.588D-04      -126.31775066    310.631295    0.00000    0.00000   -0.79028   29    diag,B
  148      0.276D-04      0.644D-04      -126.31774813    310.652772    0.00000    0.00000   -0.78889   29    diag,B
  149      0.219D-04      0.604D-04      -126.31774888    310.647282    0.00000    0.00000   -0.78908   29    diag,B
  150      0.837D-05      0.612D-04      -126.31774876    310.647268    0.00000    0.00000   -0.78941   29    orth
  151      0.626D-05      0.615D-04      -126.31774823    310.651668    0.00000    0.00000   -0.78903   29    diag,B
  152      0.940D-05      0.606D-04      -126.31774668    310.666044    0.00000    0.00000   -0.78805   29    diag,B
  153      0.146D-04      0.579D-04      -126.31775118    310.627102    0.00000    0.00000   -0.79054   29    diag,B
  154      0.361D-04      0.652D-04      -126.31774896    310.645664    0.00000    0.00000   -0.78930   29    diag,B
  155      0.191D-04      0.616D-04      -126.31774969    310.640372    0.00000    0.00000   -0.78945   29    diag,B
  156      0.979D-05      0.624D-04      -126.31774889    310.646177    0.00000    0.00000   -0.78952   29    diag,B
  157      0.675D-05      0.617D-04      -126.31774809    310.652839    0.00000    0.00000   -0.78899   29    diag,B
  158      0.974D-05      0.604D-04      -126.31774644    310.668040    0.00000    0.00000   -0.78794   29    diag,B
  159      0.159D-04      0.575D-04      -126.31775186    310.621712    0.00000    0.00000   -0.79081   29    diag,B
  160      0.430D-04      0.662D-04      -126.31775067    310.631355    0.00000    0.00000   -0.79008   29    orth
  161      0.110D-04      0.642D-04      -126.31775173    310.623104    0.00000    0.00000   -0.79045   29    diag,B
  162      0.121D-04      0.657D-04      -126.31774961    310.640194    0.00000    0.00000   -0.78984   29    diag,B
  163      0.172D-04      0.628D-04      -126.31774914    310.643941    0.00000    0.00000   -0.78947   29    diag,B
  164      0.687D-05      0.620D-04      -126.31774720    310.661464    0.00000    0.00000   -0.78831   29    diag,B
  165      0.191D-04      0.587D-04      -126.31775121    310.626977    0.00000    0.00000   -0.79054   29    diag,B
  166      0.324D-04      0.652D-04      -126.31774910    310.644524    0.00000    0.00000   -0.78933   29    diag,B
  167      0.173D-04      0.618D-04      -126.31775031    310.634939    0.00000    0.00000   -0.78979   29    diag,B
  168      0.139D-04      0.635D-04      -126.31774909    310.644707    0.00000    0.00000   -0.78961   29    diag,B
  169      0.136D-04      0.619D-04      -126.31774801    310.653772    0.00000    0.00000   -0.78890   29    diag,B
  170      0.103D-04      0.602D-04      -126.31774652    310.667312    0.00000    0.00000   -0.78800   29    orth
  171      0.163D-04      0.577D-04      -126.31775203    310.620355    0.00000    0.00000   -0.79087   29    diag,B
  172      0.438D-04      0.664D-04      -126.31775105    310.628334    0.00000    0.00000   -0.79019   29    diag,B
  173      0.890D-05      0.647D-04      -126.31775261    310.615697    0.00000    0.00000   -0.79095   29    diag,B
  174      0.139D-04      0.672D-04      -126.31775025    310.634903    0.00000    0.00000   -0.79009   29    diag,B
  175      0.200D-04      0.637D-04      -126.31774995    310.637324    0.00000    0.00000   -0.78977   29    diag,B
  176      0.518D-05      0.631D-04      -126.31774814    310.653291    0.00000    0.00000   -0.78882   29    diag,B
  177      0.189D-04      0.602D-04      -126.31775106    310.628325    0.00000    0.00000   -0.79044   29    diag,B
  178      0.247D-04      0.649D-04      -126.31774873    310.647825    0.00000    0.00000   -0.78909   29    diag,B
  179      0.190D-04      0.611D-04      -126.31775093    310.629646    0.00000    0.00000   -0.79017   29    diag,B
  180      0.192D-04      0.645D-04      -126.31774930    310.643088    0.00000    0.00000   -0.78967   29    orth
  181      0.179D-04      0.622D-04      -126.31774837    310.650778    0.00000    0.00000   -0.78898   29    diag,B
  182      0.933D-05      0.607D-04      -126.31774711    310.662152    0.00000    0.00000   -0.78832   29    diag,B
  183      0.152D-04      0.586D-04      -126.31775111    310.627905    0.00000    0.00000   -0.79047   29    diag,B
  184      0.329D-04      0.650D-04      -126.31774867    310.648339    0.00000    0.00000   -0.78904   29    diag,B
  185      0.201D-04      0.610D-04      -126.31775181    310.622216    0.00000    0.00000   -0.79063   29    diag,B
  186      0.252D-04      0.660D-04      -126.31774960    310.640537    0.00000    0.00000   -0.78979   29    diag,B
  187      0.213D-04      0.627D-04      -126.31774895    310.645816    0.00000    0.00000   -0.78924   29    diag,B
  188      0.851D-05      0.615D-04      -126.31774747    310.659022    0.00000    0.00000   -0.78854   29    diag,B
  189      0.160D-04      0.592D-04      -126.31775111    310.627855    0.00000    0.00000   -0.79045   29    diag,B
  190      0.302D-04      0.650D-04      -126.31774863    310.648776    0.00000    0.00000   -0.78900   29    orth
  191      0.210D-04      0.609D-04      -126.31775252    310.616393    0.00000    0.00000   -0.79101   29    diag,B
  192      0.302D-04      0.671D-04      -126.31775107    310.628261    0.00000    0.00000   -0.79042   29    diag,B
  193      0.141D-04      0.649D-04      -126.31775057    310.632269    0.00000    0.00000   -0.78996   29    diag,B
  194      0.926D-05      0.640D-04      -126.31774934    310.643010    0.00000    0.00000   -0.78952   29    diag,B
  195      0.128D-04      0.621D-04      -126.31775043    310.633556    0.00000    0.00000   -0.79015   29    diag,B
  196      0.136D-04      0.639D-04      -126.31774747    310.658698    0.00000    0.00000   -0.78845   29    diag,B
  197      0.252D-04      0.592D-04      -126.31775092    310.629699    0.00000    0.00000   -0.79026   29    diag,B
  198      0.276D-04      0.646D-04      -126.31774959    310.640687    0.00000    0.00000   -0.78976   29    diag,B
  199      0.167D-04      0.626D-04      -126.31774628    310.616340    0.00000    0.00000   -0.78921   29    orth
  200      0.170D-04      0.776D-04      -126.31774627    310.784767    0.00000    0.00000   -0.78708    0    orth

 Final alpha occupancy:   7   4   4   1
 Final beta  occupancy:   4   2   2   0

 !RKS STATE 1.4 Energy               -126.317746265922
   --><property name="Energy" method="RKS" principal="true" stateSymmetry="4" stateNumber="1"
     value="-126.317746265922"/><!--
 Nuclear energy                        40.82224199
 One-electron energy                 -309.92418421
 Two-electron energy                  155.39238375
 Density functional                   -12.60818779     PBEX=-15.60280484 PBEC= -0.90608416
 Virial quotient                       -0.78376737
 !RKS STATE 1.4 Dipole moment           0.00000000     0.00000000    -0.78708364
 Dipole moment /Debye                   0.00000000     0.00000000    -2.00043604
   --><property name="Dipole moment" method="RKS" principal="true" stateSymmetry="4"
     stateNumber="1" value="0.0 0.0 -0.78708364121715"/><!--

 ELECTRON ORBITALS
 =================


   Orb  Occ    Energy  Couls-En    Coefficients

                                   1 1s      1 1s      1 1s      1 1s      1 1s      1 1s      1 1s      1 1s      1 1s      1 1s
                                   1 1s      1 1s      1 1s      1 1s      1 1s      1 1s      1 1s      1 1s      1 1s      1 1s
                                   1 1s      1 1s      1 1s      1 1s      1 1s      1 1s      1 1s      1 1s      1 1s      1 1s
                                   1 1s      1 1s      1 2pz     1 2pz     1 2pz     1 2pz     1 2pz     1 2pz     1 2pz     1 2pz
                                   1 2pz     1 2pz     1 2pz     1 2pz     1 2pz     1 2pz     1 2pz     1 2pz     1 2pz     1 2pz
                                   1 2pz     1 2pz     1 2pz     1 2pz     1 2pz     1 2pz     1 2pz     1 2pz     1 2pz     1 2pz
                                   1 2pz     1 2pz     1 3d0     1 3d2+    1 3d0     1 3d2+    1 3d0     1 3d2+    1 3d0     1 3d2+
                                   1 3d0     1 3d2+    1 3d0     1 3d2+    1 3d0     1 3d2+    1 3d0     1 3d2+    1 3d0     1 3d2+
                                   1 3d0     1 3d2+    1 3d0     1 3d2+    1 3d0     1 3d2+    1 3d0     1 3d2+    1 3d0     1 3d2+
                                   1 3d0     1 3d2+    1 3d0     1 3d2+    1 3d0     1 3d2+    1 3d0     1 3d2+    1 3d0     1 3d2+
                                   1 3d0     1 3d2+    1 3d0     1 3d2+    1 3d0     1 3d2+    1 4f0     1 4f2+    1 4f0     1 4f2+
                                   1 4f0     1 4f2+    1 4f0     1 4f2+    1 4f0     1 4f2+    1 4f0     1 4f2+    1 4f0     1 4f2+
                                   1 4f0     1 4f2+    1 4f0     1 4f2+    1 4f0     1 4f2+    1 4f0     1 4f2+    1 4f0     1 4f2+
                                   1 4f0     1 4f2+    1 4f0     1 4f2+    1 5g0     1 5g4+    1 5g2+    1 5g0     1 5g4+    1 5g2+
                                   1 5g0     1 5g4+    1 5g2+    1 5g0     1 5g4+    1 5g2+    1 5g0     1 5g4+    1 5g2+    1 5g0
                                   1 5g4+    1 5g2+    1 5g0     1 5g4+    1 5g2+    1 5g0     1 5g4+    1 5g2+    1 5g0     1 5g4+
                                   1 5g2+    1 6h2+    1 6h4+    1 6h0     1 6h2+    1 6h4+    1 6h0     1 6h2+    1 6h4+    1 6h0
                                   2 1s      2 1s      2 1s      2 1s      2 1s      2 1s      2 1s      2 1s      2 1s      2 1s
                                   2 1s      2 1s      2 1s      2 2pz     2 2pz     2 2pz     2 2pz     2 2pz     2 2pz     2 2pz
                                   2 2pz     2 3d0     2 3d2+    2 3d0     2 3d2+    2 3d0     2 3d2+    2 3d0     2 3d2+    2 4f0
                                   2 4f2+    2 4f0     2 4f2+

   1.1   2    -1.8018  -16.3881  0.000000 -0.000001  0.000004 -0.000081 -0.000354 -0.001095 -0.002287 -0.004946  0.001850 -0.005343
                                 0.096040 -0.524576  0.050403  0.049085 -0.444741 -0.421921 -0.494216 -0.210506 -0.071827  0.000141
                                 0.000636  0.001863  0.005157 -0.147457  1.002938 -0.398439  0.342186  0.471425  0.108309  0.003230
                                -0.001142  0.000248 -0.000000  0.000000 -0.000000  0.000000 -0.000001  0.000001 -0.000002  0.000005
                                -0.000020  0.000185  0.002019  0.002665 -0.010801  0.012316 -0.137921 -0.033949  0.084165 -0.050032
                                 0.047333 -0.000749 -0.002884  0.000018  0.024978  0.015475  0.054377 -0.011068 -0.046180  0.030708
                                 0.002846 -0.000497 -0.000001  0.000000  0.000003 -0.000000 -0.000014  0.000000  0.000071 -0.000002
                                -0.001196  0.000034 -0.008448  0.000174  0.014255  0.000094 -0.005413  0.000055 -0.044037 -0.000100
                                -0.005108 -0.000045  0.002674 -0.000075  0.014776 -0.000176 -0.020589 -0.000036  0.029129 -0.000129
                                 0.009739 -0.000180  0.030028  0.000011 -0.025647 -0.000005  0.012910  0.000012 -0.004983  0.000002
                                 0.001362  0.000006 -0.000523 -0.000000  0.000143  0.000000 -0.000000 -0.000000  0.000003  0.000000
                                -0.000129 -0.000004 -0.004473 -0.000060 -0.012926 -0.000100 -0.013659 -0.000106 -0.007095 -0.000055
                                 0.002279 -0.000020  0.008762  0.000004  0.004423  0.000014 -0.003248 -0.000020 -0.000458  0.000011
                                 0.000701 -0.000006 -0.000259  0.000002 -0.000042  0.000051 -0.000000  0.000292 -0.000474 -0.000036
                                 0.000672 -0.000056 -0.000009 -0.004019  0.000606 -0.000021 -0.000612  0.000127 -0.000001 -0.000839
                                -0.000506  0.000003 -0.000218 -0.000104 -0.000001 -0.001355 -0.000050 -0.000001  0.000453  0.000001
                                 0.000000 -0.000008 -0.000006 -0.000018 -0.000005 -0.000089  0.000103 -0.000001 -0.000102 -0.002072
                                 0.000000 -0.000002  0.000011 -0.000068  0.000488 -0.016000  0.024741 -0.054015 -0.128874 -0.133135
                                -0.027333  0.020619  0.025890  0.001674  0.013892  0.050434  0.077222  0.078459  0.002719  0.002331
                                -0.000438 -0.007743 -0.000002 -0.024070 -0.000011 -0.016892  0.000009 -0.000431  0.000000  0.003610
                                 0.000006  0.005662 -0.000001

   2.1   2    -1.2329  -14.1505  0.000000 -0.000000  0.000002 -0.000040 -0.000174 -0.000538 -0.001126 -0.002445  0.000923 -0.002759
                                 0.047648 -0.196925  0.107280 -0.202963 -0.682560 -0.199959 -0.052026 -0.237848 -0.119384  0.000069
                                 0.000312  0.000916  0.002546 -0.074575  0.385208  0.441793 -0.219492  0.244967  0.174517  0.005935
                                -0.002162  0.000476  0.000000 -0.000000  0.000001 -0.000002  0.000002 -0.000003  0.000006 -0.000017
                                 0.000071 -0.000678 -0.007721 -0.010312  0.051825 -0.077877  0.216249  0.186130 -0.117080  0.072880
                                -0.074694  0.002802  0.011171 -0.005320 -0.097929  0.064552  0.121693  0.017476  0.073081 -0.048445
                                -0.004512  0.000792 -0.000000  0.000000  0.000000 -0.000000 -0.000001  0.000000  0.000003 -0.000001
                                 0.000066  0.000013  0.002652  0.000058 -0.005464  0.000070 -0.001830  0.000027  0.047965 -0.000050
                                 0.023928 -0.000023 -0.000311 -0.000028 -0.006417 -0.000045  0.010084 -0.000059 -0.030071 -0.000064
                                 0.017784 -0.000085 -0.056973  0.000031  0.041244  0.000026 -0.021191  0.000039  0.008968  0.000029
                                -0.002470  0.000025  0.000965  0.000002 -0.000267  0.000001  0.000001  0.000000 -0.000012 -0.000001
                                 0.000285  0.000018  0.007861  0.000277  0.019916  0.000428  0.023417  0.000466  0.016510  0.000265
                                -0.002443  0.000080 -0.011697  0.000020 -0.007946 -0.000047  0.000978  0.000059  0.002138 -0.000044
                                -0.001487  0.000022  0.000550 -0.000010 -0.000061  0.000023  0.000002  0.000636 -0.000218 -0.000009
                                -0.000873  0.000008 -0.000004  0.005706  0.000329  0.000004  0.001744  0.000234  0.000008  0.000613
                                -0.000226 -0.000014 -0.000462 -0.000084  0.000003  0.001750 -0.000038 -0.000003 -0.000446 -0.000002
                                -0.000001  0.000016  0.000050 -0.000016  0.000037  0.000189 -0.000053  0.000019 -0.000159  0.002787
                                -0.000000  0.000003 -0.000025  0.000149 -0.001075  0.036640 -0.061574  0.126592  0.336812  0.336844
                                 0.059002 -0.043895 -0.059482 -0.002257 -0.019026 -0.068311 -0.108657 -0.133012 -0.008195 -0.002833
                                 0.000592  0.007997  0.000006  0.027571  0.000028  0.025487  0.000008  0.000312  0.000000 -0.003836
                                -0.000008 -0.006551 -0.000009

   3.1   2    -0.6950  -11.4964 -0.000000  0.000000 -0.000000  0.000007  0.000032  0.000100  0.000208  0.000449 -0.000166  0.000466
                                -0.010135  0.075671  0.046389 -0.134558 -0.199888  0.026068  0.073171 -0.056213 -0.032528 -0.000013
                                -0.000058 -0.000170 -0.000468  0.015823 -0.154626  0.413518 -0.030573  0.079643  0.041019  0.002267
                                -0.000894  0.000205  0.000000 -0.000000  0.000000 -0.000001  0.000001 -0.000002  0.000004 -0.000012
                                 0.000052 -0.000511 -0.005992 -0.008155  0.060996 -0.053926  0.240926  0.234503  0.094910  0.078235
                                -0.037741  0.002142  0.008764 -0.013113 -0.118077  0.058780  0.103679  0.009950  0.033001 -0.025256
                                -0.002713  0.000492  0.000001 -0.000000 -0.000003  0.000000  0.000013 -0.000000 -0.000068  0.000000
                                 0.001268 -0.000005  0.011644 -0.000034 -0.027736  0.000015  0.015579 -0.000023  0.049890  0.000017
                                -0.020922  0.000068 -0.003030  0.000012 -0.022581  0.000045  0.036191 -0.000031 -0.035086  0.000022
                                -0.046999  0.000077  0.021092  0.000044  0.019589  0.000047 -0.012013  0.000042  0.000494  0.000044
                                -0.000364  0.000032  0.000135  0.000004 -0.000035  0.000000 -0.000003  0.000000  0.000020 -0.000002
                                -0.000220  0.000023 -0.001714  0.000369  0.001780  0.000561  0.000803  0.000619 -0.012033  0.000368
                                -0.002928  0.000091 -0.006819  0.000015  0.004126 -0.000036  0.019772  0.000080 -0.008547 -0.000067
                                 0.000672  0.000032 -0.000324 -0.000014 -0.000052 -0.000005  0.000001  0.000231  0.000057  0.000004
                                -0.000955  0.000034 -0.000004  0.002824 -0.000093  0.000002 -0.001409  0.000081 -0.000006 -0.000900
                                 0.000084 -0.000012  0.005402 -0.000260 -0.000000  0.001598 -0.000118 -0.000002 -0.001978 -0.000018
                                -0.000004  0.000011  0.000086 -0.000006  0.000029  0.000250 -0.000088  0.000013 -0.000117  0.001740
                                 0.000000 -0.000003  0.000025 -0.000152  0.001092 -0.038263  0.071207 -0.134189 -0.404377 -0.456012
                                -0.091078  0.040318  0.062007 -0.004801 -0.041875 -0.144075 -0.207939 -0.094957  0.023075 -0.004093
                                 0.001283  0.008020 -0.000000  0.024473  0.000001  0.014359  0.000007  0.000734  0.000000 -0.003914
                                -0.000004 -0.006593 -0.000002

   4.1   2    -0.1606  -14.4162 -0.000000  0.000000 -0.000000  0.000001  0.000005  0.000016  0.000033  0.000075 -0.000030  0.000092
                                -0.000765 -0.000765 -0.001358 -0.002276 -0.021014  0.012937  0.029152  0.019651  0.016345 -0.000002
                                -0.000009 -0.000027 -0.000077  0.001076  0.000502  0.021830 -0.038144  0.002907 -0.022470 -0.000319
                                 0.000338 -0.000091  0.000000 -0.000000  0.000000 -0.000000  0.000000 -0.000000  0.000000 -0.000001
                                 0.000006 -0.000075 -0.000963 -0.001363 -0.005763 -0.004137 -0.001828  0.003435 -0.019264  0.020523
                                 0.007378  0.000334  0.001438  0.004988  0.004728  0.003268 -0.002219 -0.000977 -0.006460  0.005284
                                 0.000419 -0.000024 -0.000000 -0.000000  0.000000  0.000002 -0.000000 -0.000007  0.000003  0.000035
                                -0.000069 -0.000626 -0.000691 -0.005757  0.000796  0.017537  0.000386 -0.016705  0.000312  0.000486
                                -0.003748  0.095529  0.000178  0.001490  0.001217  0.011133 -0.001444 -0.019560  0.000212  0.007664
                                -0.004335  0.064949 -0.013639  0.072757  0.007067  0.075263 -0.002305  0.077757 -0.001212  0.067344
                                -0.000403  0.052422  0.000004  0.006611 -0.000006  0.000939  0.000005  0.000125 -0.000038 -0.001005
                                 0.000533  0.014381  0.008258  0.231715  0.012187  0.346029  0.012595  0.352483  0.007931  0.221729
                                 0.002162  0.051514  0.000991  0.013752 -0.000801  0.011113  0.002126  0.075904  0.000989 -0.033178
                                -0.000756  0.023945  0.000161 -0.012095  0.000016 -0.000001  0.000075 -0.000011  0.000005  0.000234
                                 0.000093  0.000006  0.000787 -0.000054  0.000014  0.001668  0.000122  0.000005  0.004346 -0.000021
                                 0.000017 -0.000195 -0.000724  0.000041 -0.001831  0.000950  0.000085 -0.002271 -0.000373  0.000132
                                -0.003771  0.000274 -0.000003 -0.000021  0.000064  0.000045  0.000020  0.002272  0.000048  0.000041
                                -0.000000  0.000000 -0.000000  0.000001 -0.000009  0.000114  0.000797  0.000384 -0.002242  0.013985
                                -0.026166 -0.000742 -0.000269  0.000060  0.000544  0.001670  0.002771 -0.004709  0.008777 -0.000014
                                -0.000017  0.000232  0.004480  0.000701  0.016798  0.001345  0.012045  0.000005  0.000355 -0.000265
                                -0.003252 -0.000233 -0.001974

   5.1   +    -0.4335  -14.4000  0.000000 -0.000000  0.000000 -0.000005 -0.000022 -0.000068 -0.000141 -0.000302  0.000112 -0.000370
                                 0.012799 -0.056672  0.090463 -0.337861 -1.262656  0.135825  0.643167  0.135346  0.081698  0.000009
                                 0.000039  0.000115  0.000316 -0.022263  0.108475  1.281353 -0.961842  0.412611 -0.144312 -0.001784
                                 0.000450 -0.000079  0.000000 -0.000000  0.000001 -0.000002  0.000002 -0.000003  0.000007 -0.000019
                                 0.000078 -0.000663 -0.006238 -0.008786 -0.111498 -0.043152  0.130743 -0.046416 -0.598364  0.523660
                                 0.055146  0.002479  0.008768  0.071109  0.144963 -0.064850 -0.389574 -0.001670 -0.054880  0.017418
                                -0.000311  0.000127 -0.000001  0.000000  0.000004 -0.000000 -0.000017  0.000000  0.000091 -0.000000
                                -0.001583  0.000004 -0.012851  0.000031  0.026259 -0.000071 -0.014501  0.000086  0.095404 -0.000027
                                 0.126921 -0.000310  0.003668 -0.000009  0.022937 -0.000055 -0.033337  0.000083 -0.037426 -0.000093
                                 0.000074 -0.000346 -0.172770 -0.000136  0.261952 -0.000131 -0.001913 -0.000101 -0.006653 -0.000091
                                -0.002514 -0.000063  0.001579 -0.000010 -0.000514 -0.000001  0.000100 -0.000003 -0.000806  0.000023
                                 0.011745 -0.000335  0.194348 -0.005498  0.292257 -0.008039  0.293748 -0.007821  0.167179 -0.004309
                                 0.043598 -0.001309  0.009206 -0.000553 -0.014921  0.000157  0.052964 -0.001114  0.018266  0.000656
                                -0.012830 -0.000403  0.002980  0.000150  0.000192  0.000015 -0.000002  0.000087  0.000028 -0.000004
                                 0.000903  0.000181 -0.000013  0.006393  0.000454 -0.000021  0.001139  0.000303 -0.000049  0.006053
                                -0.000710  0.000001 -0.007439 -0.000922  0.000006  0.020479 -0.000401 -0.000003 -0.008553 -0.000061
                                 0.000004 -0.000003  0.000389  0.000098  0.000026  0.000636  0.000425 -0.000007  0.000686  0.003657
                                -0.000000  0.000001 -0.000011  0.000062 -0.000415  0.010841  0.003313  0.038016  0.044037  0.310276
                                -0.711569 -0.026913 -0.019879 -0.005284 -0.046291 -0.162746 -0.251548 -0.370959  0.139634 -0.005630
                                 0.001412  0.011493 -0.000047  0.044465 -0.000149  0.060310 -0.000045  0.000436 -0.000004 -0.011199
                                 0.000038 -0.016063 -0.000004

   6.1   +    -0.2450  -12.2650 -0.000000  0.000000 -0.000001  0.000025  0.000110  0.000340  0.000714  0.001564 -0.000608  0.002021
                                -0.030508  0.018166 -0.104344  0.163062  0.246487  0.315837  0.437813  0.466773  0.354987 -0.000044
                                -0.000197 -0.000580 -0.001623  0.049539 -0.071818 -0.213894 -0.479538 -0.297469 -0.507343 -0.018494
                                 0.007066 -0.001610  0.000000 -0.000000  0.000001 -0.000002  0.000003 -0.000003  0.000007 -0.000021
                                 0.000087 -0.000793 -0.008181 -0.011531 -0.031973 -0.088075 -0.125740  0.180087 -0.138984  0.209218
                                 0.122881  0.003110  0.011739  0.040081  0.011340  0.138398  0.215693 -0.036891 -0.147955  0.103262
                                 0.009694 -0.001744 -0.000000 -0.000000  0.000001  0.000000 -0.000004 -0.000000  0.000021  0.000001
                                -0.000446 -0.000018 -0.004490 -0.000147 -0.003358  0.000387  0.023587 -0.000391 -0.053199  0.000107
                                -0.200898  0.002407  0.001116  0.000042  0.008566  0.000268 -0.006632 -0.000440  0.026936  0.000138
                                -0.134145  0.001485 -0.279608  0.001901  0.031033  0.002088 -0.043438  0.002147 -0.013544  0.001840
                                 0.000195  0.001407  0.000387  0.000170 -0.000176  0.000026  0.000090 -0.000005 -0.000718  0.000043
                                 0.010247 -0.000610  0.163048 -0.009969  0.226710 -0.014626  0.222864 -0.014242  0.133528 -0.007977
                                 0.045461 -0.002364  0.034044 -0.000973 -0.030899  0.000177  0.008936 -0.002059  0.010137  0.001248
                                -0.011475 -0.000763  0.002943  0.000195  0.000156 -0.000004 -0.000003 -0.000510 -0.000013 -0.000005
                                 0.002069 -0.000073 -0.000029 -0.006482 -0.000277 -0.000050  0.001267 -0.000230 -0.000103 -0.007627
                                 0.001365 -0.000009 -0.019286  0.002408 -0.000023  0.011052  0.001846 -0.000079 -0.006140  0.000544
                                -0.000092 -0.000015  0.000351  0.000061  0.000008  0.000297  0.000388 -0.000058  0.000057 -0.000662
                                -0.000000  0.000000  0.000000 -0.000001  0.000037 -0.005091  0.025089 -0.018626 -0.114870  0.206531
                                -0.205269 -0.003942  0.007278  0.005574  0.049755  0.165468  0.261860  0.127151  0.135523  0.003167
                                -0.001521 -0.000225 -0.000054 -0.009477 -0.000133 -0.006279  0.000084 -0.000193 -0.000003 -0.000231
                                 0.000071  0.004737 -0.000033

   7.1   +    -0.0891   -7.8769  0.000000 -0.000000  0.000000 -0.000001 -0.000002 -0.000008 -0.000016 -0.000036  0.000014 -0.000047
                                 0.000671  0.000054  0.002202 -0.002141  0.001755 -0.008963 -0.018431 -0.017358 -0.009692  0.000001
                                 0.000004  0.000013  0.000037 -0.001080  0.000777 -0.002279  0.021530  0.002679  0.015732  0.001724
                                -0.000153  0.000015 -0.000000  0.000000 -0.000000  0.000000 -0.000000  0.000000 -0.000000  0.000001
                                -0.000003  0.000029  0.000328  0.000439  0.001796  0.002479  0.002652 -0.003937  0.009077 -0.011251
                                -0.005383 -0.000121 -0.000467 -0.001726 -0.001213 -0.003422 -0.003463  0.003009  0.007957 -0.003132
                                -0.000308  0.000168  0.000000 -0.000001 -0.000000  0.000003  0.000000 -0.000015 -0.000001  0.000078
                                 0.000027 -0.001412  0.000246 -0.012601 -0.000183  0.037521 -0.000437 -0.034793  0.000836  0.004965
                                 0.004341  0.217030 -0.000065  0.003336 -0.000454  0.024184  0.000514 -0.042193 -0.000548  0.011901
                                 0.003128  0.131210  0.008802  0.170439 -0.003630  0.189155 -0.000310  0.199966 -0.000207  0.176410
                                -0.000868  0.134472 -0.000124  0.015597  0.000024  0.002416 -0.000003 -0.000054  0.000023  0.000432
                                -0.000329 -0.006203 -0.005261 -0.100805 -0.007513 -0.148782 -0.007534 -0.146771 -0.004689 -0.082969
                                -0.001378 -0.023553 -0.000842 -0.009030  0.000859 -0.002598 -0.000934 -0.028796 -0.000918  0.007348
                                 0.000297 -0.015453 -0.000225 -0.003027 -0.000005  0.000001 -0.000043  0.000012  0.000001 -0.000036
                                -0.000059  0.000012 -0.000383  0.000122  0.000038 -0.000163 -0.000059  0.000038 -0.000163  0.000162
                                -0.000029 -0.000652  0.000508 -0.000080 -0.005700 -0.000515 -0.000045 -0.007902  0.000359  0.000205
                                -0.010597 -0.000199 -0.000029 -0.000009 -0.000144 -0.000041 -0.000020 -0.000354 -0.000024 -0.000020
                                 0.000000 -0.000000  0.000000 -0.000001  0.000003  0.000030 -0.000639  0.000096  0.002418 -0.008148
                                 0.016379  0.000332 -0.000005 -0.000108 -0.000970 -0.003158 -0.005092 -0.000156 -0.005034 -0.000042
                                 0.000030 -0.000085  0.002372 -0.000096  0.010705 -0.000488  0.015062  0.000000  0.000203  0.000084
                                -0.000953 -0.000015 -0.002380

   8.1   0    -0.0754   -5.4617 -0.000000  0.000000 -0.000001  0.000024  0.000105  0.000325  0.000680  0.001477 -0.000562  0.001792
                                -0.035974  0.121395 -0.029435  0.043467  0.401487  0.244601 -0.106352 -0.628864 -0.557813 -0.000042
                                -0.000189 -0.000554 -0.001538  0.059657 -0.279576 -0.075208  0.008065 -0.100750  0.103491 -0.093064
                                 0.013339 -0.002924 -0.000000  0.000000 -0.000000  0.000000 -0.000000  0.000000 -0.000001  0.000003
                                -0.000011  0.000105  0.001231  0.001773 -0.002044  0.014254 -0.000740 -0.032261  0.020497 -0.037285
                                -0.026258 -0.000441 -0.001813 -0.003021  0.010080 -0.023211 -0.051800  0.022721  0.108334 -0.001045
                                -0.002139  0.000531 -0.000000 -0.000000  0.000000  0.000000 -0.000001 -0.000000  0.000003  0.000000
                                -0.000049 -0.000002 -0.000372 -0.000007  0.002382 -0.000016 -0.004281 -0.000027  0.000566  0.000078
                                 0.034490  0.000143  0.000110  0.000004  0.000691  0.000003 -0.001831  0.000017  0.001049  0.000047
                                 0.020584  0.000107  0.021864  0.000032  0.003650  0.000166 -0.017033 -0.000103  0.037396 -0.000113
                                 0.014072 -0.000111  0.000200 -0.000033  0.000157  0.000002 -0.000000  0.000000  0.000004 -0.000001
                                -0.000054  0.000017 -0.000795  0.000280 -0.000981  0.000416 -0.001109  0.000403  0.001042  0.000228
                                -0.000315  0.000064 -0.000315  0.000020  0.003065 -0.000022 -0.005476 -0.000026 -0.013789 -0.000297
                                -0.002768 -0.000258 -0.000708 -0.000121 -0.000005 -0.000015  0.000000  0.000048 -0.000009  0.000001
                                 0.000063 -0.000211  0.000003  0.000223 -0.000297  0.000004  0.000607  0.000064  0.000008 -0.000664
                                -0.000841 -0.000023 -0.005779 -0.009842 -0.000027 -0.010082 -0.015536  0.000040 -0.002984 -0.021212
                                 0.000217  0.000001  0.000001  0.000005  0.000002  0.000002 -0.000026  0.000005  0.000046  0.000024
                                -0.000000  0.000000 -0.000003  0.000017 -0.000122  0.004013 -0.005831  0.015166  0.046245  0.071904
                                 0.288095 -0.005528 -0.006705  0.001048  0.009473  0.030022  0.047615  0.056118  0.017197  0.000416
                                -0.000288  0.002073  0.000004  0.006641  0.000010  0.003636  0.000062  0.000168  0.000000 -0.000252
                                -0.000002 -0.000842 -0.000010

   9.1   0    -0.0027   -1.8252 -0.000000  0.000000 -0.000001  0.000018  0.000077  0.000238  0.000501  0.001100 -0.000430  0.001450
                                -0.021212  0.003619 -0.080940  0.157037  0.548177 -0.078800 -2.690486 -4.332407 -5.410460 -0.000031
                                -0.000138 -0.000406 -0.001140  0.034312 -0.032706 -0.477756  0.605677  5.340770  5.984037  0.875423
                                -0.219483  0.820491 -0.000000  0.000000 -0.000000  0.000000 -0.000000  0.000000 -0.000000  0.000000
                                -0.000000  0.000003  0.000049  0.000088  0.002770  0.001994  0.006570  0.008613 -0.037976  0.154409
                                 0.367643 -0.000016 -0.000077 -0.001520 -0.004894 -0.000209 -0.000779 -0.545257 -0.637577  0.643261
                                 0.083224 -0.324973  0.000000 -0.000000 -0.000000  0.000000  0.000002 -0.000000 -0.000010  0.000000
                                 0.000185 -0.000003  0.001699 -0.000023 -0.003305  0.000055  0.000714 -0.000063  0.002448  0.000031
                                 0.006422  0.000369 -0.000443  0.000007 -0.003246  0.000041  0.004785 -0.000063 -0.001902  0.000039
                                 0.000207  0.000239 -0.019170  0.000270  0.068918  0.000320  0.073401  0.000153 -0.019253  0.000334
                                 0.039863 -0.000480 -0.057703  0.000099  0.023995 -0.000462  0.000001  0.000000 -0.000011 -0.000000
                                 0.000156  0.000006  0.002396  0.000098  0.003040  0.000155  0.002878  0.000157  0.002401  0.000080
                                 0.000800  0.000017  0.000927 -0.000007 -0.002481  0.000040  0.005712 -0.000140  0.021720  0.000247
                                -0.023226 -0.000607  0.044943  0.001873 -0.000005  0.000010 -0.000000  0.000025 -0.000061  0.000002
                                 0.000003  0.000088 -0.000003 -0.000023 -0.000516  0.000011 -0.000164  0.000988 -0.000019 -0.000028
                                -0.002486  0.000049 -0.003184  0.001739 -0.000147  0.006214 -0.015541  0.000252 -0.006581  0.017669
                                -0.000459  0.000000  0.000007  0.000002  0.000000 -0.000007  0.000000  0.000002 -0.000009 -0.000031
                                -0.000000  0.000000 -0.000001  0.000005 -0.000031  0.000914 -0.000869  0.003587  0.009208  0.035374
                                -0.466084 -0.001581 -0.001554  0.000613  0.005527  0.017923  0.028296  0.012628  0.143005  0.000290
                                -0.000168  0.001011  0.000007  0.003541  0.000021  0.008078  0.000056  0.000085  0.000000 -0.000076
                                -0.000004 -0.000362 -0.000000

                                   1 2px     1 2px     1 2px     1 2px     1 2px     1 2px     1 2px     1 2px     1 2px     1 2px
                                   1 2px     1 2px     1 2px     1 2px     1 2px     1 2px     1 2px     1 2px     1 2px     1 2px
                                   1 2px     1 2px     1 2px     1 2px     1 2px     1 2px     1 2px     1 2px     1 2px     1 2px
                                   1 3d1+    1 3d1+    1 3d1+    1 3d1+    1 3d1+    1 3d1+    1 3d1+    1 3d1+    1 3d1+    1 3d1+
                                   1 3d1+    1 3d1+    1 3d1+    1 3d1+    1 3d1+    1 3d1+    1 3d1+    1 3d1+    1 3d1+    1 3d1+
                                   1 3d1+    1 3d1+    1 4f1+    1 4f3+    1 4f1+    1 4f3+    1 4f1+    1 4f3+    1 4f1+    1 4f3+
                                   1 4f1+    1 4f3+    1 4f1+    1 4f3+    1 4f1+    1 4f3+    1 4f1+    1 4f3+    1 4f1+    1 4f3+
                                   1 4f1+    1 4f3+    1 4f1+    1 4f3+    1 4f1+    1 4f3+    1 4f1+    1 4f3+    1 4f1+    1 4f3+
                                   1 5g1+    1 5g3+    1 5g1+    1 5g3+    1 5g1+    1 5g3+    1 5g1+    1 5g3+    1 5g1+    1 5g3+
                                   1 5g1+    1 5g3+    1 5g1+    1 5g3+    1 5g1+    1 5g3+    1 5g1+    1 5g3+    1 6h1+    1 6h3+
                                   1 6h5+    1 6h1+    1 6h3+    1 6h5+    1 6h1+    1 6h3+    1 6h5+    2 2px     2 2px     2 2px
                                   2 2px     2 2px     2 2px     2 2px     2 2px     2 3d1+    2 3d1+    2 3d1+    2 3d1+    2 4f1+
                                   2 4f3+    2 4f1+    2 4f3+

   1.2   2    -0.8954  -13.2965 -0.000000  0.000000 -0.000001  0.000002 -0.000003  0.000004 -0.000008  0.000022 -0.000094  0.000916
                                 0.010382  0.012942 -0.104694  0.095373 -0.181528 -0.335011 -0.066255 -0.006031 -0.001788 -0.003793
                                -0.014756  0.027605  0.181260 -0.144505 -0.351322  0.001697  0.005506 -0.004393 -0.000462  0.000083
                                -0.000000  0.000001 -0.000002  0.000011 -0.000206 -0.001740  0.001761  0.002084 -0.004444 -0.003374
                                 0.000484  0.003180 -0.003830  0.003376 -0.021407  0.026771  0.004253 -0.002273  0.003143 -0.001154
                                 0.000502 -0.000146 -0.000002 -0.000002  0.000019  0.000013 -0.000332 -0.000180 -0.007013 -0.002846
                                -0.014435 -0.004305 -0.014601 -0.003647 -0.014449 -0.001581  0.000655 -0.000598  0.004569 -0.000719
                                 0.012056 -0.002079  0.010551 -0.001803 -0.001636  0.000037  0.001148 -0.000303 -0.000279  0.000061
                                 0.000045 -0.000010 -0.000278 -0.000026  0.000600 -0.000140 -0.002812 -0.000084 -0.002987 -0.000295
                                 0.003010 -0.000312  0.002890 -0.000109  0.001262 -0.000014 -0.000339  0.000001  0.000048 -0.000108
                                -0.000054  0.000314 -0.000315 -0.000091 -0.001885 -0.000279  0.000561 -0.002301 -0.019834 -0.066635
                                -0.100379 -0.086697 -0.006045 -0.001885  0.000622  0.007018  0.021389  0.019038  0.000446 -0.004347
                                -0.000007 -0.003718  0.000027

   2.2   2    -0.4411  -11.2390 -0.000000  0.000000 -0.000000  0.000001 -0.000002  0.000002 -0.000005  0.000013 -0.000054  0.000513
                                 0.005834  0.007467 -0.017013  0.050511 -0.011580 -0.115802 -0.180421 -0.029242  0.035788 -0.002124
                                -0.008315 -0.005605  0.043565 -0.078453 -0.159306 -0.017810 -0.056585  0.043998  0.004993 -0.000925
                                -0.000000  0.000000 -0.000002  0.000009 -0.000143 -0.001207  0.010981 -0.017478  0.011091  0.102636
                                 0.000322  0.002548 -0.008253 -0.004415  0.089370 -0.042052  0.007909  0.031411 -0.018366  0.006999
                                -0.003093  0.000914  0.000010 -0.000000 -0.000081  0.000002  0.001270 -0.000020  0.023391 -0.000349
                                 0.042233 -0.000546  0.047984 -0.000256  0.052987  0.000175  0.001728  0.000019 -0.009059 -0.000143
                                -0.011869 -0.000460 -0.033578 -0.000237  0.018590  0.000013 -0.007518 -0.000000  0.002241  0.000002
                                -0.000043  0.000003  0.000532  0.000063 -0.000855  0.000069  0.006657  0.000028  0.005994 -0.000079
                                 0.001443  0.000323 -0.012975  0.000723 -0.001333  0.000406  0.001865  0.000067  0.000076  0.000078
                                -0.000012 -0.000104 -0.000058 -0.000005  0.003488 -0.000061  0.000263  0.009357  0.081729  0.272485
                                 0.416128  0.408364  0.023249  0.006387 -0.002538 -0.009295 -0.031517 -0.053820 -0.000514  0.006671
                                -0.000039  0.006123  0.000010

   3.2   +    -0.3548  -15.9490  0.000000 -0.000000  0.000000 -0.000000  0.000000 -0.000000  0.000000 -0.000000 -0.000000  0.000053
                                 0.001522  0.001671  0.006561  0.008938  0.004761 -0.034049  0.101931 -0.019203  0.099388 -0.000405
                                -0.002256 -0.005740 -0.006555 -0.005461 -0.004612 -0.018577 -0.070078  0.048473  0.005102 -0.000941
                                -0.000000  0.000000 -0.000000  0.000001 -0.000021 -0.000279  0.003520 -0.005373  0.004433  0.031027
                                 0.000056  0.000736 -0.002748 -0.001826  0.020687  0.137993 -0.032624  0.077225 -0.018373  0.007579
                                -0.003429  0.001028 -0.000129 -0.000048  0.001033  0.000386 -0.014913 -0.005580 -0.243851 -0.091525
                                -0.353905 -0.134367 -0.346422 -0.131185 -0.207207 -0.073705 -0.059642 -0.021657 -0.028580 -0.008600
                                 0.035766  0.001785 -0.024455 -0.019786  0.029130  0.011712 -0.006344 -0.007237  0.002765  0.002665
                                -0.000130 -0.000025 -0.000038 -0.000031 -0.001209 -0.000169  0.000161 -0.000284 -0.006440 -0.000313
                                 0.008525  0.000373  0.015312  0.000685 -0.006102  0.000357  0.006659  0.000115 -0.000180  0.000156
                                 0.000038 -0.000297  0.000380 -0.000101 -0.002593  0.000172 -0.000119  0.001232  0.011397  0.030126
                                 0.057834 -0.031570 -0.057542 -0.000784 -0.000354  0.004821  0.001098  0.042585  0.000207 -0.003344
                                -0.000083  0.004826 -0.000484

   4.2   +    -0.3473  -16.0048 -0.000000  0.000000 -0.000000  0.000000 -0.000000  0.000000 -0.000001  0.000003 -0.000011  0.000085
                                 0.000485  0.000890  0.001736  0.001788 -0.001654 -0.014260  0.040771  0.000422  0.038022 -0.000256
                                -0.000670 -0.003118  0.004567 -0.008971 -0.012619 -0.007018 -0.025251  0.018255  0.001932 -0.000355
                                -0.000000  0.000000 -0.000000  0.000001 -0.000010 -0.000136  0.001320 -0.001748  0.001264  0.010746
                                 0.000025  0.000358 -0.001128 -0.000812  0.006500  0.050428 -0.012350  0.028320 -0.006842  0.002819
                                -0.001278  0.000384 -0.000047  0.000129  0.000380 -0.001034 -0.005501  0.014989 -0.090127  0.246241
                                -0.130727  0.361102 -0.128401  0.353720 -0.077252  0.199902 -0.021988  0.058226 -0.010583  0.023493
                                 0.012302 -0.001759 -0.010558  0.057421  0.010604 -0.030686 -0.002626  0.020244  0.001078 -0.007281
                                -0.000039  0.000057 -0.000006  0.000076 -0.000364  0.000429  0.000125  0.000784 -0.002276  0.000635
                                 0.003202  0.000012  0.005496 -0.000060 -0.002239  0.000115  0.002449 -0.000001  0.000097 -0.000450
                                -0.000263  0.000018 -0.000105 -0.000064 -0.000898  0.000272 -0.000007  0.000439  0.004074  0.010653
                                 0.020627 -0.011303 -0.020772 -0.000308 -0.000126  0.001911  0.000779  0.015883  0.000084 -0.001354
                                 0.000343  0.001687  0.000758

   5.2   0    -0.0215   -3.6349 -0.000000  0.000000 -0.000000  0.000000 -0.000000  0.000001 -0.000001  0.000004 -0.000015  0.000152
                                 0.001784  0.002503 -0.012434  0.014816 -0.026227 -0.062812 -0.028532  0.069624  0.062177 -0.000638
                                -0.002616  0.000287  0.032720 -0.032987 -0.086031  0.331147  0.302699  0.120097  0.117609  0.020439
                                 0.000000 -0.000000  0.000001 -0.000007  0.000128  0.001129 -0.004266  0.005113 -0.001730 -0.029322
                                -0.000299 -0.002190  0.004271 -0.001027 -0.022322 -0.028526 -0.027280 -0.097419 -0.046760 -0.047447
                                -0.022843 -0.003912  0.000001 -0.000002 -0.000011  0.000015  0.000149 -0.000211  0.002168 -0.003311
                                 0.002432 -0.004472  0.002333 -0.004171  0.001024 -0.002182  0.000908 -0.000974  0.001283 -0.000858
                                 0.000781  0.002286 -0.003209  0.006420 -0.035199  0.031300 -0.021183  0.029849 -0.018827  0.045940
                                 0.000012 -0.000001 -0.000062  0.000004  0.000132 -0.000010 -0.000493  0.000118 -0.000216 -0.000073
                                -0.000178  0.000093 -0.001576 -0.000886 -0.003645 -0.000351 -0.000134 -0.007801 -0.000012  0.000003
                                 0.000004 -0.000007  0.000023  0.000039 -0.000350  0.000042  0.000137  0.000008  0.000092 -0.000007
                                -0.000409  0.016810  0.137656 -0.000055 -0.000003  0.002028  0.005885  0.006900  0.000127 -0.000880
                                 0.000072 -0.001829 -0.000150

   6.2   0     0.0048   -1.2399  0.000000 -0.000000  0.000000 -0.000001  0.000002 -0.000002  0.000004 -0.000012  0.000051 -0.000462
                                -0.004997 -0.006914 -0.057231 -0.057150 -0.182317 -0.144831  0.159287 -0.293881  1.097450  0.001854
                                 0.007162  0.041515  0.074721  0.060218  0.142279 -3.035615 -2.581470  3.783776  2.298073 -1.950892
                                -0.000000  0.000000 -0.000000  0.000001 -0.000026 -0.000251 -0.000229  0.001441 -0.002426 -0.015063
                                 0.000064  0.000467 -0.000327  0.000850 -0.007142 -0.011162 -0.026293  0.018989 -0.054684  0.029875
                                -0.064248  0.168203  0.000000 -0.000001 -0.000002  0.000004  0.000026 -0.000063  0.000385 -0.001062
                                 0.000464 -0.001641  0.000435 -0.001479 -0.000298 -0.000168  0.000142 -0.000193  0.000180  0.000024
                                -0.000258 -0.000624 -0.007942  0.006367  0.006290  0.000294 -0.016359  0.031637  0.017398 -0.029880
                                -0.000001  0.000001 -0.000000 -0.000003 -0.000015  0.000010 -0.000004  0.000011 -0.000517  0.000054
                                 0.000386 -0.000158 -0.003153  0.000078  0.001697 -0.001079  0.001184 -0.001090 -0.000006  0.000001
                                 0.000001  0.000002  0.000008  0.000014 -0.000151  0.000016  0.000049  0.000031  0.000262  0.001066
                                 0.001071  0.018966 -0.004856  0.000052 -0.000008  0.000803  0.001552 -0.001338  0.000041 -0.000358
                                 0.000027  0.000031 -0.000056

                                   1 2py     1 2py     1 2py     1 2py     1 2py     1 2py     1 2py     1 2py     1 2py     1 2py
                                   1 2py     1 2py     1 2py     1 2py     1 2py     1 2py     1 2py     1 2py     1 2py     1 2py
                                   1 2py     1 2py     1 2py     1 2py     1 2py     1 2py     1 2py     1 2py     1 2py     1 2py
                                   1 3d1-    1 3d1-    1 3d1-    1 3d1-    1 3d1-    1 3d1-    1 3d1-    1 3d1-    1 3d1-    1 3d1-
                                   1 3d1-    1 3d1-    1 3d1-    1 3d1-    1 3d1-    1 3d1-    1 3d1-    1 3d1-    1 3d1-    1 3d1-
                                   1 3d1-    1 3d1-    1 4f1-    1 4f3-    1 4f1-    1 4f3-    1 4f1-    1 4f3-    1 4f1-    1 4f3-
                                   1 4f1-    1 4f3-    1 4f1-    1 4f3-    1 4f1-    1 4f3-    1 4f1-    1 4f3-    1 4f1-    1 4f3-
                                   1 4f1-    1 4f3-    1 4f1-    1 4f3-    1 4f1-    1 4f3-    1 4f1-    1 4f3-    1 4f1-    1 4f3-
                                   1 5g1-    1 5g3-    1 5g1-    1 5g3-    1 5g1-    1 5g3-    1 5g1-    1 5g3-    1 5g1-    1 5g3-
                                   1 5g1-    1 5g3-    1 5g1-    1 5g3-    1 5g1-    1 5g3-    1 5g1-    1 5g3-    1 6h1-    1 6h3-
                                   1 6h5-    1 6h1-    1 6h3-    1 6h5-    1 6h1-    1 6h3-    1 6h5-    2 2py     2 2py     2 2py
                                   2 2py     2 2py     2 2py     2 2py     2 2py     2 3d1-    2 3d1-    2 3d1-    2 3d1-    2 4f1-
                                   2 4f3-    2 4f1-    2 4f3-

   1.3   2    -0.8940  -13.2922  0.000000 -0.000000  0.000001 -0.000002  0.000003 -0.000003  0.000008 -0.000022  0.000093 -0.000902
                                -0.010200 -0.012704  0.105058 -0.095388  0.181291  0.335181  0.066732  0.006073  0.001881  0.003731
                                 0.014488 -0.028107 -0.181002  0.144137  0.351073 -0.001713 -0.005571  0.004435  0.000467 -0.000084
                                 0.000000 -0.000001  0.000002 -0.000011  0.000210  0.001791 -0.001803 -0.002087  0.004402  0.003472
                                -0.000498 -0.003257  0.003905 -0.003365  0.021428 -0.026575 -0.004310  0.002338 -0.003162  0.001159
                                -0.000505  0.000147  0.000002 -0.000002 -0.000018  0.000013  0.000314 -0.000177  0.006762 -0.002768
                                 0.014039 -0.004179  0.014299 -0.003273  0.014350 -0.001298 -0.000756 -0.000574 -0.004640 -0.000780
                                -0.011958 -0.002159 -0.010525 -0.001762  0.001647 -0.000000 -0.001143 -0.000284  0.000278  0.000055
                                -0.000048 -0.000010  0.000272 -0.000024 -0.000597 -0.000135  0.002811 -0.000063  0.003010 -0.000278
                                -0.002976 -0.000307 -0.002856 -0.000101 -0.001272 -0.000012  0.000347  0.000001 -0.000067 -0.000102
                                 0.000050 -0.000360 -0.000315  0.000067  0.001878 -0.000272 -0.000560  0.002308  0.019888  0.066844
                                 0.100644  0.086662  0.005990  0.001894 -0.000624 -0.007024 -0.021369 -0.018966 -0.000446  0.004345
                                -0.000000  0.003711  0.000025

   2.3   2    -0.4406  -11.2343 -0.000000  0.000000 -0.000000  0.000001 -0.000002  0.000002 -0.000004  0.000013 -0.000054  0.000511
                                 0.005817  0.007449 -0.017082  0.050639 -0.011554 -0.116110 -0.180396 -0.029374  0.035975 -0.002116
                                -0.008296 -0.005522  0.043493 -0.078479 -0.159495 -0.017856 -0.056749  0.044114  0.005006 -0.000928
                                -0.000000  0.000000 -0.000002  0.000008 -0.000129 -0.001100  0.010898 -0.017456  0.011112  0.102652
                                 0.000288  0.002395 -0.008113 -0.004458  0.089280 -0.041770  0.007885  0.031574 -0.018410  0.007018
                                -0.003101  0.000916  0.000010  0.000000 -0.000079 -0.000001  0.001230  0.000017  0.022794  0.000293
                                 0.041366  0.000463  0.047082  0.000076  0.052440 -0.000307  0.001501 -0.000027 -0.009166  0.000164
                                -0.011751  0.000477 -0.033662  0.000218  0.018669  0.000018 -0.007548 -0.000011  0.002251  0.000003
                                -0.000047 -0.000001  0.000513 -0.000066 -0.000869 -0.000068  0.006649 -0.000008  0.005960  0.000103
                                 0.001451 -0.000322 -0.012956 -0.000736 -0.001336 -0.000402  0.001879 -0.000065  0.000057 -0.000064
                                -0.000011 -0.000107  0.000070  0.000003  0.003489  0.000081  0.000262  0.009360  0.081756  0.272564
                                 0.416248  0.408391  0.023138  0.006386 -0.002539 -0.009275 -0.031479 -0.053709 -0.000513  0.006661
                                 0.000055  0.006127  0.000010

   3.3   +    -0.3553  -15.9607  0.000000 -0.000000  0.000000 -0.000000  0.000000 -0.000000  0.000000 -0.000001  0.000001  0.000038
                                 0.001327  0.001434  0.005961  0.008813  0.004693 -0.032999  0.098074 -0.019328  0.095553 -0.000336
                                -0.001985 -0.005063 -0.006856 -0.004343 -0.003411 -0.017880 -0.067538  0.046651  0.004911 -0.000906
                                 0.000000  0.000000 -0.000000  0.000001 -0.000020 -0.000257  0.003371 -0.005173  0.004304  0.029795
[...]
                                -0.000000  0.000004 -0.000002 -0.000003  0.000017 -0.000001 -0.000019  0.000011  0.000083  0.000528
                                 0.000561  0.001783 -0.069494  0.000053 -0.000002 -0.000153 -0.000958 -0.000013 -0.000017  0.000081
                                -0.000004  0.000321 -0.000003

   6.2   0     0.0114   -1.0504 -0.000000  0.000000 -0.000000  0.000000 -0.000001  0.000001 -0.000002  0.000004 -0.000018  0.000166
                                 0.001806  0.002495  0.017556  0.019904  0.055585  0.036536 -0.046077  0.094051 -0.316352 -0.000668
                                -0.002591 -0.013540 -0.021345 -0.022251 -0.051946  1.089773  0.834259 -1.195753 -0.919104  0.508941
                                -0.000001  0.000004 -0.000016  0.000088 -0.001625 -0.014796  0.030575 -0.011828 -0.035636 -0.034800
                                 0.003881  0.028235 -0.042504  0.026268  0.029096  0.099644 -0.184515  0.341731 -0.470462  0.656981
                                -1.118128  1.597802  0.000000  0.000000 -0.000001 -0.000001  0.000024  0.000010  0.000439  0.000145
                                 0.000839  0.000205  0.000786  0.000199 -0.000445  0.000101 -0.000009  0.000037 -0.000234  0.000028
                                 0.000336 -0.000111  0.004221 -0.000189 -0.009376 -0.000661  0.012661 -0.000397 -0.022841 -0.001062
                                -0.000006  0.000000  0.000024  0.000000 -0.000068  0.000001  0.000168 -0.000000 -0.000515  0.000008
                                 0.000162  0.000004  0.001091  0.000052 -0.001451  0.000077  0.000284  0.000268 -0.000002 -0.000000
                                 0.000000  0.000012 -0.000001 -0.000001 -0.000054 -0.000001 -0.000004 -0.000027 -0.000224 -0.000865
                                -0.001105 -0.005837  0.006958 -0.000036  0.000007  0.000073 -0.000909  0.002184 -0.000009 -0.000063
                                -0.000000  0.000741 -0.000001

                                   1 2py     1 2py     1 2py     1 2py     1 2py     1 2py     1 2py     1 2py     1 2py     1 2py
                                   1 2py     1 2py     1 2py     1 2py     1 2py     1 2py     1 2py     1 2py     1 2py     1 2py
                                   1 2py     1 2py     1 2py     1 2py     1 2py     1 2py     1 2py     1 2py     1 2py     1 2py
                                   1 3d1-    1 3d1-    1 3d1-    1 3d1-    1 3d1-    1 3d1-    1 3d1-    1 3d1-    1 3d1-    1 3d1-
                                   1 3d1-    1 3d1-    1 3d1-    1 3d1-    1 3d1-    1 3d1-    1 3d1-    1 3d1-    1 3d1-    1 3d1-
                                   1 3d1-    1 3d1-    1 4f1-    1 4f3-    1 4f1-    1 4f3-    1 4f1-    1 4f3-    1 4f1-    1 4f3-
                                   1 4f1-    1 4f3-    1 4f1-    1 4f3-    1 4f1-    1 4f3-    1 4f1-    1 4f3-    1 4f1-    1 4f3-
                                   1 4f1-    1 4f3-    1 4f1-    1 4f3-    1 4f1-    1 4f3-    1 4f1-    1 4f3-    1 4f1-    1 4f3-
                                   1 5g1-    1 5g3-    1 5g1-    1 5g3-    1 5g1-    1 5g3-    1 5g1-    1 5g3-    1 5g1-    1 5g3-
                                   1 5g1-    1 5g3-    1 5g1-    1 5g3-    1 5g1-    1 5g3-    1 5g1-    1 5g3-    1 6h1-    1 6h3-
                                   1 6h5-    1 6h1-    1 6h3-    1 6h5-    1 6h1-    1 6h3-    1 6h5-    2 2py     2 2py     2 2py
                                   2 2py     2 2py     2 2py     2 2py     2 2py     2 3d1-    2 3d1-    2 3d1-    2 3d1-    2 4f1-
                                   2 4f3-    2 4f1-    2 4f3-

   1.3   2    -1.0897  -13.4854  0.000000 -0.000000  0.000000 -0.000002  0.000002 -0.000003  0.000006 -0.000016  0.000068 -0.000640
                                -0.007351 -0.010312  0.099544 -0.081816  0.181431  0.333951  0.053413  0.004259  0.004400  0.002638
                                 0.010837 -0.025546 -0.187362  0.144874  0.340224 -0.001985 -0.006872  0.005403  0.000533 -0.000094
                                 0.000000 -0.000001  0.000003 -0.000014  0.000256  0.002330 -0.003204 -0.001878  0.005275  0.002136
                                -0.000612 -0.004438  0.005906 -0.003734  0.023327 -0.031172 -0.005684  0.003742 -0.003690  0.001314
                                -0.000565  0.000163  0.000002 -0.000001 -0.000018  0.000007  0.000305 -0.000108  0.006257 -0.001795
                                 0.013386 -0.003033  0.014240 -0.003230  0.014600 -0.003277 -0.000695 -0.000267 -0.005133  0.000268
                                -0.014112 -0.002777 -0.012456 -0.003195  0.002006 -0.000374 -0.001218 -0.000572  0.000273  0.000071
                                -0.000067 -0.000035  0.000272 -0.000062 -0.000796 -0.000242  0.003272 -0.000405  0.003116 -0.000584
                                -0.003034 -0.000370 -0.003228 -0.000126 -0.001519 -0.000027  0.000515  0.000024  0.000014 -0.000043
                                 0.000005 -0.000125 -0.000181 -0.000066  0.002071 -0.000518 -0.000601  0.002682  0.022546  0.077568
                                 0.121561  0.105762  0.005440  0.002359 -0.000696 -0.007672 -0.021905 -0.020643 -0.000455  0.004659
                                -0.000025  0.003819 -0.000232

   2.3   2    -0.5996  -11.3997 -0.000000  0.000000 -0.000000  0.000001 -0.000001  0.000002 -0.000004  0.000011 -0.000045  0.000419
                                 0.004751  0.006747 -0.017692  0.053731 -0.008922 -0.130980 -0.194603 -0.030647  0.046958 -0.001718
                                -0.006968 -0.006275  0.050268 -0.090499 -0.180282 -0.018697 -0.062770  0.047174  0.005146 -0.000939
                                 0.000000 -0.000000  0.000001 -0.000006  0.000120  0.001031  0.005239 -0.014748  0.016564  0.091683
                                -0.000288 -0.001817 -0.000912 -0.006113  0.079687 -0.057577  0.000075  0.035605 -0.018957  0.007034
                                -0.003064  0.000894  0.000008  0.000000 -0.000068 -0.000001  0.001069  0.000017  0.019565  0.000267
                                 0.037348  0.000414  0.041983  0.000361  0.049642  0.000289  0.000377  0.000059 -0.009719  0.000015
                                -0.010964  0.000602 -0.040116  0.000742  0.022279  0.000173 -0.008130  0.000115  0.002453 -0.000009
                                -0.000037 -0.000023  0.000599 -0.000043 -0.000861 -0.000125  0.007037 -0.000204  0.006308 -0.000300
                                 0.002200 -0.000252 -0.014059 -0.000372 -0.001288 -0.000292  0.002327 -0.000090  0.000090  0.000010
                                 0.000004 -0.000188  0.000043  0.000040  0.003760  0.000051  0.000297  0.009257  0.079080  0.264271
                                 0.422397  0.437355  0.012313  0.006163 -0.002424 -0.009640 -0.034256 -0.059874 -0.000522  0.006985
                                -0.000012  0.007292 -0.000066

   3.3   +    -0.4810  -16.0342  0.000000 -0.000000  0.000000 -0.000000  0.000000 -0.000000  0.000000 -0.000000  0.000001 -0.000011
                                -0.000093  0.000049 -0.003245 -0.004252 -0.004750  0.010712 -0.032203  0.015635 -0.032147  0.000043
                                 0.000058  0.001415  0.009358 -0.006865 -0.008509  0.006329  0.025018 -0.016173 -0.001696  0.000309
                                -0.000000  0.000000 -0.000000  0.000001 -0.000008 -0.000038 -0.001499  0.003557 -0.003355 -0.018278
                                 0.000018  0.000008  0.000794 -0.000275 -0.014350 -0.057207  0.010643 -0.029346  0.006629 -0.002697
                                 0.001195 -0.000352  0.000050 -0.000133 -0.000400  0.001071  0.005745 -0.015424  0.089134 -0.240556
                                 0.131420 -0.358085  0.132199 -0.358683  0.081918 -0.208249  0.020497 -0.053198  0.010057 -0.021505
                                -0.012616 -0.002671  0.008563 -0.060384 -0.011603  0.029963  0.002121 -0.020360 -0.001013  0.007011
                                 0.000055 -0.000119  0.000011 -0.000186  0.000515 -0.000786 -0.000054 -0.001410  0.002581 -0.001188
                                -0.003028  0.000056 -0.006253  0.000437  0.002269  0.000237 -0.002479  0.000114  0.000134  0.000232
                                 0.000022  0.000245  0.000284  0.000098  0.001124 -0.000183  0.000154 -0.000369 -0.003403 -0.008221
                                -0.018051  0.015708  0.023151  0.000379  0.000105 -0.001767  0.000251 -0.015957 -0.000078  0.001187
                                -0.000322 -0.002091 -0.000553

   4.3   +    -0.4737  -15.8597 -0.000000  0.000000 -0.000000  0.000000 -0.000000  0.000000 -0.000001  0.000002 -0.000010  0.000092
                                 0.001022  0.001426  0.005289  0.005965  0.002198 -0.037769  0.112346 -0.011337  0.104772 -0.000375
                                -0.001474 -0.005715 -0.000037 -0.010976 -0.010715 -0.017986 -0.069622  0.048078  0.004881 -0.000886
                                 0.000000 -0.000000  0.000000 -0.000001  0.000009 -0.000026  0.004108 -0.008932  0.007945  0.047032
                                -0.000016  0.000243 -0.002461  0.000613  0.035117  0.152542 -0.029680  0.077594 -0.017949  0.007160
                                -0.003197  0.000944 -0.000131 -0.000050  0.001053  0.000400 -0.015137 -0.005769 -0.235173 -0.090071
                                -0.347746 -0.134377 -0.350379 -0.134823 -0.220534 -0.079525 -0.053580 -0.019773 -0.025041 -0.007608
                                 0.029252 -0.003122 -0.028413 -0.025218  0.029023  0.010452 -0.006675 -0.008188  0.002756  0.002664
                                -0.000136 -0.000044 -0.000033 -0.000068 -0.001221 -0.000282  0.000146 -0.000540 -0.006881 -0.000579
                                 0.008341 -0.000306  0.016695 -0.000250 -0.005936 -0.000212  0.006704 -0.000072 -0.000193 -0.000082
                                -0.000047 -0.000366 -0.000269 -0.000131 -0.002983 -0.000278 -0.000094  0.000914  0.008481  0.019687
                                 0.044730 -0.044347 -0.061280 -0.001104 -0.000261  0.005153  0.000404  0.043631  0.000231 -0.003501
                                -0.000153  0.005333 -0.000126

   5.3   0     0.0051   -1.1285  0.000000 -0.000000  0.000000 -0.000001  0.000001 -0.000002  0.000004 -0.000012  0.000048 -0.000436
                                -0.004770 -0.006612 -0.041790 -0.051994 -0.137691 -0.091937  0.145748 -0.260691  0.877716  0.001762
                                 0.006858  0.033718  0.047958  0.061711  0.147522 -2.929040 -2.257782  3.152145  2.406517 -1.998233
                                -0.000000  0.000000 -0.000001  0.000008 -0.000147 -0.001345  0.002941 -0.001454 -0.002927 -0.001347
                                 0.000352  0.002570 -0.003945  0.002421  0.004572  0.011162 -0.018222  0.072074 -0.038711  0.067898
                                -0.086311  0.170350 -0.000000 -0.000000  0.000002  0.000004 -0.000023 -0.000051 -0.000292 -0.000781
                                -0.000249 -0.001114 -0.000265 -0.001088 -0.000428 -0.000541 -0.000165 -0.000196 -0.000296 -0.000136
                                 0.000254  0.000571 -0.001210  0.001150  0.013009  0.003261  0.007544  0.003086 -0.006049  0.004532
                                -0.000005 -0.000001  0.000020 -0.000000 -0.000059 -0.000005  0.000161 -0.000001 -0.000247 -0.000025
                                 0.000378  0.000008 -0.000963 -0.000126  0.001686 -0.000055  0.003535 -0.000554 -0.000000  0.000000
                                -0.000000  0.000004  0.000002 -0.000003  0.000016  0.000000 -0.000019  0.000011  0.000079  0.000515
                                 0.000536  0.001731 -0.069473  0.000053 -0.000002 -0.000157 -0.000965 -0.000021 -0.000017  0.000083
                                 0.000005  0.000322  0.000001

   6.3   0     0.0114   -1.0507 -0.000000  0.000000 -0.000000  0.000000 -0.000001  0.000001 -0.000002  0.000004 -0.000018  0.000167
                                 0.001816  0.002509  0.017684  0.020022  0.055980  0.036872 -0.046419  0.094634 -0.318761 -0.000672
                                -0.002606 -0.013630 -0.021519 -0.022365 -0.052222  1.097088  0.839853 -1.204230 -0.926236  0.512588
                                -0.000001  0.000004 -0.000016  0.000088 -0.001624 -0.014785  0.030553 -0.011824 -0.035605 -0.034744
                                 0.003878  0.028213 -0.042473  0.026249  0.029098  0.099577 -0.184329  0.341415 -0.470012  0.656568
                                -1.117047  1.596960  0.000000 -0.000000 -0.000001  0.000001  0.000024 -0.000011  0.000439 -0.000160
                                 0.000839 -0.000228  0.000786 -0.000222 -0.000443 -0.000114 -0.000009 -0.000041 -0.000235 -0.000029
                                 0.000335  0.000120  0.004231  0.000217 -0.009376  0.000706  0.012634  0.000482 -0.022794  0.001106
                                -0.000006 -0.000000  0.000024  0.000000 -0.000069 -0.000002  0.000167  0.000000 -0.000514 -0.000010
                                 0.000160 -0.000002  0.001090 -0.000062 -0.001453 -0.000068  0.000267 -0.000302 -0.000002  0.000000
                                 0.000000  0.000012  0.000001 -0.000001 -0.000054  0.000001 -0.000005 -0.000027 -0.000225 -0.000867
                                -0.001109 -0.005847  0.007088 -0.000036  0.000007  0.000071 -0.000913  0.002174 -0.000009 -0.000062
                                 0.000000  0.000741  0.000001

                                   1 3d2-    1 3d2-    1 3d2-    1 3d2-    1 3d2-    1 3d2-    1 3d2-    1 3d2-    1 3d2-    1 3d2-
                                   1 3d2-    1 3d2-    1 3d2-    1 3d2-    1 3d2-    1 3d2-    1 3d2-    1 3d2-    1 3d2-    1 3d2-
                                   1 3d2-    1 3d2-    1 4f2-    1 4f2-    1 4f2-    1 4f2-    1 4f2-    1 4f2-    1 4f2-    1 4f2-
                                   1 4f2-    1 4f2-    1 4f2-    1 4f2-    1 4f2-    1 4f2-    1 5g2-    1 5g4-    1 5g2-    1 5g4-
                                   1 5g2-    1 5g4-    1 5g2-    1 5g4-    1 5g2-    1 5g4-    1 5g2-    1 5g4-    1 5g2-    1 5g4-
                                   1 5g2-    1 5g4-    1 5g2-    1 5g4-    1 6h4-    1 6h2-    1 6h4-    1 6h2-    1 6h4-    1 6h2-
                                   2 3d2-    2 3d2-    2 3d2-    2 3d2-    2 4f2-    2 4f2-

   1.4   +    -0.4912  -16.1610 -0.000000  0.000000 -0.000001  0.000006 -0.000118 -0.001098  0.002949 -0.003670  0.000906  0.014201
                                 0.000280  0.001999 -0.003138  0.004749  0.016019  0.004277  0.001680  0.000609 -0.000036 -0.000030
                                 0.000027 -0.000008  0.000142 -0.001143  0.016463  0.256798  0.382287  0.383612  0.223263  0.056814
                                 0.023231 -0.001023  0.059247 -0.033470  0.020566 -0.007420  0.000107 -0.000001  0.000222 -0.000004
                                 0.000817 -0.000020  0.001424 -0.000032  0.002792 -0.000026 -0.000237 -0.000014 -0.001069 -0.000003
                                 0.000099  0.000000  0.000016  0.000001 -0.000001  0.000071 -0.000035  0.000161 -0.000085  0.001861
                                 0.002938  0.008235  0.003461  0.000203 -0.002261  0.000305

   2.4   0     0.0115   -1.0461  0.000001 -0.000004  0.000018 -0.000093  0.001730  0.015741 -0.032564  0.012688  0.037485  0.032997
                                -0.004129 -0.030034  0.045227 -0.027811 -0.030994 -0.095520  0.184509 -0.352109  0.481100 -0.671700
                                 1.150257 -1.629400  0.000000 -0.000000  0.000003  0.000088  0.000226  0.000196 -0.000186 -0.000035
                                -0.000129  0.000663 -0.001671  0.004874 -0.009155  0.017088 -0.000000  0.000000  0.000000 -0.000000
                                -0.000001  0.000000  0.000003  0.000000 -0.000015  0.000002  0.000062 -0.000000 -0.000036  0.000006
                                 0.000274 -0.000006 -0.000300  0.000016  0.000000  0.000000 -0.000000 -0.000000  0.000000  0.000002
                                -0.000045 -0.000067 -0.000279 -0.000001  0.000016  0.000060

   3.4   0     0.0329   -1.5189  0.000002 -0.000009  0.000038 -0.000203  0.003756  0.034171 -0.070013  0.025979  0.083451  0.084818
                                -0.008967 -0.065191  0.097849 -0.060546 -0.060700 -0.204913  0.426071 -0.797943  1.144173 -1.628176
                                 2.967195 -1.477774 -0.000000  0.000001 -0.000021 -0.000448 -0.000968 -0.000869  0.000525  0.000076
                                 0.000396 -0.002072  0.006614 -0.017898  0.032836 -0.076686  0.000002 -0.000000 -0.000008  0.000000
                                 0.000020 -0.000001 -0.000056 -0.000001  0.000186 -0.000009 -0.000431  0.000000  0.000950 -0.000029
                                -0.001118  0.000020  0.001497 -0.000080 -0.000000 -0.000000  0.000000 -0.000002 -0.000001  0.000001
                                 0.000132  0.000925 -0.000716  0.000018 -0.000040 -0.000067

 HOMO      7.1    -0.126659 =      -3.4466eV
 LUMO      8.1    -0.003407 =      -0.0927eV
 LUMO-HOMO         0.123252 =       3.3538eV

 No convergence



 **********************************************************************************************************************************
 DATASETS  * FILE   NREC   LENGTH (MB)   RECORD NAMES
              1      20       23.19       500      610      700      900      950      970     1000      129      960     1100
                                          VAR    BASINP    GEOM    SYMINP    ZMAT    AOBASIS   BASIS     P2S    ABASIS      S
                                         1400     1410     1420     1200     1210     1080     1600     1650     1700     1800
                                           T        V       ECP      H0       H01     AOSYM     SMH    MOLCAS    OPER     GRID

              2       6       10.55       700     1000      520     1800     2202     3202
                                         GEOM     BASIS   MCVARS    GRID      RKS      RHF

 PROGRAMS   *        TOTAL       RHF       RKS       INT
 CPU TIMES  *       574.15    200.01    218.17    155.63
 REAL TIME  *       631.27 SEC
 DISK USED  *        21.01 GB
 SF USED    *         0.31 MB
 GA USED    *         0.26 MB       (max)       0.26 MB       (current)
 **********************************************************************************************************************************
   -->
   <time start="18:50:27" end="18:54:03" cpu="200.03" system="15.36" real="215.51"/>
   <storage units="megabyte" memory="8001.84" sf="0.31" df="700.93" eaf="20311.52"
     ga="0.26"/>
  </jobstep><!--
 SETTING SCF            =      -123.77793139  AU
 SETTING _CC_NORM_MAX   =         2.00000000
  --><jobstep command="RCCSD(T)" commandset="CCSD">
   <!--


 PROGRAM * CCSD (Restricted open-shell coupled cluster)     Authors: C. Hampel, H.-J. Werner, 1991, M. Deegan, P.J. Knowles, 1992


 Convergence thresholds:  THRVAR = 1.00D-08  THRDEN = 1.00D-06

 CCSD(T)     terms to be evaluated (factor= 1.000)


 Number of closed-shell orbitals:   8 (   4   2   2   0 )
 Number of active  orbitals:        8 (   3   2   2   1 )
 Number of external orbitals:     499 ( 196 119 119  65 )

 Memory could be reduced to 771.69 Mwords without degradation in triples

 Number of N-1 electron functions:              24
 Number of N-2 electron functions:             276
 Number of singly external CSFs:              3707
 Number of doubly external CSFs:          13243967
 Total number of CSFs:                    13247674

 Molecular orbitals read from record     3202.2  Type=RHF/CANONICAL (state 1.4)

 ?Error: RHF not converged. This error exit can be avoided using the IGNORE_ERROR option on the ORBITAL directive
   --><error/><!--
  --></jobstep><!--
  -->
  <input>
  <!--
 --></job><!--
--></molpro>
