<?xml version="1.0"?>
<molpro xmlns="http://www.molpro.net/schema/molpro-output"
  xmlns:xsd="http://www.w3.org/1999/XMLSchema"
  xmlns:cml="http://www.xml-cml.org/schema"
  xmlns:stm="http://www.xml-cml.org/schema"
  xmlns:xhtml="http://www.w3.org/1999/xhtml">
 <!--

 Nodes     nprocs
 nid01063    11
 Number of processes for MPI-2 version of Molpro:   nprocs(total)=   12   nprocs(compute)=   11   nprocs(helper)=    1

 Using customized tuning parameters: mindgm=7; mindgv=16; mindgc=1; mindgr=1; noblas=0; minvec=7
 default implementation of scratch files=sf

 --><job>
  <!--

 Variables initialized (889), CPU time= 0.01 sec
 Commands  initialized (702), CPU time= 0.01 sec, 572 directives.
 Default parameters read. Elapsed time= 0.17 sec

 Checking input...
 Passed
1


                                         ***  PROGRAM SYSTEM MOLPRO  ***
                                       Copyright, TTI GmbH Stuttgart, 2015
                                    Version 2015.1 linked Dec 29 2018 15:55:43


 **********************************************************************************************************************************
 LABEL *   Calculation for all-electron GdO molecule, SCF and CCSD(T)
  64 bit mpp version                                                                     DATE: 19-Nov-22          TIME: 08:04:34
 **********************************************************************************************************************************

 SHA1:             19cd028119e0e09f93f0674bd8af7968d9b3eff6
 **********************************************************************************************************************************
  -->
  <!--

 THRESHOLDS:

 ZERO    =  1.00D-12  ONEINT  =  1.00D-12  TWOINT  =  1.00D-15  PREFAC  =  1.00D-14  LOCALI  =  1.00D-09  EORDER  =  1.00D-04
 ENERGY  =  0.00D+00  ETEST   =  0.00D+00  EDENS   =  0.00D+00  THRDEDEF=  1.00D-06  GRADIENT=  1.00D-02  STEP    =  1.00D-03
 ORBITAL =  1.00D-05  CIVEC   =  1.00D-05  COEFF   =  1.00D-04  PRINTCI =  5.00D-02  PUNCHCI =  9.90D+01  OPTGRAD =  3.00D-04
 OPTENERG=  1.00D-06  OPTSTEP =  3.00D-04  THRGRAD =  1.00D-10  COMPRESS=  1.00D-11  VARMIN  =  1.00D-07  VARMAX  =  1.00D-03
 THRDOUB =  0.00D+00  THRDIV  =  1.00D-05  THRRED  =  1.00D-07  THRPSP  =  1.00D+00  THRDC   =  1.00D-10  THRCS   =  1.00D-10
 THRNRM  =  1.00D-08  THREQ   =  0.00D+00  THRDE   =  1.00D+00  THRREF  =  1.00D-05  SPARFAC =  1.00D+00  THRDLP  =  1.00D-07
 THRDIA  =  1.00D-10  THRDLS  =  1.00D-07  THRGPS  =  0.00D+00  THRKEX  =  0.00D+00  THRDIS  =  2.00D-01  THRVAR  =  1.00D-10
 THRLOC  =  1.00D-06  THRGAP  =  1.00D-06  THRLOCT = -1.00D+00  THRGAPT = -1.00D+00  THRORB  =  1.00D-06  THRMLTP =  0.00D+00
 THRCPQCI=  1.00D-10  KEXTA   =  0.00D+00  THRCOARS=  0.00D+00  SYMTOL  =  1.00D-06  GRADTOL =  1.00D-06  THROVL  =  1.00D-08
 THRORTH =  1.00D-08  GRID    =  1.00D-06  GRIDMAX =  1.00D-03  DTMAX   =  0.00D+00  THROCCDE=  1.00D-01  THROCCDE=  1.00D-01



 THRESHOLDS:

 ZERO    =  1.00D-12  ONEINT  =  1.00D-12  TWOINT  =  1.00D-15  PREFAC  =  1.00D-14  LOCALI  =  1.00D-09  EORDER  =  1.00D-04
 ENERGY  =  0.00D+00  ETEST   =  0.00D+00  EDENS   =  0.00D+00  THRDEDEF=  1.00D-06  GRADIENT=  1.00D-02  STEP    =  1.00D-03
 ORBITAL =  1.00D-05  CIVEC   =  1.00D-05  COEFF   =  1.00D-04  PRINTCI =  5.00D-02  PUNCHCI =  9.90D+01  OPTGRAD =  3.00D-04
 OPTENERG=  1.00D-06  OPTSTEP =  3.00D-04  THRGRAD =  1.00D-10  COMPRESS=  1.00D-11  VARMIN  =  1.00D-07  VARMAX  =  1.00D-03
 THRDOUB =  0.00D+00  THRDIV  =  1.00D-05  THRRED  =  1.00D-07  THRPSP  =  1.00D+00  THRDC   =  1.00D-10  THRCS   =  1.00D-10
 THRNRM  =  1.00D-08  THREQ   =  0.00D+00  THRDE   =  1.00D+00  THRREF  =  1.00D-05  SPARFAC =  1.00D+00  THRDLP  =  1.00D-07
 THRDIA  =  1.00D-10  THRDLS  =  1.00D-07  THRGPS  =  0.00D+00  THRKEX  =  0.00D+00  THRDIS  =  2.00D-01  THRVAR  =  1.00D-10
 THRLOC  =  1.00D-06  THRGAP  =  1.00D-06  THRLOCT = -1.00D+00  THRGAPT = -1.00D+00  THRORB  =  1.00D-06  THRMLTP =  0.00D+00
 THRCPQCI=  1.00D-10  KEXTA   =  0.00D+00  THRCOARS=  0.00D+00  SYMTOL  =  1.00D-06  GRADTOL =  1.00D-06  THROVL  =  1.00D-15
 THRORTH =  1.00D-08  GRID    =  1.00D-06  GRIDMAX =  1.00D-03  DTMAX   =  0.00D+00  THROCCDE=  1.00D-01  THROCCDE=  1.00D-01


 SETTING DKROLL         =         1.00000000
 SETTING DKHO           =        10.00000000
 SETTING DKHP           =         4.00000000

 Variable memory set to 1000000000 words,  buffer space   230000 words

 SETTING BASIS          =    USERDEF
 SETTING GD_CCSD        =    -11268.01765000
 SETTING O_CCSD         =       -75.03694110
 SETTING NE             =        72.00000000
 SETTING SYMM           =         4.00000000
 SETTING SS             =         8.00000000
 SETTING A1             =        19.00000000
 SETTING B1             =         9.00000000
 SETTING B2             =         9.00000000
 SETTING A2             =         3.00000000
 ZUNIT=ANG


Geometry recognized as XYZ

 SETTING BASIS          =    USERDEF
  --><jobstep command="RKS-SCF" commandset="SCFPRO">
   <!--


 Recomputing integrals since basis changed


 Using spherical harmonics



 PROGRAM * SEWARD (Integral evaluation for generally contracted gaussian basis sets)     Author: Roland Lindh, 1990

 Geometry written to block  1 of record 700


 Point group  C2v


   --><cml:molecule>
    <cml:symmetry pointGroup="C2v"/>
    <cml:atomArray>
     <cml:atom id="a1" elementType="Gd" x3="0.0" y3="0.0" z3="0.0"/>
     <cml:atom id="a2" elementType="O" x3="0.0" y3="0.0" z3="2.6"/>
    </cml:atomArray>
    <cml:bondArray>
     <cml:bond atomRefs2="a1 a2"/>
    </cml:bondArray>
   </cml:molecule><!--

 ATOMIC COORDINATES

 NR  ATOM    CHARGE       X              Y              Z

   1  GD     64.00    0.000000000    0.000000000    0.000000000
   2  O       8.00    0.000000000    0.000000000    4.913287924

 Bond lengths in Bohr (Angstrom)

 1-2  4.913287924
     ( 2.600000000)

 NUCLEAR CHARGE:                   72
 NUMBER OF PRIMITIVE AOS:         583
 NUMBER OF SYMMETRY AOS:          468
 NUMBER OF CONTRACTIONS:          233   (  95A1  +  53B1  +  53B2  +  32A2  )
 NUMBER OF CORE ORBITALS:          24   (  12A1  +   5B1  +   5B2  +   2A2  )
 NUMBER OF VALENCE ORBITALS:       21   (   9A1  +   5B1  +   5B2  +   2A2  )


 NUCLEAR REPULSION ENERGY  104.20720461

 One-electron integrals computed with SEWARD

 10nd-order Douglas-Kroll-Hess method activated. McWeeny DKH parametrization is used.

 Computing Douglas-Kroll / X2C integrals

 AO integral compression algorithm  1   Integral accuracy      1.0D-15

     507.511 MB (compressed) written to integral file ( 49.5%)

     Node minimum: 4.719 MB, node maximum: 99.877 MB


 NUMBER OF SORTED TWO-ELECTRON INTEGRALS:    8655276.     BUFFER LENGTH:  32768
 NUMBER OF SEGMENTS:   1  SEGMENT LENGTH:    8655276      RECORD LENGTH: 524288

 Memory used in sort:       9.21 MW

 SORT1 READ   128063024. AND WROTE     4968041. INTEGRALS IN     15 RECORDS. CPU TIME:     1.82 SEC, REAL TIME:     1.94 SEC
 SORT2 READ    54711140. AND WROTE    95257899. INTEGRALS IN    198 RECORDS. CPU TIME:     0.28 SEC, REAL TIME:     0.46 SEC

 Node minimum:     8652161.  Node maximum:     8702004. integrals

 OPERATOR DM      FOR CENTER  0  COORDINATES:    0.000000    0.000000    0.000000

 EXTRA SYMMETRY OF AOS IN SYMMETRY 1:   1 1 1 1 1 1 1 1 1 1   1 1 1 1 1 1 1 1 1 2   1 2 1 2 1 2 1 2 1 2   1 2 1 2 1 2 1 2 1 3
                                        2 1 3 2 1 3 2 1 3 2   1 3 2 1 3 2 1 3 2 1   3 2 1 1 1 1 1 1 1 1   1 1 1 1 1 1 1 1 1 1
                                        1 1 1 1 2 1 2 1 2 1   2 1 2 1 2
 EXTRA SYMMETRY OF AOS IN SYMMETRY 2:   1 1 1 1 1 1 1 1 1 1   1 1 1 1 1 1 2 1 2 1   2 1 2 1 2 1 2 1 2 1   2 1 2 1 2 1 2 1 1 1
                                        1 1 1 1 1 1 1 1 1 1   2 1 2
 EXTRA SYMMETRY OF AOS IN SYMMETRY 3:   1 1 1 1 1 1 1 1 1 1   1 1 1 1 1 1 2 1 2 1   2 1 2 1 2 1 2 1 2 1   2 1 2 1 2 1 2 1 1 1
                                        1 1 1 1 1 1 1 1 1 1   2 1 2
 EXTRA SYMMETRY OF AOS IN SYMMETRY 4:   1 1 1 1 1 1 1 1 1 1   1 2 1 2 1 2 1 2 1 2   1 2 1 2 1 2 1 1 1 1   1 1

 Eigenvalues of metric

         1 0.403E-05 0.726E-04 0.105E-02 0.176E-02 0.230E-02 0.337E-02 0.729E-02 0.100E-01
         2 0.341E-02 0.455E-02 0.178E-01 0.187E-01 0.476E-01 0.521E-01 0.559E-01 0.595E-01
         3 0.341E-02 0.455E-02 0.178E-01 0.187E-01 0.476E-01 0.521E-01 0.559E-01 0.595E-01
         4 0.186E-01 0.187E-01 0.551E-01 0.559E-01 0.146E+00 0.152E+00 0.189E+00 0.352E+00


 **********************************************************************************************************************************
 DATASETS  * FILE   NREC   LENGTH (MB)   RECORD NAMES
              1      22       21.90       500      610      700      900      950      970     1000      129      960     1700
                                          VAR    BASINP    GEOM    SYMINP    ZMAT    AOBASIS   BASIS     P2S    ABASIS    OPER
                                         1101     1401     1411     1412     1650     1100     1400     1410     1200     1210
                                          SR      EKINR    POTR     PVPR    MOLCAS      S      EKIN      POT      H0       H01
                                         1080     1600
                                         AOSYM     SMH

 PROGRAMS   *        TOTAL       INT
 CPU TIMES  *        23.95     23.66
 REAL TIME  *        25.36 SEC
 DISK USED  *         1.21 GB
 GA USED    *         0.00 MB       (max)       0.00 MB       (current)
 **********************************************************************************************************************************

 Density functional group PBE0=PBEX+PBEC
 Functional: PBEX(Automatically generated (new) PBEX)                          Gradient terms: 1
 Functional: PBEC(Automatically generated (new) PBEC)                          Gradient terms: 1
 Use grid at  1800.2


 Exact exchange will be calculated, factor:  0.2500

 Functional: PBEX                      Factor:  0.7500
 Functional: PBEC                      Factor:  1.0000

 Generated new metagrid on record  1800.2 with target accuracy 1.0D-06 and 5140 points in CPU time    0.1
 Computed new grid on record 1800.1 in CPU time    0.1
  200851 words reserved for DFT integration

 PROGRAM * RKS-SCF (Restricted open shell Kohn-Sham)     Authors: W. Meyer, H.-J. Werner, P.J. Knowles, 1993

 NUMBER OF ELECTRONS:      40+   32-    SPACE SYMMETRY=4    SPIN SYMMETRY: Nonet
 CONVERGENCE THRESHOLDS:    1.00E-05 (Density)    1.44E-06 (Energy)
 MAX. NUMBER OF ITERATIONS:      200
 INTERPOLATION TYPE:            DIIS
 INTERPOLATION STEPS:              2 (START)      1 (STEP)
 LEVEL SHIFTS:                 -0.60 (CLOSED) -0.30 (OPEN)

 Number of closed-shell orbitals:   32 (  16   7   7   2 )
 Number of open-shell orbitals:      8 (   3   2   2   1 )


 Use fine grid record 1800.2 for energy threshold  1.0D-06
 Orbital guess generated from atomic densities. Full valence occupancy:   21  10  10   4

 Molecular orbital dump at record        2202.2

 ITERATION    DDIFF          GRAD             ENERGY        2-EL.EN.            DIPOLE MOMENTS         DIIS   ORB.
    1      0.000D+00      0.000D+00    -11340.91499076   9353.323925    0.00000    0.00000    5.40529    0    start
    2      0.000D+00      0.589D-01    -11301.77894919   7751.318890    0.00000    0.00000  -32.75481    1    diag,B
    3      0.148D+00      0.180D+00    -11345.11633969   8889.692270    0.00000    0.00000   -8.95334    2    diag,B
    4      0.146D+00      0.214D-01    -11345.87781229   8884.690261    0.00000    0.00000   -6.17292    3    diag,B
    5      0.826D-02      0.104D-01    -11345.93875692   8896.513590    0.00000    0.00000   -5.52551    4    diag,B
    6      0.331D-02      0.695D-02    -11345.99081812   8907.597198    0.00000    0.00000   -4.65702    5    diag,B
    7      0.284D-02      0.406D-02    -11346.01874367   8922.558582    0.00000    0.00000   -3.58534    6    fixocc
    8      0.465D-02      0.626D-03    -11346.02063974   8925.274930    0.00000    0.00000   -3.31697    7    diag,B
    9      0.210D-02      0.264D-03    -11346.02145330   8925.472266    0.00000    0.00000   -3.29640    8    diag,B
   10      0.896D-03      0.195D-03    -11346.02255638   8925.613819    0.00000    0.00000   -3.26760    9    orth
   11      0.929D-03      0.133D-03    -11346.02357438   8925.991471    0.00000    0.00000   -3.24974    9    diag,B
   12      0.728D-03      0.112D-03    -11346.02455244   8925.935408    0.00000    0.00000   -3.34141    9    diag,B
   13      0.142D-02      0.104D-03    -11346.02471199   8926.026916    0.00000    0.00000   -3.35172    9    diag,B
   14      0.193D-03      0.872D-04    -11346.02512673   8926.274073    0.00000    0.00000   -3.39474    9    diag,B
   15      0.529D-03      0.807D-04    -11346.02622735   8927.311516    0.00000    0.00000   -3.54455    9    diag,B
   16      0.183D-02      0.662D-04    -11346.02624014   8927.194813    0.00000    0.00000   -3.60648    9    diag,B
   17      0.150D-03      0.888D-04    -11346.02645531   8927.804000    0.00000    0.00000   -3.66128    9    diag,B
   18      0.987D-03      0.482D-04    -11346.02646308   8927.696290    0.00000    0.00000   -3.68917    9    diag,B
   19      0.175D-03      0.310D-04    -11346.02646952   8927.847240    0.00000    0.00000   -3.70040    9    diag,B
   20      0.216D-03      0.116D-04    -11346.02647255   8927.799698    0.00000    0.00000   -3.69515    9    orth
   21      0.994D-04      0.514D-05    -11346.02647315   8927.804165    0.00000    0.00000   -3.69705    9    diag,B
   22      0.229D-04      0.345D-05    -11346.02647292   8927.830363    0.00000    0.00000   -3.69626    9    diag,B
   23      0.583D-04      0.112D-04    -11346.02647358   8927.812003    0.00000    0.00000   -3.69608    9    diag,B
   24      0.273D-04      0.434D-05    -11346.02647369   8927.804025    0.00000    0.00000   -3.69631    9    diag,B
   25      0.120D-04      0.111D-05    -11346.02647370   8927.802174    0.00000    0.00000   -3.69648    9    diag,B
   26      0.641D-05      0.297D-06    -11346.02647369   8927.797313    0.00000    0.00000   -3.69674    0    orth

 Final alpha occupancy:  19   9   9   3
 Final beta  occupancy:  16   7   7   2

 !RKS STATE 1.4 Energy               -11346.0264736860
   --><property name="Energy" method="RKS" principal="true" stateSymmetry="4" stateNumber="1"
     value="-11346.026473686"/><!--
 Nuclear energy                       104.20720461
 One-electron energy               -15717.31356476
 Two-electron energy                 4463.89865651
 Density functional                  -196.81877005     PBEX=-257.30985987 PBEC=  -3.83637515
 Virial quotient                       -0.78800277
 !RKS STATE 1.4 Dipole moment           0.00000000     0.00000000    -3.69674131
 Dipole moment /Debye                   0.00000000     0.00000000    -9.39556378
   --><property name="Dipole moment" method="RKS" principal="true" stateSymmetry="4"
     stateNumber="1" value="0.0 0.0 -3.69674131039736"/><!--

 ELECTRON ORBITALS
 =================


   Orb  Occ    Energy  Couls-En    Coefficients

                                   1 1s      1 1s      1 1s      1 1s      1 1s      1 1s      1 1s      1 1s      1 1s      1 1s
                                   1 2pz     1 2pz     1 2pz     1 2pz     1 2pz     1 2pz     1 2pz     1 2pz     1 3d0     1 3d2+
                                   1 3d0     1 3d2+    1 3d0     1 3d2+    1 3d0     1 3d2+    1 3d0     1 3d2+    1 3d0     1 3d2+
                                   1 3d0     1 3d2+    1 4f0     1 4f2+    1 4f0     1 4f2+    1 4f0     1 4f2+    1 5g0     1 5g4+
                                   1 5g2+    1 5g0     1 5g4+    1 5g2+    1 5g0     1 5g4+    1 5g2+    1 5g0     1 5g4+    1 5g2+
                                   1 5g0     1 5g4+    1 5g2+    1 5g0     1 5g4+    1 5g2+    1 5g0     1 5g4+    1 5g2+    1 5g0
                                   1 5g4+    1 5g2+    2 1s      2 1s      2 1s      2 1s      2 1s      2 1s      2 1s      2 1s
                                   2 1s      2 1s      2 1s      2 1s      2 1s      2 2pz     2 2pz     2 2pz     2 2pz     2 2pz
                                   2 2pz     2 2pz     2 2pz     2 3d0     2 3d2+    2 3d0     2 3d2+    2 3d0     2 3d2+    2 3d0
                                   2 3d2+    2 4f0     2 4f2+    2 4f0     2 4f2+

   1.1   2 -1841.2044-4016.2612  1.000000  0.000018 -0.000060  0.000039 -0.000021 -0.000017 -0.002350 -0.005726  0.004098  0.000473
                                 0.000000  0.000000  0.000001  0.000007 -0.000016 -0.000012  0.000013 -0.000008 -0.000000 -0.000000
                                 0.000000  0.000000  0.000003 -0.000000  0.000008  0.000000 -0.000007  0.000000  0.000004 -0.000000
                                 0.000002  0.000000  0.000000  0.000000  0.000001 -0.000000  0.000004 -0.000000  0.000000  0.000000
                                 0.000000 -0.000000 -0.000000 -0.000000  0.000000  0.000000 -0.000000 -0.000001 -0.000000  0.000000
                                 0.000002  0.000000 -0.000000 -0.000004 -0.000000  0.000000  0.000005  0.000000 -0.000000 -0.000002
                                -0.000000  0.000000 -0.000000  0.000000 -0.000000  0.000000 -0.000000  0.000002  0.000006  0.000004
                                -0.000004  0.000000 -0.000030 -0.000006 -0.000005 -0.000000 -0.000002  0.000001  0.000000  0.000005
                                 0.000014  0.000002  0.000000 -0.000001 -0.000000  0.000000  0.000000 -0.000000  0.000000  0.000000
                                 0.000000  0.000001  0.000000 -0.000004 -0.000000

   2.1   2  -305.1280 -855.2885 -0.000018  0.999998  0.000214 -0.000348  0.000202  0.000157  0.023181  0.056611 -0.040665 -0.004520
                                 0.000037  0.000000 -0.000008 -0.000074  0.000172  0.000123 -0.000126  0.000077 -0.000003  0.000000
                                -0.000001 -0.000000 -0.000032  0.000000 -0.000078 -0.000000  0.000070 -0.000000 -0.000039 -0.000000
                                -0.000018  0.000000 -0.000002 -0.000000 -0.000006  0.000000 -0.000045  0.000000 -0.000001 -0.000000
                                -0.000000  0.000002  0.000000  0.000000 -0.000005 -0.000000  0.000000  0.000010  0.000000 -0.000000
                                -0.000021 -0.000000  0.000000  0.000040  0.000000 -0.000000 -0.000052 -0.000000  0.000000  0.000017
                                 0.000000 -0.000000  0.000000 -0.000000  0.000000 -0.000001  0.000003 -0.000030 -0.000077 -0.000047
                                 0.000039 -0.000002  0.000314  0.000075  0.000055  0.000002  0.000011 -0.000005  0.000001 -0.000062
                                -0.000140 -0.000010 -0.000001  0.000005 -0.000000 -0.000007  0.000000  0.000004 -0.000000 -0.000001
                                -0.000000 -0.000014 -0.000000  0.000040  0.000000

   3.1   2  -271.9403 -799.0582  0.000000 -0.000036  0.000004  0.000011  0.000043  0.000153 -0.000030  0.000117 -0.000223  0.000095
                                 1.000000 -0.000598  0.000019  0.000059  0.000093 -0.000272  0.001370 -0.001364  0.000004 -0.000000
                                -0.000000  0.000000  0.000017 -0.000000  0.000058  0.000000 -0.000066  0.000000  0.000054  0.000000
                                 0.000047 -0.000000  0.000000 -0.000000  0.000045 -0.000000  0.000048 -0.000000 -0.000000  0.000000
                                 0.000000  0.000000  0.000000 -0.000000 -0.000001  0.000000  0.000000  0.000001 -0.000000 -0.000000
                                -0.000002  0.000000  0.000000  0.000004 -0.000000 -0.000000 -0.000020  0.000000  0.000000  0.000036
                                -0.000000 -0.000000 -0.000000  0.000000 -0.000000  0.000001 -0.000003  0.000033  0.000083  0.000048
                                -0.000050  0.000049 -0.000306 -0.000079 -0.000060 -0.000003 -0.000017  0.000009 -0.000010  0.000004
                                 0.000021  0.000014  0.000001 -0.000000  0.000000  0.000001 -0.000000  0.000024  0.000000  0.000000
                                -0.000000 -0.000002 -0.000000 -0.000002  0.000000

   4.1   2   -68.0943 -301.3736  0.000060 -0.000214  1.000025  0.002393 -0.001543 -0.000944 -0.129405 -0.314250  0.222946  0.027617
                                 0.000000  0.000122  0.000029  0.000321 -0.000757 -0.000583  0.000696 -0.000461 -0.000077 -0.000000
                                -0.000001  0.000000  0.000153  0.000000  0.000353 -0.000000 -0.000331  0.000000  0.000189  0.000000
                                 0.000094 -0.000000  0.000013  0.000000  0.000032 -0.000000  0.000211 -0.000000  0.000002  0.000000
                                -0.000000 -0.000010 -0.000000  0.000000  0.000023  0.000000  0.000000 -0.000048 -0.000000 -0.000000
                                 0.000100  0.000000  0.000000 -0.000197 -0.000000 -0.000000  0.000250  0.000000  0.000000 -0.000074
                                -0.000000 -0.000000 -0.000000  0.000000 -0.000000  0.000001 -0.000006  0.000083  0.000255  0.000194
                                -0.000179 -0.000011 -0.001406 -0.000267 -0.000163 -0.000006 -0.000046  0.000016  0.000009  0.000249
                                 0.000614  0.000038  0.000002 -0.000027  0.000000  0.000026 -0.000000  0.000015  0.000000  0.000006
                                -0.000000  0.000066  0.000000 -0.000197 -0.000000

   5.1   2   -57.7138 -282.1216 -0.000001 -0.000006 -0.000136 -0.000065 -0.000234 -0.000845  0.000510 -0.000127  0.001263 -0.000933
                                 0.000597  0.999994  0.001314 -0.001048 -0.001638  0.002698 -0.011705  0.012467  0.000080 -0.000000
                                -0.000004  0.000000 -0.000124 -0.000000 -0.000321  0.000000  0.000342 -0.000000 -0.000290 -0.000000
                                -0.000254  0.000000 -0.000025 -0.000000 -0.000288  0.000000 -0.000254  0.000000  0.000004 -0.000000
                                 0.000000 -0.000008  0.000000 -0.000000  0.000015 -0.000000  0.000000 -0.000030  0.000000 -0.000000
                                 0.000060 -0.000000  0.000000 -0.000126  0.000000 -0.000000  0.000225 -0.000000  0.000000 -0.000249
                                 0.000000 -0.000000  0.000000 -0.000000  0.000000 -0.000002  0.000010 -0.000129 -0.000374 -0.000236
                                 0.000262 -0.000378  0.001813  0.000371  0.000249  0.000012  0.000103 -0.000068  0.000127 -0.000058
                                -0.000033 -0.000083 -0.000005 -0.000005 -0.000000 -0.000006  0.000000 -0.000069 -0.000000  0.000001
                                 0.000000  0.000037  0.000000 -0.000075 -0.000000

   6.1   2   -43.7847 -260.6682  0.000000 -0.000000  0.000000 -0.000000 -0.000000 -0.000000  0.000000  0.000000 -0.000000 -0.000000
                                -0.000000 -0.000000  0.000000 -0.000000  0.000000  0.000000 -0.000000  0.000000  0.000000  0.999999
                                 0.000000  0.000755 -0.000000 -0.000824  0.000000  0.000941  0.000000  0.000637  0.000000  0.000749
                                -0.000000 -0.000691  0.000000 -0.000001 -0.000000 -0.000002 -0.000000 -0.000005 -0.000000 -0.000000
                                -0.000014  0.000000  0.000000  0.000008 -0.000000 -0.000000 -0.000007  0.000000  0.000000  0.000004
                                -0.000000 -0.000000 -0.000002  0.000000  0.000000 -0.000000  0.000000 -0.000000  0.000004 -0.000000
                                 0.000000 -0.000010  0.000000 -0.000000  0.000000  0.000000 -0.000000  0.000000  0.000000 -0.000000
                                 0.000000  0.000000  0.000000 -0.000000 -0.000000  0.000000  0.000000 -0.000000  0.000000  0.000000
                                -0.000000 -0.000000 -0.000000  0.000000  0.000004  0.000000 -0.000012 -0.000000  0.000021 -0.000000
                                -0.000001 -0.000000 -0.000005  0.000000  0.000011

   7.1   2   -43.7824 -260.6680 -0.000001 -0.000001  0.000064 -0.000058 -0.000158 -0.000776  0.000968  0.001277 -0.000176 -0.000648
                                -0.000004 -0.000082 -0.000013 -0.000141  0.000215  0.000776 -0.002783  0.002379  0.999999 -0.000000
                                 0.000731 -0.000000 -0.000850  0.000000  0.000604 -0.000000  0.001018 -0.000000  0.000418 -0.000000
                                -0.000932  0.000000 -0.000002  0.000000 -0.000252  0.000000 -0.000324  0.000000 -0.000024  0.000000
                                 0.000000  0.000016 -0.000000 -0.000000 -0.000018  0.000000  0.000000  0.000019 -0.000000 -0.000000
                                -0.000029  0.000000  0.000000  0.000039 -0.000000  0.000000  0.000058  0.000000 -0.000000 -0.000231
                                -0.000000  0.000000 -0.000000  0.000000 -0.000000  0.000001 -0.000003  0.000041  0.000115  0.000047
                                 0.000002  0.000135  0.001359 -0.000107 -0.000079  0.000006  0.000049 -0.000038  0.000016  0.000020
                                -0.000057 -0.000042 -0.000002  0.000003 -0.000000  0.000004  0.000000 -0.000223 -0.000000 -0.000001
                                 0.000000 -0.000014  0.000000  0.000069 -0.000000

   8.1   2   -19.1322  -64.0990  0.000001  0.000008  0.000029  0.000091  0.000276  0.000477  0.000456  0.001046 -0.000673 -0.000183
                                 0.000000  0.000003  0.000017  0.000076 -0.000066 -0.000194  0.000662 -0.000554  0.000000 -0.000000
                                -0.000005 -0.000000 -0.000094 -0.000000 -0.000119  0.000000  0.000043 -0.000000  0.000002 -0.000000
                                -0.000003 -0.000000 -0.000026  0.000000 -0.000120  0.000000 -0.000253  0.000000 -0.000002 -0.000000
                                -0.000000  0.000008  0.000000  0.000000 -0.000019 -0.000000 -0.000000  0.000031  0.000000  0.000000
                                -0.000015 -0.000000 -0.000000 -0.000121  0.000000 -0.000000  0.000222 -0.000000  0.000000 -0.000327
                                 0.000000 -0.000000  0.000747  0.004257  0.020840  0.080081  0.231587  0.421343  0.326341  0.039533
                                -0.009118  0.004179 -0.001666  0.023524  0.015082 -0.000024 -0.000058 -0.000154  0.000141 -0.000256
                                 0.000553 -0.000256 -0.000007 -0.000015 -0.000000  0.000010 -0.000000  0.000022  0.000000  0.000048
                                 0.000000  0.000017 -0.000000 -0.000053  0.000000

   9.1   2   -13.9056 -130.1609 -0.000037  0.000330 -0.002267  1.000062  0.001039 -0.000721 -0.053601 -0.127380  0.091143  0.011191
                                 0.000000  0.000007  0.000368  0.000201 -0.000456 -0.000314  0.000275 -0.000202  0.000016 -0.000000
                                -0.000558 -0.000000  0.000048 -0.000000  0.000244  0.000000 -0.000140  0.000000  0.000099 -0.000000
                                 0.000019  0.000000  0.000044  0.000000  0.000002  0.000000  0.000105  0.000000  0.000001 -0.000000
                                 0.000000 -0.000006  0.000000  0.000000  0.000002 -0.000000 -0.000000 -0.000023  0.000000  0.000000
                                 0.000046 -0.000000 -0.000000 -0.000085  0.000000  0.000000  0.000132  0.000000 -0.000000 -0.000055
                                -0.000000  0.000000 -0.000000  0.000000 -0.000000  0.000000 -0.000002  0.000034  0.000110  0.000070
                                -0.000057 -0.000011 -0.000802 -0.000114 -0.000068 -0.000001 -0.000008  0.000013 -0.000024  0.000228
                                 0.000382  0.000007  0.000000 -0.000006 -0.000000  0.000028  0.000000 -0.000056 -0.000000  0.000001
                                 0.000000  0.000029 -0.000000 -0.000074  0.000000

  10.1   2   -10.4473 -120.1256 -0.000002 -0.000014 -0.000049 -0.000517 -0.000682 -0.002385  0.000495 -0.001114  0.002387 -0.000972
                                -0.000017 -0.001341  0.999941  0.000532  0.000350  0.002069 -0.018595  0.017279 -0.000000 -0.000000
                                 0.000254 -0.000000 -0.000317  0.000000 -0.000917 -0.000000  0.000995  0.000000 -0.000863  0.000000
                                -0.000533 -0.000000 -0.000487 -0.000000 -0.000676  0.000000 -0.000767  0.000000  0.000003 -0.000000
                                -0.000000  0.000008  0.000000  0.000000  0.000020 -0.000000 -0.000000 -0.000035  0.000000  0.000000
                                 0.000046 -0.000000 -0.000000 -0.000095  0.000000  0.000000  0.000284 -0.000000 -0.000000 -0.000548
                                 0.000000 -0.000000  0.000000 -0.000000  0.000000 -0.000002  0.000014 -0.000202 -0.000683 -0.000525
                                 0.000565 -0.000481  0.004600  0.000734  0.000409  0.000007  0.000073 -0.000066  0.000155 -0.000142
                                -0.000359 -0.000058 -0.000003 -0.000017  0.000000  0.000050 -0.000000 -0.000408  0.000000  0.000002
                                -0.000000 -0.000006  0.000000  0.000007 -0.000000

  11.1   2    -5.5948 -105.4026 -0.000000 -0.000000 -0.000000  0.000000  0.000000  0.000000  0.000000  0.000000 -0.000000 -0.000000
                                -0.000000 -0.000000  0.000000  0.000000 -0.000000  0.000000 -0.000000  0.000000 -0.000000 -0.000756
                                 0.000000  0.999997  0.000000  0.000448  0.000000 -0.001393 -0.000000 -0.000514  0.000000  0.000845
                                -0.000000 -0.001859  0.000000  0.000029  0.000000 -0.000010  0.000000 -0.000032  0.000000  0.000000
                                -0.000029 -0.000000 -0.000000 -0.000050 -0.000000  0.000000 -0.000124  0.000000  0.000000 -0.000124
                                -0.000000 -0.000000 -0.000022  0.000000  0.000000 -0.000006 -0.000000 -0.000000  0.000009  0.000000
                                 0.000000 -0.000034  0.000000 -0.000000  0.000000 -0.000000  0.000000 -0.000000 -0.000000 -0.000000
                                 0.000000 -0.000000  0.000000  0.000000  0.000000 -0.000000 -0.000000  0.000000 -0.000000  0.000000
                                -0.000000  0.000000  0.000000  0.000000  0.000008 -0.000000 -0.000034 -0.000000  0.000079 -0.000000
                                -0.000001 -0.000000 -0.000009  0.000000  0.000022

  12.1   2    -5.5882 -105.4423 -0.000002 -0.000011 -0.000033  0.000440 -0.001525 -0.002446  0.004180  0.006055 -0.001972 -0.002272
                                 0.000001 -0.000006 -0.000297 -0.000602  0.000707  0.002298 -0.008116  0.006694 -0.000735  0.000000
                                 0.999998 -0.000000 -0.000266 -0.000000 -0.001745  0.000000  0.000861  0.000000 -0.000179 -0.000000
                                -0.002524  0.000000  0.000047 -0.000000 -0.000800  0.000000 -0.001074 -0.000000 -0.000051  0.000000
                                 0.000000 -0.000071  0.000000 -0.000000 -0.000246  0.000000  0.000000 -0.000161 -0.000000  0.000000
                                -0.000178  0.000000 -0.000000  0.000293 -0.000000  0.000000  0.000020  0.000000 -0.000000 -0.000679
                                -0.000000  0.000000 -0.000000 -0.000000 -0.000000 -0.000000  0.000001 -0.000029 -0.000125 -0.000197
                                 0.000325  0.000349  0.004248  0.000163  0.000061 -0.000001 -0.000006 -0.000035 -0.000235  0.000274
                                -0.000220 -0.000008 -0.000001  0.000018 -0.000000  0.000041  0.000000 -0.000871 -0.000000 -0.000002
                                 0.000000 -0.000088  0.000000  0.000386 -0.000000

  13.1   2    -1.9583  -56.1835  0.000016 -0.000165  0.001174 -0.001184  1.000417 -0.003326  0.144765  0.357455 -0.225220 -0.057163
                                -0.000000 -0.000014 -0.000012 -0.013066  0.003803 -0.000404 -0.004128  0.003993 -0.000007  0.000000
                                 0.001051 -0.000000 -0.011746  0.000000  0.003820 -0.000000 -0.001304  0.000000 -0.000201  0.000000
                                -0.000168 -0.000000 -0.000812 -0.000000  0.000004 -0.000000 -0.000153  0.000000 -0.000002 -0.000000
                                -0.000000 -0.000004  0.000000  0.000000 -0.000009 -0.000000  0.000000 -0.000052 -0.000000 -0.000000
                                -0.000234  0.000000  0.000000  0.000473 -0.000000 -0.000000 -0.000355  0.000000  0.000000  0.000106
                                -0.000000 -0.000000 -0.000000 -0.000002 -0.000011 -0.000045 -0.000136 -0.000343 -0.000494  0.000223
                                 0.001027  0.001110  0.001480  0.000121  0.000067 -0.000003 -0.000038  0.000122 -0.000051 -0.000307
                                -0.000336  0.000041  0.000002  0.000026  0.000000  0.000311 -0.000000  0.000125  0.000000  0.000005
                                 0.000000 -0.000066  0.000000  0.000035 -0.000000

  14.1   2    -1.0883  -48.4022  0.000012  0.000069  0.000281  0.000807  0.015138 -0.004472  0.031614  0.085960 -0.046220 -0.024432
                                -0.000022  0.000898 -0.000842  0.999209  0.002751 -0.010810  0.022791 -0.021412 -0.000004  0.000000
                                 0.000258 -0.000000 -0.015441  0.000000  0.006638 -0.000000 -0.007002  0.000000  0.002659  0.000000
                                 0.000653  0.000000 -0.009722  0.000000  0.000851 -0.000000  0.000884  0.000000 -0.000010  0.000000
                                 0.000000  0.000021 -0.000000 -0.000000 -0.000087  0.000000  0.000000  0.000334  0.000000 -0.000000
                                -0.001315 -0.000000 -0.000000  0.001297  0.000000  0.000000 -0.000047  0.000000  0.000000  0.000404
                                -0.000000 -0.000000 -0.000008 -0.000048 -0.000236 -0.000931 -0.002910 -0.006651 -0.008519  0.007071
                                 0.027008  0.016894 -0.014529  0.000275  0.000144 -0.000297 -0.002236 -0.005293 -0.010892 -0.001524
                                 0.003913  0.000142 -0.000028  0.000243  0.000000  0.002138  0.000000 -0.001271  0.000000  0.000034
                                -0.000000 -0.000336  0.000000  0.000135 -0.000000

  15.1   2    -0.7796  -21.0984  0.000044  0.000277  0.001072  0.003684  0.026836 -0.006029  0.005993  0.030570 -0.022444 -0.004689
                                 0.000022  0.000341  0.002318  0.092372  0.000323 -0.003970  0.005609 -0.004180  0.000033 -0.000000
                                 0.001782  0.000000 -0.026751 -0.000000  0.007806  0.000000 -0.005510 -0.000000  0.001914 -0.000000
                                 0.000419 -0.000000 -0.006767  0.000000 -0.000304 -0.000000 -0.000176  0.000000 -0.000014 -0.000000
                                -0.000000  0.000024  0.000000  0.000000 -0.000117 -0.000000 -0.000000  0.000110  0.000000  0.000000
                                -0.000617  0.000000  0.000000 -0.000397 -0.000000 -0.000000  0.000939  0.000000  0.000000 -0.000159
                                -0.000000 -0.000000  0.000169  0.000961  0.004776  0.018699  0.059504  0.125024  0.138214 -0.184472
                                -0.545533 -0.394716 -0.045564  0.035398  0.017521  0.000192  0.000875  0.008493  0.007673  0.028010
                                 0.006364  0.001140  0.000096 -0.000517 -0.000000 -0.002463 -0.000000 -0.010487 -0.000000  0.000012
                                 0.000000 -0.000426 -0.000000  0.002937  0.000000

  16.1   2    -0.2190  -21.6932  0.000180  0.001107  0.004383  0.013774  0.058715 -0.384303 -0.239038 -0.281524  0.015553  0.163003
                                 0.000070  0.000798  0.006398  0.077834 -0.054910 -0.038857  0.047799 -0.035084  0.000005  0.000000
                                 0.003534 -0.000000 -0.260440  0.000000  0.020791 -0.000000 -0.013480  0.000000  0.004176 -0.000000
                                 0.000539 -0.000000 -0.048744 -0.000000 -0.007887 -0.000000 -0.002707 -0.000000 -0.000022  0.000000
                                -0.000000  0.000028  0.000000 -0.000000 -0.000154 -0.000000  0.000000 -0.000006 -0.000000 -0.000000
                                 0.000658  0.000000 -0.000000 -0.003626 -0.000000 -0.000000  0.008211  0.000001 -0.000000 -0.006821
                                -0.000000 -0.000000 -0.000018 -0.000103 -0.000509 -0.002021 -0.006301 -0.015147 -0.022111  0.013656
                                 0.080046  0.058495  0.003905  0.004381  0.001593  0.009327  0.062791  0.232794  0.341387  0.301390
                                 0.100548  0.012028  0.001815 -0.001926  0.000000 -0.004789  0.000000 -0.026916 -0.000000 -0.000157
                                 0.000000  0.000089  0.000000  0.005592  0.000000

  17.1   +    -0.5111  -81.3238 -0.000000 -0.000000 -0.000000 -0.000000 -0.000000 -0.000000 -0.000000 -0.000000  0.000000  0.000000
                                -0.000000 -0.000000 -0.000000 -0.000000  0.000000  0.000000  0.000000 -0.000000 -0.000000 -0.000005
                                -0.000000 -0.000033 -0.000000 -0.014532 -0.000000  0.001842  0.000000 -0.001398 -0.000000  0.000535
                                 0.000000  0.000147  0.000000  0.999845 -0.000000  0.003142 -0.000000  0.010133  0.000000  0.000000
                                 0.000006 -0.000000 -0.000000  0.000047  0.000000  0.000000  0.000006 -0.000000 -0.000000 -0.000036
                                 0.000000 -0.000000 -0.001263 -0.000000  0.000000 -0.000946  0.000000 -0.000000 -0.000871 -0.000000
                                 0.000000 -0.000239 -0.000000  0.000000 -0.000000  0.000000 -0.000000  0.000000  0.000000  0.000000
                                -0.000000  0.000000  0.000000 -0.000000 -0.000000  0.000000  0.000000  0.000000  0.000000 -0.000000
                                 0.000000 -0.000000  0.000000 -0.000000  0.000065  0.000000 -0.000068  0.000000  0.000009  0.000000
                                -0.000001  0.000000  0.000172 -0.000000 -0.000673

  18.1   +    -0.5055  -80.9185 -0.000086 -0.000553 -0.001983 -0.006657 -0.027750 -0.092917 -0.142765 -0.245526  0.088549  0.093202
                                -0.000032 -0.000316 -0.002382 -0.018691  0.060537  0.020513  0.008810 -0.010735 -0.000058 -0.000000
                                -0.001322  0.000000 -0.064794  0.000000 -0.019610  0.000000  0.009599 -0.000000 -0.000859  0.000000
                                 0.000954  0.000000  0.995552 -0.000000 -0.000673 -0.000000  0.001772 -0.000000  0.000076  0.000000
                                -0.000000 -0.000198 -0.000000  0.000000  0.000777  0.000000 -0.000000 -0.001958 -0.000000  0.000000
                                 0.002892 -0.000000  0.000000 -0.010072  0.000000  0.000000 -0.003839 -0.000000  0.000000  0.002357
                                 0.000000  0.000000  0.000001  0.000007  0.000027  0.000152  0.000216  0.003578  0.011272  0.010062
                                -0.022252  0.007676  0.088619 -0.011874 -0.005596  0.000577  0.004833  0.007434  0.025307 -0.031071
                                -0.025533 -0.001124  0.000005 -0.000049 -0.000000 -0.000230 -0.000000  0.026967  0.000000  0.000021
                                -0.000000  0.001211 -0.000000 -0.007422  0.000000

  19.1   +    -0.2054  -22.8080 -0.000061 -0.000323 -0.001611 -0.003826 -0.013740  0.740695  0.313702  0.364445 -0.028970 -0.203101
                                -0.000014 -0.000044 -0.000975  0.007026  0.240594  0.125965 -0.123579  0.087964 -0.000095 -0.000000
                                 0.000167  0.000000 -0.457522 -0.000000 -0.035431  0.000000  0.022278  0.000000 -0.006073 -0.000000
                                -0.001400  0.000000 -0.002407 -0.000000  0.017018  0.000000  0.011670  0.000000 -0.000011  0.000000
                                -0.000000  0.000035  0.000000  0.000000 -0.000062 -0.000000 -0.000000  0.000236  0.000000  0.000000
                                 0.000389 -0.000000 -0.000000  0.003469  0.000000  0.000000 -0.009702 -0.000000  0.000000  0.008398
                                 0.000000  0.000000  0.000000  0.000001  0.000001  0.000040 -0.000070  0.002118  0.007279  0.007182
                                -0.011689  0.019456  0.085359 -0.008165 -0.004074  0.003762  0.026042  0.088836  0.140005  0.074868
                                -0.022534  0.003426  0.000650 -0.000652 -0.000000 -0.003902 -0.000000  0.009684  0.000000 -0.000083
                                -0.000000  0.000384  0.000000  0.001294  0.000000

  20.1   0    -0.1130  -30.0153 -0.000000 -0.000000 -0.000000 -0.000000 -0.000000  0.000000  0.000000  0.000000 -0.000000 -0.000000
                                -0.000000 -0.000000 -0.000000 -0.000000  0.000000  0.000000 -0.000000  0.000000  0.000000  0.000363
                                 0.000000  0.000309  0.000000  0.967400  0.000000  0.046015 -0.000000 -0.037313  0.000000  0.017312
                                 0.000000  0.007763  0.000000  0.013588  0.000000 -0.023587  0.000000 -0.038417 -0.000000  0.000000
                                -0.000008  0.000000 -0.000000 -0.000006 -0.000000  0.000000 -0.000101  0.000000 -0.000000 -0.000193
                                -0.000000  0.000000 -0.001503  0.000000 -0.000000 -0.006031 -0.000000 -0.000000 -0.006262  0.000000
                                 0.000000 -0.003437  0.000000 -0.000000  0.000000 -0.000000  0.000000 -0.000000 -0.000000 -0.000000
                                 0.000000 -0.000000  0.000000  0.000000  0.000000  0.000000 -0.000000  0.000000 -0.000000  0.000000
                                -0.000000  0.000000  0.000000  0.000000  0.000214 -0.000000  0.001264 -0.000000  0.001420 -0.000000
                                 0.000022 -0.000000 -0.000365  0.000000  0.000480

  21.1   0    -0.0813  -24.2830  0.000287  0.001839  0.006713  0.022074  0.095545  0.335376 -0.248698 -0.298302  0.022260  0.166921
                                 0.000091  0.001234  0.008339  0.111422  0.309014  0.187708 -0.301692  0.236303  0.000374 -0.000000
                                 0.004281  0.000000  0.734171 -0.000000  0.118380 -0.000000 -0.094313  0.000000  0.042931 -0.000000
                                 0.016511 -0.000000  0.032365 -0.000000 -0.004866  0.000000 -0.011387  0.000000 -0.000051 -0.000000
                                 0.000000  0.000134 -0.000000 -0.000000 -0.000540  0.000000  0.000000  0.000781  0.000000 -0.000000
                                -0.004809  0.000000  0.000000 -0.001066 -0.000000 -0.000000  0.001644  0.000000  0.000000 -0.010971
                                -0.000000 -0.000000  0.000004  0.000020  0.000105  0.000387  0.001368  0.001295 -0.002710 -0.011087
                                -0.002335 -0.013429 -0.212492  0.007717  0.003384  0.003945  0.025518  0.107488  0.142305  0.199475
                                 0.123665  0.007275  0.000894  0.000109 -0.000000  0.004148 -0.000000 -0.029950  0.000000  0.000026
                                -0.000000 -0.000987  0.000000  0.005008 -0.000000

                                   1 2px     1 2px     1 2px     1 2px     1 2px     1 2px     1 2px     1 2px     1 3d1+    1 3d1+
                                   1 3d1+    1 3d1+    1 3d1+    1 3d1+    1 3d1+    1 4f1+    1 4f3+    1 4f1+    1 4f3+    1 4f1+
                                   1 4f3+    1 5g1+    1 5g3+    1 5g1+    1 5g3+    1 5g1+    1 5g3+    1 5g1+    1 5g3+    1 5g1+
                                   1 5g3+    1 5g1+    1 5g3+    1 5g1+    1 5g3+    1 5g1+    1 5g3+    2 2px     2 2px     2 2px
                                   2 2px     2 2px     2 2px     2 2px     2 2px     2 3d1+    2 3d1+    2 3d1+    2 3d1+    2 4f1+
                                   2 4f3+    2 4f1+    2 4f3+

   1.2   2  -271.9413 -799.0590  1.000000 -0.000597  0.000016  0.000032  0.000133 -0.000161  0.000970 -0.001019  0.000003 -0.000001
                                 0.000008  0.000022 -0.000024  0.000019  0.000019  0.000000  0.000000  0.000030  0.000000  0.000022
                                -0.000000 -0.000000  0.000000  0.000001 -0.000000 -0.000002  0.000000  0.000004 -0.000000 -0.000007
                                 0.000000  0.000013 -0.000000 -0.000021  0.000000  0.000027 -0.000000 -0.000001 -0.000003  0.000002
                                -0.000003  0.000006 -0.000084  0.000003  0.000000  0.000002 -0.000006  0.000007 -0.000000 -0.000001
                                -0.000000  0.000004  0.000000

   2.2   2   -57.7166 -282.1226  0.000596  0.999996  0.001343 -0.000896 -0.001824  0.002145 -0.009511  0.010550  0.000056 -0.000004
                                -0.000057 -0.000161  0.000172 -0.000147 -0.000127 -0.000018  0.000000 -0.000224 -0.000000 -0.000150
                                -0.000000  0.000004 -0.000000 -0.000009  0.000000  0.000019 -0.000000 -0.000035  0.000000  0.000062
                                -0.000000 -0.000107  0.000000  0.000174 -0.000000 -0.000200  0.000000  0.000003  0.000028 -0.000019
                                 0.000035 -0.000078  0.000634 -0.000023 -0.000001 -0.000013  0.000041 -0.000038  0.000003  0.000005
                                -0.000000 -0.000022 -0.000000

   3.2   2   -43.7830 -260.6682 -0.000003 -0.000057 -0.000010 -0.000063  0.000072  0.000244 -0.000984  0.000860  0.999998  0.000737
                                -0.000876  0.000773  0.000806  0.000600 -0.000807 -0.000006  0.000000 -0.000212  0.000000 -0.000175
                                 0.000000 -0.000019  0.000000  0.000009 -0.000000 -0.000003  0.000000 -0.000008 -0.000000  0.000024
                                 0.000000 -0.000058 -0.000000  0.000132  0.000000 -0.000211 -0.000000 -0.000002 -0.000016  0.000011
                                -0.000016  0.000040  0.000559  0.000013  0.000001 -0.000017  0.000049 -0.000055  0.000003  0.000021
                                 0.000000 -0.000060 -0.000000

   4.2   2   -10.4536 -120.1019 -0.000016 -0.001349  0.999981  0.001209 -0.000269  0.000304 -0.013191  0.012653  0.000003  0.000143
                                -0.000162 -0.000353  0.000365 -0.000338 -0.000211 -0.000364 -0.000000 -0.000475  0.000000 -0.000350
                                 0.000000  0.000004 -0.000000  0.000001  0.000000  0.000028 -0.000000 -0.000052  0.000000  0.000085
                                -0.000000 -0.000168  0.000000  0.000294 -0.000000 -0.000422  0.000000  0.000001  0.000014 -0.000010
                                 0.000028 -0.000047  0.001313 -0.000011 -0.000001 -0.000024  0.000098 -0.000139  0.000003  0.000017
                                 0.000000 -0.000063 -0.000000

   5.2   2    -5.5900 -105.4305  0.000001 -0.000002 -0.000170 -0.000349  0.000329  0.000685 -0.002829  0.002374 -0.000742  0.999987
                                -0.000242 -0.001504  0.000112  0.000408 -0.002166  0.000016 -0.000000 -0.000700  0.000000 -0.000600
                                 0.000000 -0.000042  0.000000 -0.000076  0.000000 -0.000183  0.000000 -0.000220 -0.000000  0.000027
                                 0.000000 -0.000150 -0.000000  0.000376  0.000000 -0.000676 -0.000000 -0.000002 -0.000019  0.000022
                                -0.000032  0.000168  0.001814  0.000016  0.000001 -0.000027  0.000094 -0.000160  0.000003  0.000063
                                 0.000000 -0.000192 -0.000000

   6.2   2    -1.1071  -48.4381 -0.000025  0.000875 -0.001286  1.000174  0.009960 -0.004784  0.019286 -0.019163 -0.000004  0.000157
                                -0.013424  0.001889 -0.003605  0.001824  0.000602 -0.006108 -0.000000  0.000722  0.000000  0.000054
                                 0.000000 -0.000009  0.000000  0.000022 -0.000000 -0.000079  0.000000  0.000256  0.000000 -0.000885
                                -0.000000  0.000252 -0.000000  0.000631  0.000000  0.000332 -0.000000  0.000056  0.000424  0.000980
                                 0.001996  0.000497 -0.002470 -0.000034  0.000005  0.000025 -0.000941  0.001486 -0.000017  0.000152
                                 0.000000 -0.000187 -0.000000

   7.2   2    -0.1949  -20.2142 -0.000018 -0.000230 -0.001646 -0.023675 -0.039009 -0.017689  0.014462 -0.010035  0.000068 -0.001320
                                 0.294583  0.014102 -0.007873  0.002830  0.001114  0.038646 -0.000006  0.000241 -0.000000  0.006633
                                -0.000000 -0.000016 -0.000000  0.000100 -0.000000 -0.000202  0.000000  0.000694 -0.000000 -0.001800
                                -0.000000  0.004585  0.000000 -0.005490 -0.000000  0.002309  0.000000  0.010641  0.072082  0.264130
                                 0.389194  0.331671  0.100053  0.013045  0.002036 -0.001795 -0.003947 -0.022852 -0.000133 -0.000126
                                -0.000000  0.005981 -0.000000

   8.2   +    -0.5163  -81.3200 -0.000000  0.000000  0.000000  0.000004  0.000006  0.000002 -0.000001  0.000001 -0.000000 -0.000000
                                -0.000029 -0.000001  0.000001 -0.000000 -0.000000  0.000774  0.999936  0.000001  0.003212  0.000005
                                 0.010596  0.000000  0.000005 -0.000000  0.000023  0.000001 -0.000019 -0.000001 -0.000017 -0.000001
                                -0.000671 -0.000000 -0.000864 -0.000005 -0.000560  0.000001 -0.000397 -0.000000 -0.000002 -0.000006
                                -0.000011 -0.000005  0.000001  0.000000 -0.000000 -0.000000  0.000002 -0.000008  0.000000 -0.000001
                                 0.000024  0.000003 -0.000087

   9.2   +    -0.5073  -81.1663 -0.000001  0.000012  0.000258  0.004714  0.008894  0.003488 -0.001547  0.000780 -0.000017 -0.000156
                                -0.041059 -0.002095  0.001637 -0.000716 -0.000158  0.998201 -0.000775  0.001180 -0.000003  0.006039
                                -0.000009  0.000019  0.000000  0.000013 -0.000001  0.000165  0.000001 -0.000371 -0.000001 -0.001098
                                 0.000000 -0.000566  0.000000 -0.008355  0.000001  0.001926  0.000000 -0.000474 -0.003507 -0.009578
                                -0.017879 -0.007717  0.000903  0.000013 -0.000056 -0.000371  0.002227 -0.012207  0.000030 -0.001237
                                 0.000000  0.005414 -0.000000

  10.2   0    -0.0930  -26.1909 -0.000004 -0.000244 -0.000560 -0.021607 -0.368638 -0.218397  0.306839 -0.235252 -0.000317 -0.001177
                                -0.805940 -0.071216  0.062044 -0.030463 -0.012703 -0.022799  0.000001  0.023410  0.000000  0.032501
                                 0.000000 -0.000003  0.000000  0.000061  0.000000 -0.000015  0.000000  0.000573 -0.000000  0.001233
                                 0.000000  0.008779 -0.000000 -0.004178  0.000000  0.012162 -0.000000  0.003318  0.022234  0.084708
                                 0.121459  0.117481  0.048807  0.004611  0.000666 -0.000233  0.005339 -0.019491  0.000065 -0.001031
                                -0.000000  0.004162  0.000000

  11.2   0    -0.0220  -20.6179  0.000001  0.000277  0.000061 -0.006834  0.631517  0.430088 -0.681955  0.529008 -0.000185 -0.000430
                                -0.465793  0.072248 -0.058628  0.030276  0.011955 -0.017112  0.000001  0.153957  0.000000  0.115366
                                -0.000000 -0.000061  0.000000  0.000266 -0.000000 -0.000624  0.000000  0.001988 -0.000000 -0.003573
                                 0.000000  0.018046 -0.000001 -0.034748  0.000001  0.032722 -0.000001  0.003542  0.023009  0.096553
                                 0.129376  0.160387 -0.087082  0.006475  0.000801  0.000179  0.006234 -0.021542  0.000078 -0.001438
                                -0.000000  0.006328  0.000000

                                   1 2py     1 2py     1 2py     1 2py     1 2py     1 2py     1 2py     1 2py     1 3d1-    1 3d1-
                                   1 3d1-    1 3d1-    1 3d1-    1 3d1-    1 3d1-    1 4f1-    1 4f3-    1 4f1-    1 4f3-    1 4f1-
                                   1 4f3-    1 5g1-    1 5g3-    1 5g1-    1 5g3-    1 5g1-    1 5g3-    1 5g1-    1 5g3-    1 5g1-
                                   1 5g3-    1 5g1-    1 5g3-    1 5g1-    1 5g3-    1 5g1-    1 5g3-    2 2py     2 2py     2 2py
                                   2 2py     2 2py     2 2py     2 2py     2 2py     2 3d1-    2 3d1-    2 3d1-    2 3d1-    2 4f1-
                                   2 4f3-    2 4f1-    2 4f3-

   1.3   2  -271.9413 -799.0590  1.000000 -0.000597  0.000016  0.000032  0.000133 -0.000161  0.000970 -0.001019  0.000003 -0.000001
                                 0.000008  0.000022 -0.000024  0.000019  0.000019  0.000000 -0.000000  0.000030 -0.000000  0.000022
                                 0.000000 -0.000000 -0.000000  0.000001  0.000000 -0.000002 -0.000000  0.000004  0.000000 -0.000007
                                -0.000000  0.000013  0.000000 -0.000021 -0.000000  0.000027  0.000000 -0.000001 -0.000003  0.000002
                                -0.000003  0.000006 -0.000084  0.000003  0.000000  0.000002 -0.000006  0.000007 -0.000000 -0.000001
                                 0.000000  0.000004 -0.000000

   2.3   2   -57.7166 -282.1226  0.000596  0.999996  0.001343 -0.000896 -0.001824  0.002145 -0.009511  0.010550  0.000056 -0.000004
                                -0.000057 -0.000161  0.000172 -0.000147 -0.000127 -0.000018 -0.000000 -0.000224  0.000000 -0.000150
                                 0.000000  0.000004  0.000000 -0.000009 -0.000000  0.000019  0.000000 -0.000035 -0.000000  0.000062
                                 0.000000 -0.000107 -0.000000  0.000174  0.000000 -0.000200 -0.000000  0.000003  0.000028 -0.000019
                                 0.000035 -0.000078  0.000634 -0.000023 -0.000001 -0.000013  0.000041 -0.000038  0.000003  0.000005
                                 0.000000 -0.000022  0.000000

   3.3   2   -43.7830 -260.6682 -0.000003 -0.000057 -0.000010 -0.000063  0.000072  0.000244 -0.000984  0.000860  0.999998  0.000737
                                -0.000876  0.000773  0.000806  0.000600 -0.000807 -0.000006 -0.000000 -0.000212 -0.000000 -0.000175
                                -0.000000 -0.000019 -0.000000  0.000009  0.000000 -0.000003 -0.000000 -0.000008  0.000000  0.000024
                                -0.000000 -0.000058  0.000000  0.000132 -0.000000 -0.000211  0.000000 -0.000002 -0.000016  0.000011
                                -0.000016  0.000040  0.000559  0.000013  0.000001 -0.000017  0.000049 -0.000055  0.000003  0.000021
                                -0.000000 -0.000060  0.000000

   4.3   2   -10.4536 -120.1019 -0.000016 -0.001349  0.999981  0.001209 -0.000269  0.000304 -0.013191  0.012653  0.000003  0.000143
                                -0.000162 -0.000353  0.000365 -0.000338 -0.000211 -0.000364  0.000000 -0.000475 -0.000000 -0.000350
                                -0.000000  0.000004  0.000000  0.000001 -0.000000  0.000028  0.000000 -0.000052 -0.000000  0.000085
                                 0.000000 -0.000168 -0.000000  0.000294  0.000000 -0.000422 -0.000000  0.000001  0.000014 -0.000010
                                 0.000028 -0.000047  0.001313 -0.000011 -0.000001 -0.000024  0.000098 -0.000139  0.000003  0.000017
                                -0.000000 -0.000063  0.000000

   5.3   2    -5.5900 -105.4305  0.000001 -0.000002 -0.000170 -0.000349  0.000329  0.000685 -0.002829  0.002374 -0.000742  0.999987
                                -0.000242 -0.001504  0.000112  0.000408 -0.002166  0.000016  0.000000 -0.000700 -0.000000 -0.000600
                                -0.000000 -0.000042 -0.000000 -0.000076 -0.000000 -0.000183 -0.000000 -0.000220  0.000000  0.000027
                                -0.000000 -0.000150  0.000000  0.000376 -0.000000 -0.000676  0.000000 -0.000002 -0.000019  0.000022
                                -0.000032  0.000168  0.001814  0.000016  0.000001 -0.000027  0.000094 -0.000160  0.000003  0.000063
                                -0.000000 -0.000192  0.000000

   6.3   2    -1.1071  -48.4381 -0.000025  0.000875 -0.001286  1.000174  0.009960 -0.004784  0.019286 -0.019163 -0.000004  0.000157
                                -0.013424  0.001889 -0.003605  0.001824  0.000602 -0.006108  0.000000  0.000722 -0.000000  0.000054
                                -0.000000 -0.000009 -0.000000  0.000022  0.000000 -0.000079 -0.000000  0.000256 -0.000000 -0.000885
                                 0.000000  0.000252  0.000000  0.000631 -0.000000  0.000332  0.000000  0.000056  0.000424  0.000980
                                 0.001996  0.000497 -0.002470 -0.000034  0.000005  0.000025 -0.000941  0.001486 -0.000017  0.000152
                                -0.000000 -0.000187  0.000000

   7.3   2    -0.1949  -20.2142 -0.000018 -0.000230 -0.001646 -0.023675 -0.039009 -0.017689  0.014462 -0.010035  0.000068 -0.001320
                                 0.294583  0.014102 -0.007873  0.002830  0.001114  0.038646  0.000006  0.000241  0.000000  0.006633
                                 0.000000 -0.000016  0.000000  0.000100  0.000000 -0.000202 -0.000000  0.000694  0.000000 -0.001800
                                 0.000000  0.004585 -0.000000 -0.005490  0.000000  0.002309 -0.000000  0.010641  0.072082  0.264130
                                 0.389194  0.331671  0.100053  0.013045  0.002036 -0.001795 -0.003947 -0.022852 -0.000133 -0.000126
                                 0.000000  0.005981  0.000000

   8.3   +    -0.5163  -81.3200  0.000000 -0.000000 -0.000000 -0.000004 -0.000006 -0.000002  0.000001 -0.000001  0.000000  0.000000
                                 0.000029  0.000001 -0.000001  0.000000  0.000000 -0.000774  0.999936 -0.000001  0.003212 -0.000005
                                 0.010596 -0.000000  0.000005  0.000000  0.000023 -0.000001 -0.000019  0.000001 -0.000017  0.000001
                                -0.000671  0.000000 -0.000864  0.000005 -0.000560 -0.000001 -0.000397  0.000000  0.000002  0.000006
                                 0.000011  0.000005 -0.000001 -0.000000  0.000000  0.000000 -0.000002  0.000008 -0.000000  0.000001
                                 0.000024 -0.000003 -0.000087

   9.3   +    -0.5073  -81.1663 -0.000001  0.000012  0.000258  0.004714  0.008894  0.003488 -0.001547  0.000780 -0.000017 -0.000156
                                -0.041059 -0.002095  0.001637 -0.000716 -0.000158  0.998201  0.000775  0.001180  0.000003  0.006039
                                 0.000009  0.000019 -0.000000  0.000013  0.000001  0.000165 -0.000001 -0.000371  0.000001 -0.001098
                                -0.000000 -0.000566 -0.000000 -0.008355 -0.000001  0.001926 -0.000000 -0.000474 -0.003507 -0.009578
                                -0.017879 -0.007717  0.000903  0.000013 -0.000056 -0.000371  0.002227 -0.012207  0.000030 -0.001237
                                -0.000000  0.005414  0.000000

  10.3   0    -0.0930  -26.1909 -0.000004 -0.000244 -0.000560 -0.021607 -0.368638 -0.218397  0.306839 -0.235252 -0.000317 -0.001177
                                -0.805940 -0.071216  0.062044 -0.030463 -0.012703 -0.022799 -0.000001  0.023410 -0.000000  0.032501
                                -0.000000 -0.000003 -0.000000  0.000061 -0.000000 -0.000015 -0.000000  0.000573  0.000000  0.001233
                                -0.000000  0.008779  0.000000 -0.004178 -0.000000  0.012162  0.000000  0.003318  0.022234  0.084708
                                 0.121459  0.117481  0.048807  0.004611  0.000666 -0.000233  0.005339 -0.019491  0.000065 -0.001031
                                 0.000000  0.004162 -0.000000

  11.3   0    -0.0220  -20.6179  0.000001  0.000277  0.000061 -0.006834  0.631517  0.430088 -0.681955  0.529008 -0.000185 -0.000430
                                -0.465793  0.072248 -0.058628  0.030276  0.011955 -0.017112 -0.000001  0.153957 -0.000000  0.115366
                                 0.000000 -0.000061 -0.000000  0.000266  0.000000 -0.000624 -0.000000  0.001988  0.000000 -0.003573
                                -0.000000  0.018046  0.000001 -0.034748 -0.000001  0.032722  0.000001  0.003542  0.023009  0.096553
                                 0.129376  0.160387 -0.087082  0.006475  0.000801  0.000179  0.006234 -0.021542  0.000078 -0.001438
                                 0.000000  0.006328 -0.000000

                                   1 3d2-    1 3d2-    1 3d2-    1 3d2-    1 3d2-    1 3d2-    1 3d2-    1 4f2-    1 4f2-    1 4f2-
                                   1 5g2-    1 5g4-    1 5g2-    1 5g4-    1 5g2-    1 5g4-    1 5g2-    1 5g4-    1 5g2-    1 5g4-
                                   1 5g2-    1 5g4-    1 5g2-    1 5g4-    1 5g2-    1 5g4-    2 3d2-    2 3d2-    2 3d2-    2 3d2-
                                   2 4f2-    2 4f2-

   1.4   2   -43.7847 -260.6682  0.999999  0.000755 -0.000824  0.000941  0.000637  0.000749 -0.000691 -0.000001 -0.000002 -0.000005
                                -0.000014 -0.000000  0.000008  0.000000 -0.000007 -0.000000  0.000004  0.000000 -0.000002 -0.000000
                                -0.000000  0.000000  0.000004 -0.000000 -0.000010  0.000000  0.000004 -0.000012  0.000021 -0.000001
                                -0.000005  0.000011

   2.4   2    -5.5948 -105.4026 -0.000756  0.999997  0.000448 -0.001393 -0.000514  0.000845 -0.001859  0.000029 -0.000010 -0.000032
                                -0.000029 -0.000000 -0.000050 -0.000000 -0.000125 -0.000000 -0.000124  0.000000 -0.000022 -0.000000
                                -0.000006  0.000000  0.000009 -0.000000 -0.000034  0.000000  0.000008 -0.000034  0.000079 -0.000001
                                -0.000009  0.000022

   3.4   +    -0.5111  -81.3238 -0.000005 -0.000033 -0.014534  0.001842 -0.001398  0.000535  0.000147  0.999845  0.003143  0.010134
                                 0.000006 -0.000000  0.000049 -0.000000  0.000005  0.000000 -0.000034 -0.000000 -0.001263  0.000000
                                -0.000944  0.000000 -0.000873  0.000000 -0.000239 -0.000000  0.000065 -0.000068  0.000011 -0.000001
                                 0.000173 -0.000676

   4.4   0    -0.1130  -30.0153  0.000363  0.000309  0.967400  0.046016 -0.037313  0.017312  0.007763  0.013590 -0.023587 -0.038418
                                -0.000008  0.000000 -0.000006 -0.000000 -0.000101  0.000000 -0.000193 -0.000000 -0.001503  0.000000
                                -0.006031 -0.000000 -0.006262 -0.000000 -0.003437  0.000000  0.000214  0.001264  0.001420  0.000022
                                -0.000364  0.000479

   5.4   0     0.0834   -8.5338  0.000027 -0.000017  0.063575 -0.049971  0.045094 -0.025172 -0.010851 -0.004144  0.984114  0.139621
                                 0.000140 -0.000000 -0.000540  0.000000  0.001440 -0.000000 -0.003678  0.000000  0.008366 -0.000000
                                -0.020700  0.000000  0.041065 -0.000000 -0.090279  0.000000  0.000549  0.001467  0.008524  0.000029
                                -0.000078  0.000601

 HOMO     19.1    -0.205383 =      -5.5888eV
 LUMO     20.1    -0.113004 =      -3.0750eV
 LUMO-HOMO         0.092379 =       2.5138eV


 **********************************************************************************************************************************
 DATASETS  * FILE   NREC   LENGTH (MB)   RECORD NAMES
              1      23       21.90       500      610      700      900      950      970     1000      129      960     1700
                                          VAR    BASINP    GEOM    SYMINP    ZMAT    AOBASIS   BASIS     P2S    ABASIS    OPER
                                         1101     1401     1411     1412     1650     1100     1400     1410     1200     1210
                                          SR      EKINR    POTR     PVPR    MOLCAS      S      EKIN      POT      H0       H01
                                         1080     1600     1800
                                         AOSYM     SMH     GRID

              2       5        3.28       700     1000      520     1800     2202
                                         GEOM     BASIS   MCVARS    GRID      RKS

 PROGRAMS   *        TOTAL       RKS       INT
 CPU TIMES  *        26.14      2.19     23.66
 REAL TIME  *        27.86 SEC
 DISK USED  *         1.51 GB
 SF USED    *         0.06 MB
 GA USED    *         0.23 MB       (max)       0.23 MB       (current)
 **********************************************************************************************************************************
   -->
   <time start="08:04:34" end="08:05:01" cpu="26.14" system="1.31" real="27.86"/>
   <storage units="megabyte" memory="8001.84" sf="0.06" df="303.31" eaf="1206.37" ga="0.23"/>
  </jobstep><!--
  --><jobstep command="RHF-SCF" commandset="SCFPRO">
   <!--


 PROGRAM * RHF-SCF (OPEN SHELL)       Authors: W. Meyer, H.-J. Werner


 NUMBER OF ELECTRONS:      40+   32-    SPACE SYMMETRY=4    SPIN SYMMETRY: Nonet
 CONVERGENCE THRESHOLDS:    1.00E-05 (Density)    1.44E-07 (Energy)
 MAX. NUMBER OF ITERATIONS:      200
 INTERPOLATION TYPE:            DIIS
 INTERPOLATION STEPS:              2 (START)      1 (STEP)
 LEVEL SHIFTS:                 -0.60 (CLOSED) -0.30 (OPEN)

 Number of closed-shell orbitals:   32 (  16   7   7   2 )
 Number of open-shell orbitals:      8 (   3   2   2   1 )


 Molecular orbitals read from record     2202.2  Type=RKS/CANONICAL (state 1.4)

 Molecular orbital dump at record        3202.2

 ITERATION    DDIFF          GRAD             ENERGY        2-EL.EN.            DIPOLE MOMENTS         DIIS   ORB.
    1      0.000D+00      0.000D+00    -11341.87131588   8542.470089    0.00000    0.00000   -3.69674    0    start
    2      0.000D+00      0.105D-01    -11341.89984752   8536.594342    0.00000    0.00000   -4.47136    1    diag,B
    3      0.148D-01      0.108D-02    -11341.90436703   8536.483370    0.00000    0.00000   -4.59339    2    diag,B
    4      0.139D-02      0.496D-03    -11341.90614576   8535.784007    0.00000    0.00000   -4.74746    3    diag,B
    5      0.695D-03      0.349D-03    -11341.90747453   8535.555958    0.00000    0.00000   -4.81687    4    diag,B
    6      0.613D-03      0.199D-03    -11341.90823842   8535.418881    0.00000    0.00000   -4.85731    5    diag,B
    7      0.598D-03      0.133D-03    -11341.90868251   8535.340832    0.00000    0.00000   -4.84557    6    diag,B
    8      0.829D-03      0.913D-04    -11341.90888373   8535.380515    0.00000    0.00000   -4.81558    7    orth
    9      0.560D-03      0.711D-04    -11341.90906843   8535.399456    0.00000    0.00000   -4.76261    8    diag,B
   10      0.397D-03      0.579D-04    -11341.90924084   8535.429345    0.00000    0.00000   -4.70336    9    diag,B
   11      0.335D-03      0.529D-04    -11341.90938107   8535.459595    0.00000    0.00000   -4.65465    9    diag,B
   12      0.279D-03      0.504D-04    -11341.90955301   8535.494474    0.00000    0.00000   -4.59838    9    diag,B
   13      0.317D-03      0.507D-04    -11341.90962272   8535.507057    0.00000    0.00000   -4.58032    9    diag,B
   14      0.109D-03      0.501D-04    -11341.90970730   8535.521399    0.00000    0.00000   -4.55822    9    diag,B
   15      0.130D-03      0.513D-04    -11341.90896262   8535.426876    0.00000    0.00000   -4.72487    9    diag,B
   16      0.118D-02      0.763D-04    -11341.90905986   8535.437465    0.00000    0.00000   -4.70696    9    diag,B
   17      0.152D-03      0.672D-04    -11341.90906863   8535.441129    0.00000    0.00000   -4.70529    9    diag,B
   18      0.170D-04      0.669D-04    -11341.90897096   8535.419143    0.00000    0.00000   -4.72488    9    orth
   19      0.154D-03      0.715D-04    -11341.90961442   8535.608013    0.00000    0.00000   -4.56381    9    diag,B
   20      0.106D-02      0.865D-04    -11341.91060649   8535.924263    0.00000    0.00000   -4.28832    9    diag,B
   21      0.147D-02      0.167D-03    -11341.90982865   8535.680265    0.00000    0.00000   -4.50808    9    diag,B
   22      0.113D-02      0.976D-04    -11341.90946590   8535.560725    0.00000    0.00000   -4.61583    9    diag,B
   23      0.597D-03      0.668D-04    -11341.90927127   8535.471377    0.00000    0.00000   -4.65759    9    diag,B
   24      0.318D-03      0.641D-04    -11341.90917336   8535.454567    0.00000    0.00000   -4.67810    9    diag,B
   25      0.160D-03      0.691D-04    -11341.90918563   8535.482184    0.00000    0.00000   -4.68011    9    diag,B
   26      0.465D-04      0.681D-04    -11341.90920031   8535.496949    0.00000    0.00000   -4.67879    9    diag,B
   27      0.282D-04      0.680D-04    -11341.90926849   8535.567916    0.00000    0.00000   -4.67031    9    diag,B
   28      0.133D-03      0.708D-04    -11341.90926954   8535.579823    0.00000    0.00000   -4.67157    9    orth
   29      0.335D-04      0.714D-04    -11341.90897352   8535.449564    0.00000    0.00000   -4.72829    9    diag,B
   30      0.484D-03      0.730D-04    -11341.91088074   8536.416692    0.00000    0.00000   -4.19890    9    diag,B
   31      0.316D-02      0.226D-03    -11341.90992122   8535.705884    0.00000    0.00000   -4.51735    9    diag,B
   32      0.166D-02      0.655D-04    -11341.90876427   8535.376998    0.00000    0.00000   -4.78154    9    diag,B
   33      0.187D-02      0.612D-04    -11341.90863161   8535.317574    0.00000    0.00000   -4.77026    9    diag,B
   34      0.218D-03      0.101D-03    -11341.91009865   8535.864671    0.00000    0.00000   -4.44567    9    diag,B
   35      0.235D-02      0.122D-03    -11341.90985820   8535.857261    0.00000    0.00000   -4.54118    9    diag,B
   36      0.449D-03      0.790D-04    -11341.90984045   8535.834521    0.00000    0.00000   -4.53819    9    diag,B
   37      0.531D-04      0.837D-04    -11341.90928684   8535.626471    0.00000    0.00000   -4.68002    9    diag,B
   38      0.903D-03      0.640D-04    -11341.90884358   8535.696883    0.00000    0.00000   -4.75777    9    orth
   39      0.668D-03      0.137D-03    -11341.91031981   8536.141650    0.00000    0.00000   -4.39318    9    diag,B
   40      0.234D-02      0.143D-03    -11341.90953683   8535.682125    0.00000    0.00000   -4.60628    9    diag,B
   41      0.133D-02      0.784D-04    -11341.90962041   8535.666864    0.00000    0.00000   -4.59680    9    diag,B
   42      0.150D-03      0.592D-04    -11341.90949164   8535.606792    0.00000    0.00000   -4.60545    9    diag,B
   43      0.239D-03      0.802D-04    -11341.90944476   8535.575899    0.00000    0.00000   -4.62318    9    diag,B
   44      0.117D-03      0.690D-04    -11341.90909144   8535.493210    0.00000    0.00000   -4.70462    9    diag,B
   45      0.575D-03      0.730D-04    -11341.90847877   8535.344381    0.00000    0.00000   -4.80137    9    diag,B
   46      0.920D-03      0.115D-03    -11341.91102232   8536.506800    0.00000    0.00000   -4.13104    9    diag,B
   47      0.415D-02      0.264D-03    -11341.91087758   8536.122264    0.00000    0.00000   -4.25878    9    diag,B
   48      0.600D-03      0.145D-03    -11341.90848199   8535.483570    0.00000    0.00000   -4.78410    9    orth
   49      0.356D-02      0.172D-03    -11341.90959787   8535.537711    0.00000    0.00000   -4.60546    9    diag,B
   50      0.170D-02      0.491D-04    -11341.91078559   8536.364621    0.00000    0.00000   -4.24571    9    diag,B
   51      0.199D-02      0.192D-03    -11341.90910454   8535.416027    0.00000    0.00000   -4.72306    9    diag,B
   52      0.277D-02      0.482D-04    -11341.90721114   8535.225060    0.00000    0.00000   -4.85507    9    diag,B
   53      0.217D-02      0.295D-03    -11341.90825975   8535.230519    0.00000    0.00000   -4.81985    9    diag,B
   54      0.955D-03      0.139D-03    -11341.90772531   8535.144732    0.00000    0.00000   -4.84618    9    diag,B
   55      0.577D-03      0.213D-03    -11341.90949728   8535.640551    0.00000    0.00000   -4.62993    9    diag,B
   56      0.242D-02      0.666D-04    -11341.90904794   8535.684219    0.00000    0.00000   -4.73448    9    diag,B
   57      0.747D-03      0.985D-04    -11341.90761226   8535.218645    0.00000    0.00000   -4.85362    9    fixocc
   58      0.184D-02      0.233D-03    -11341.90934366   8536.070217    0.00000    0.00000   -4.66643    9    orth
   59      0.251D-02      0.137D-03    -11341.90892017   8536.006942    0.00000    0.00000   -4.75956    9    diag,B
   60      0.640D-03      0.153D-03    -11341.90844622   8535.513985    0.00000    0.00000   -4.82708    9    diag,B
   61      0.975D-03      0.130D-03    -11341.90743338   8535.743897    0.00000    0.00000   -4.86413    9    diag,B
   62      0.870D-03      0.349D-03    -11341.90715897   8535.107398    0.00000    0.00000   -4.83734    9    diag,B
   63      0.115D-02      0.306D-03    -11341.90910895   8536.032679    0.00000    0.00000   -4.71627    9    diag,B
   64      0.258D-02      0.169D-03    -11341.90839993   8535.891989    0.00000    0.00000   -4.83200    9    diag,B
   65      0.973D-03      0.206D-03    -11341.90790755   8535.577466    0.00000    0.00000   -4.86159    9    diag,B
   66      0.726D-03      0.227D-03    -11341.90775204   8535.788291    0.00000    0.00000   -4.87423    9    diag,B
   67      0.314D-03      0.292D-03    -11341.90800250   8535.282312    0.00000    0.00000   -4.84348    9    diag,B
   68      0.795D-03      0.187D-03    -11341.90841474   8535.922629    0.00000    0.00000   -4.80693    9    orth
   69      0.111D-02      0.244D-03    -11341.90809690   8535.767553    0.00000    0.00000   -4.83364    9    diag,B
   70      0.436D-03      0.256D-03    -11341.90859181   8535.803004    0.00000    0.00000   -4.82474    9    diag,B
   71      0.550D-03      0.156D-03    -11341.90744718   8535.170491    0.00000    0.00000   -4.84794    9    diag,B
   72      0.159D-02      0.259D-03    -11341.90890467   8536.031408    0.00000    0.00000   -4.77026    9    diag,B
   73      0.212D-02      0.168D-03    -11341.90847871   8535.973880    0.00000    0.00000   -4.82677    9    diag,B
   74      0.538D-03      0.208D-03    -11341.90807153   8535.659357    0.00000    0.00000   -4.86627    9    diag,B
   75      0.687D-03      0.210D-03    -11341.90694815   8535.579676    0.00000    0.00000   -4.86811    9    diag,B
   76      0.850D-03      0.401D-03    -11341.90836788   8535.393150    0.00000    0.00000   -4.83209    9    diag,B
   77      0.111D-02      0.138D-03    -11341.90786319   8535.173565    0.00000    0.00000   -4.83626    9    diag,B
   78      0.651D-03      0.193D-03    -11341.90871073   8535.509570    0.00000    0.00000   -4.79116    9    orth
   79      0.111D-02      0.120D-03    -11341.90900675   8535.782166    0.00000    0.00000   -4.75343    9    diag,B
   80      0.566D-03      0.127D-03    -11341.90871704   8536.126825    0.00000    0.00000   -4.79178    9    diag,B
   81      0.561D-03      0.196D-03    -11341.90701384   8535.179630    0.00000    0.00000   -4.84624    9    diag,B
   82      0.230D-02      0.332D-03    -11341.90883705   8536.126314    0.00000    0.00000   -4.77942    9    diag,B
   83      0.240D-02      0.183D-03    -11341.90843495   8536.015548    0.00000    0.00000   -4.83221    9    diag,B
   84      0.527D-03      0.219D-03    -11341.90845254   8535.954037    0.00000    0.00000   -4.83486    9    diag,B
   85      0.145D-03      0.187D-03    -11341.90429295   8535.076978    0.00000    0.00000   -4.76872    9    diag,B
   86      0.307D-02      0.698D-03    -11341.90897967   8535.980106    0.00000    0.00000   -4.76406    9    diag,B
   87      0.359D-02      0.146D-03    -11341.90830508   8535.897769    0.00000    0.00000   -4.85147    9    diag,B
   88      0.842D-03      0.214D-03    -11341.90834488   8535.934446    0.00000    0.00000   -4.84202    9    orth
   89      0.135D-03      0.203D-03    -11341.90462400   8535.050058    0.00000    0.00000   -4.77602    9    diag,B
   90      0.291D-02      0.649D-03    -11341.90889559   8535.960024    0.00000    0.00000   -4.77627    9    diag,B
   91      0.343D-02      0.156D-03    -11341.90822836   8535.873301    0.00000    0.00000   -4.85490    9    diag,B
   92      0.805D-03      0.226D-03    -11341.90818228   8535.906098    0.00000    0.00000   -4.85379    9    diag,B
   93      0.134D-03      0.226D-03    -11341.90335169   8535.057496    0.00000    0.00000   -4.73280    9    diag,B
   94      0.311D-02      0.801D-03    -11341.90876252   8535.869405    0.00000    0.00000   -4.79930    9    diag,B
   95      0.356D-02      0.157D-03    -11341.90796086   8535.779019    0.00000    0.00000   -4.87307    9    diag,B
   96      0.889D-03      0.254D-03    -11341.90787099   8535.864342    0.00000    0.00000   -4.87065    9    diag,B
   97      0.176D-03      0.273D-03    -11341.90520203   8535.039320    0.00000    0.00000   -4.79724    9    diag,B
   98      0.231D-02      0.570D-03    -11341.90882239   8535.928147    0.00000    0.00000   -4.78617    9    orth
   99      0.312D-02      0.165D-03    -11341.90803169   8535.836817    0.00000    0.00000   -4.86564    9    diag,B
  100      0.897D-03      0.253D-03    -11341.90754211   8535.748470    0.00000    0.00000   -4.87963    9    diag,B
  101      0.444D-03      0.310D-03    -11341.90416123   8535.376992    0.00000    0.00000   -4.80921    9    diag,B
  102      0.183D-02      0.744D-03    -11341.90841546   8535.743043    0.00000    0.00000   -4.84204    9    diag,B
  103      0.251D-02      0.180D-03    -11341.90699002   8535.619147    0.00000    0.00000   -4.89086    9    diag,B
  104      0.120D-02      0.382D-03    -11341.90693119   8535.682324    0.00000    0.00000   -4.88823    9    diag,B
  105      0.115D-03      0.399D-03    -11341.91031273   8536.057566    0.00000    0.00000   -4.36443    9    diag,B
  106      0.406D-02      0.185D-03    -11341.90954718   8535.632684    0.00000    0.00000   -4.62331    9    diag,B
  107      0.129D-02      0.476D-04    -11341.90753152   8535.378939    0.00000    0.00000   -4.84228    9    diag,B
  108      0.254D-02      0.291D-03    -11341.90885030   8535.683005    0.00000    0.00000   -4.75095    9    orth
  109      0.151D-02      0.130D-03    -11341.90897836   8535.867582    0.00000    0.00000   -4.72369    9    diag,B
  110      0.316D-03      0.149D-03    -11341.90362708   8535.433976    0.00000    0.00000   -4.79079    9    diag,B
  111      0.343D-02      0.816D-03    -11341.90784336   8535.623051    0.00000    0.00000   -4.85258    9    diag,B
  112      0.206D-02      0.257D-03    -11341.90677797   8535.416817    0.00000    0.00000   -4.86589    9    diag,B
  113      0.889D-03      0.394D-03    -11341.90871816   8535.813041    0.00000    0.00000   -4.78311    9    diag,B
  114      0.186D-02      0.159D-03    -11341.90790860   8535.772065    0.00000    0.00000   -4.85399    9    diag,B
  115      0.862D-03      0.267D-03    -11341.90647730   8535.527696    0.00000    0.00000   -4.85831    9    diag,B
  116      0.108D-02      0.458D-03    -11341.90752760   8535.704916    0.00000    0.00000   -4.87571    9    diag,B
  117      0.731D-03      0.312D-03    -11341.90719527   8535.687641    0.00000    0.00000   -4.89118    9    diag,B
  118      0.251D-03      0.354D-03    -11341.90710267   8535.398115    0.00000    0.00000   -4.83806    9    orth
  119      0.530D-03      0.358D-03    -11341.90899340   8535.780317    0.00000    0.00000   -4.74151    9    diag,B
  120      0.200D-02      0.124D-03    -11341.90960691   8536.100951    0.00000    0.00000   -4.60235    9    diag,B
  121      0.106D-02      0.128D-03    -11341.90862199   8535.785933    0.00000    0.00000   -4.81582    9    diag,B
  122      0.154D-02      0.133D-03    -11341.90869287   8535.689582    0.00000    0.00000   -4.79156    9    diag,B
[...]
                                -0.000000 -0.000148 -0.000000 -0.000371 -0.000000  0.000099  0.000000  0.000450  0.000000  0.000050
                                 0.000000 -0.000059  0.000000  0.000040  0.000000 -0.000050 -0.000000  0.000014  0.000000 -0.000029
                                -0.000000 -0.000061 -0.000001 -0.000147 -0.000002 -0.000181  0.000000 -0.000062  0.000000  0.000008
                                 0.000000 -0.000016  0.000000  0.000022 -0.000000 -0.000022  0.000000  0.000006 -0.000000  0.000000
                                 0.000033  0.000000  0.000000 -0.000028 -0.000000 -0.000000  0.000001  0.000008 -0.000006  0.000020
                                -0.000029  0.000067 -0.000006 -0.000000  0.000003 -0.000025  0.000010 -0.000000  0.000004 -0.000000
                                 0.000005  0.000000

   6.3   2    -1.3260  -48.5725 -0.000001 -0.000000 -0.000002 -0.000003 -0.000008 -0.000013 -0.000028 -0.000054 -0.000103 -0.000345
                                -0.000193 -0.001227 -0.003844 -0.011330 -0.029386 -0.042658 -0.003271  0.070900  0.044957 -0.202757
                                -0.042553  0.200590  0.340432  0.060050  0.012261 -0.007641  0.042244  0.109722 -0.069350 -0.292221
                                 0.176033  0.393549  0.003382  0.010923 -0.008410 -0.000934  0.000170 -0.000000 -0.000003 -0.000016
                                -0.000073 -0.000275 -0.000640 -0.000881 -0.000431  0.002960  0.002014  0.002186 -0.010896  0.000282
                                 0.001404 -0.001359 -0.001526 -0.004213 -0.004960 -0.000702 -0.000321  0.000056 -0.000043  0.000019
                                -0.000006 -0.000003  0.000000 -0.000056  0.000000 -0.000338  0.000000 -0.001024  0.000000 -0.002038
                                -0.000004 -0.002521 -0.000007 -0.005168  0.000008  0.000165  0.000002  0.000612  0.000007 -0.003264
                                 0.000011 -0.001093 -0.000007  0.000338  0.000002 -0.000148 -0.000001  0.000044  0.000000 -0.000004
                                -0.000000  0.000005 -0.000000 -0.000041 -0.000000  0.000103  0.000000 -0.000614 -0.000003 -0.000413
                                -0.000003  0.000011  0.000001 -0.000029  0.000001  0.000045  0.000000 -0.000004 -0.000000 -0.000000
                                 0.000009  0.000000  0.000000 -0.000148 -0.000000 -0.000000  0.000074  0.000545  0.001820  0.002905
                                 0.002566  0.000231  0.000054  0.000014 -0.000088 -0.000504 -0.000645 -0.000009  0.000038  0.000000
                                 0.000264  0.000000

   7.3   2    -0.2897  -19.3777  0.000000  0.000000  0.000000  0.000000  0.000000  0.000001  0.000001  0.000002  0.000005  0.000015
                                 0.000009  0.000055  0.000172  0.000506  0.001314  0.001906  0.000150 -0.003091 -0.001840  0.010151
                                 0.002645 -0.006996 -0.027823  0.011779  0.028542  0.053705 -0.001936 -0.005101  0.002604  0.012920
                                -0.011435 -0.024783 -0.007068 -0.040244  0.026862  0.001599 -0.000256  0.000002  0.000024  0.000154
                                 0.000697  0.002641  0.006134  0.008936  0.008099 -0.036901 -0.017947  0.001124  0.057274 -0.003812
                                -0.021227  0.024624  0.007591  0.038041  0.061241  0.026780  0.048621 -0.018934  0.006135 -0.001788
                                 0.000455  0.000012  0.000000  0.000193  0.000000  0.001160  0.000000  0.003510  0.000000  0.006681
                                -0.000000  0.007250 -0.000001  0.004987 -0.000004 -0.000440  0.000000 -0.001614  0.000000  0.010970
                                -0.000011  0.010711 -0.000004  0.012080  0.000009 -0.006386  0.000004  0.000916  0.000001 -0.000012
                                 0.000000  0.000095  0.000000 -0.000168  0.000000  0.000725 -0.000000 -0.001102 -0.000001  0.004604
                                 0.000001 -0.000748  0.000005  0.003588  0.000012 -0.000927  0.000006  0.000007 -0.000000 -0.000000
                                -0.000029  0.000000 -0.000000  0.000190 -0.000000  0.000000  0.010217  0.074867  0.261892  0.404794
                                 0.355631  0.108967  0.009398  0.002072 -0.002095 -0.007236 -0.018481 -0.000182  0.000643  0.000017
                                 0.005064  0.000016

   8.3   +    -0.9274  -81.7569 -0.000000 -0.000000 -0.000000 -0.000000 -0.000000 -0.000000 -0.000000 -0.000000 -0.000000 -0.000000
                                -0.000000 -0.000000 -0.000000 -0.000001 -0.000001 -0.000002 -0.000000  0.000004  0.000003 -0.000005
                                 0.000001  0.000044  0.000041 -0.000075 -0.000003 -0.000044  0.000002  0.000005 -0.000008 -0.000023
                                 0.000003  0.000016  0.000004  0.000013 -0.000011 -0.000001  0.000000 -0.000000 -0.000000 -0.000000
                                -0.000001 -0.000002 -0.000005 -0.000006  0.000002  0.000013  0.000022  0.000015 -0.000041  0.000001
                                 0.000001  0.000005 -0.000021 -0.000051 -0.000030  0.000028 -0.000019 -0.000009  0.000001 -0.000000
                                 0.000000  0.000004  0.000971  0.000062  0.015329  0.000386  0.095229  0.001073  0.265059  0.001590
                                 0.393200  0.001559  0.385467  0.000797  0.198291  0.000087  0.021235  0.000126  0.030666 -0.000092
                                -0.020096  0.000175  0.040723 -0.000118 -0.027586  0.000051  0.015502 -0.000019 -0.005395  0.000000
                                 0.000001  0.000000  0.000010  0.000001 -0.000043 -0.000001 -0.000061 -0.000004 -0.000756 -0.000011
                                -0.000957 -0.000001 -0.000467  0.000006 -0.000067 -0.000011  0.000030 -0.000000 -0.000028 -0.000000
                                -0.000000  0.000005 -0.000003 -0.000004 -0.000466 -0.000002 -0.000001 -0.000005 -0.000020 -0.000030
                                -0.000040  0.000021 -0.000001 -0.000000  0.000001 -0.000002  0.000007 -0.000000 -0.000001  0.000023
                                 0.000007 -0.000083

   9.3   +    -0.9221  -81.8218 -0.000000 -0.000000 -0.000000 -0.000000 -0.000000 -0.000000 -0.000000 -0.000001 -0.000001 -0.000004
                                -0.000002 -0.000013 -0.000041 -0.000122 -0.000316 -0.000463 -0.000002  0.001123  0.000957  0.001046
                                 0.003696  0.011412  0.006383 -0.008008  0.004143 -0.007692  0.000330  0.000697 -0.003408 -0.007593
                                -0.000667 -0.002859  0.000404  0.000852 -0.001050 -0.000107  0.000019 -0.000000 -0.000005 -0.000029
                                -0.000134 -0.000504 -0.001189 -0.001485  0.000496  0.003086  0.005010  0.003581 -0.009352  0.000200
                                 0.000245  0.000963 -0.005023 -0.011754 -0.008767  0.005798 -0.005633 -0.002029  0.000142 -0.000022
                                 0.000006  0.000972 -0.000004  0.015345 -0.000062  0.095335 -0.000385  0.265269 -0.001072  0.392990
                                -0.001590  0.385126 -0.001559  0.197501 -0.000804  0.021482 -0.000086  0.031213 -0.000124 -0.022574
                                 0.000081  0.043017 -0.000165 -0.029185  0.000111  0.012734 -0.000063 -0.004737  0.000022  0.000025
                                -0.000000  0.000005 -0.000000  0.000149  0.000000 -0.000458  0.000000 -0.001091  0.000002 -0.002620
                                 0.000003 -0.000066  0.000002  0.001489 -0.000000 -0.002696 -0.000000 -0.000050 -0.000000  0.000000
                                -0.000055 -0.000002  0.000000 -0.000941  0.000001  0.000000 -0.000208 -0.001488 -0.005702 -0.008515
                                -0.010895  0.004786 -0.000286 -0.000048  0.000108 -0.000720  0.001457 -0.000020 -0.000347 -0.000000
                                 0.001926  0.000000

  10.3   0    -0.0272  -15.8429 -0.000000 -0.000000 -0.000000 -0.000000 -0.000001 -0.000002 -0.000005 -0.000010 -0.000019 -0.000063
                                -0.000035 -0.000225 -0.000704 -0.002074 -0.005381 -0.007811 -0.000582  0.013016  0.008123 -0.038632
                                -0.005022  0.036316  0.106131 -0.009319 -0.202140 -0.303589  0.007799  0.020411 -0.013342 -0.058673
                                 0.045153  0.102052 -0.103023 -0.108424 -0.189844 -0.055476 -0.004459  0.000004  0.000050  0.000320
                                 0.001449  0.005489  0.012762  0.018377  0.015067 -0.073684 -0.038631  0.000481  0.115423 -0.007447
                                -0.040904  0.046345  0.020370  0.083532  0.092244  0.117611  0.123763  0.118130  0.099014  0.027870
                                 0.006428  0.000007 -0.000000  0.000110 -0.000001  0.000687 -0.000006  0.001897 -0.000017  0.002738
                                -0.000023  0.002578 -0.000021  0.000565  0.000006  0.000183 -0.000002  0.000279 -0.000005 -0.003615
                                 0.000059 -0.002504  0.000057 -0.007539 -0.000002 -0.006099 -0.000013 -0.013967 -0.000019 -0.000005
                                 0.000000 -0.000003 -0.000000 -0.000053  0.000000 -0.000059 -0.000001 -0.000896 -0.000002 -0.003169
                                -0.000005 -0.004936  0.000004 -0.004516  0.000006 -0.003774  0.000024 -0.000007 -0.000000  0.000000
                                 0.000021  0.000000  0.000000 -0.000155 -0.000001 -0.000000 -0.000320 -0.002312 -0.008565 -0.012655
                                -0.013845 -0.012178 -0.000378 -0.000070 -0.000121 -0.000953  0.000982 -0.000013  0.000121 -0.000000
                                 0.000008 -0.000001

  11.3   0     0.0033   -3.5781  0.000000  0.000000  0.000000  0.000000  0.000000  0.000000  0.000001  0.000002  0.000003  0.000011
                                 0.000005  0.000040  0.000119  0.000358  0.000911  0.001376 -0.000263 -0.006147 -0.006744 -0.028927
                                -0.040606 -0.119810 -0.097474  0.116184 -0.168141  0.692316  0.000122  0.002106  0.030259  0.052015
                                 0.039730  0.095652 -2.225163 -1.686528  2.483622  1.922546 -1.750085 -0.000001 -0.000012 -0.000078
                                -0.000348 -0.001331 -0.003046 -0.005051 -0.009156  0.029040  0.005041 -0.012987 -0.040371  0.003262
                                 0.020362 -0.026876  0.004549 -0.010037  0.009551 -0.088584  0.091012 -0.182847  0.199690 -0.315109
                                 0.619500 -0.000002  0.000000 -0.000036  0.000000 -0.000216  0.000001 -0.000635  0.000003 -0.001092
                                 0.000003 -0.000969  0.000003  0.000302 -0.000000  0.000037  0.000000  0.000159  0.000001  0.000053
                                -0.000011  0.005940 -0.000003 -0.007801 -0.000011  0.024909  0.000018 -0.035265 -0.000053  0.000000
                                 0.000000  0.000006 -0.000000 -0.000000  0.000000  0.000048 -0.000000  0.000133  0.000001  0.000892
                                -0.000001  0.000895  0.000001  0.001138 -0.000008  0.000557  0.000009  0.000002  0.000000 -0.000000
                                -0.000005 -0.000000 -0.000000  0.000035  0.000000  0.000000  0.000161  0.001177  0.004207  0.006417
                                 0.006445  0.003773  0.000163  0.000034  0.000022  0.000304 -0.000469  0.000004 -0.000008  0.000000
                                -0.000124  0.000000

                                   1 3d2-    1 3d2-    1 3d2-    1 3d2-    1 3d2-    1 3d2-    1 3d2-    1 3d2-    1 3d2-    1 3d2-
                                   1 3d2-    1 3d2-    1 3d2-    1 3d2-    1 3d2-    1 3d2-    1 3d2-    1 3d2-    1 3d2-    1 3d2-
                                   1 3d2-    1 3d2-    1 3d2-    1 3d2-    1 4f2-    1 4f2-    1 4f2-    1 4f2-    1 4f2-    1 4f2-
                                   1 4f2-    1 4f2-    1 4f2-    1 4f2-    1 4f2-    1 4f2-    1 4f2-    1 4f2-    1 5g2-    1 5g4-
                                   1 5g2-    1 5g4-    1 5g2-    1 5g4-    1 5g2-    1 5g4-    1 5g2-    1 5g4-    1 5g2-    1 5g4-
                                   1 5g2-    1 5g4-    1 5g2-    1 5g4-    1 5g2-    1 5g4-    1 6h4-    1 6h2-    1 6h4-    1 6h2-
                                   1 6h4-    1 6h2-    2 3d2-    2 3d2-    2 3d2-    2 3d2-    2 4f2-    2 4f2-

   1.4   2   -45.5482 -262.5123  0.000109  0.001342  0.008440  0.038127  0.140310  0.328162  0.474717  0.405212 -0.074333  0.009976
                                 0.005534  0.000626 -0.076490 -0.233435  0.205978 -0.007700 -0.001989 -0.000517  0.000434 -0.000282
                                 0.000161 -0.000058  0.000025 -0.000007 -0.000000  0.000004  0.000005 -0.000010 -0.000013 -0.000004
                                -0.000000  0.000012  0.000007 -0.000000 -0.000000  0.000000 -0.000000  0.000000 -0.000009 -0.000000
                                 0.000004  0.000000 -0.000004 -0.000000  0.000003  0.000000 -0.000002 -0.000000  0.000001  0.000000
                                -0.000001 -0.000000  0.000001  0.000000 -0.000000 -0.000000  0.000000  0.000001  0.000000 -0.000000
                                -0.000000  0.000000 -0.000000  0.000000 -0.000000  0.000000  0.000000 -0.000000

   2.4   2    -6.2843 -106.0332 -0.000052 -0.000635 -0.004048 -0.018312 -0.069236 -0.160672 -0.237060 -0.244003  0.893960  0.396713
                                 0.091733  0.008185  0.098328  0.550682 -0.653322  0.053863 -0.002849 -0.006210  0.005417 -0.003619
                                 0.002101 -0.000772  0.000331 -0.000095  0.000000 -0.000001  0.000008  0.000013 -0.000097 -0.000069
                                -0.000184  0.000033  0.000190  0.000016 -0.000032  0.000021 -0.000011  0.000004 -0.000020 -0.000001
                                -0.000039 -0.000001 -0.000068 -0.000003 -0.000104  0.000000 -0.000062  0.000001 -0.000008  0.000000
                                -0.000006  0.000000  0.000003 -0.000000 -0.000001  0.000000 -0.000000  0.000004  0.000000  0.000023
                                -0.000000 -0.000019 -0.000001  0.000002 -0.000004  0.000000  0.000000 -0.000005

   3.4   +    -0.9246  -81.8478 -0.000000 -0.000002 -0.000014 -0.000066 -0.000248 -0.000579 -0.000799 -0.000401  0.002873  0.001870
                                 0.000026 -0.006430  0.000265  0.001352 -0.001380 -0.001298 -0.003963 -0.000714 -0.002048  0.001446
                                -0.000769  0.000206 -0.000061  0.000018  0.000972  0.015348  0.095350  0.265374  0.393506  0.385634
                                 0.196996  0.021296  0.030820 -0.021373  0.040668 -0.027375  0.015470 -0.005393  0.000007  0.000000
                                 0.000033  0.000000 -0.000005 -0.000000 -0.000114 -0.000001 -0.001305 -0.000001 -0.001452 -0.000001
                                -0.000382  0.000000  0.000155  0.000000  0.000038  0.000000 -0.000000 -0.000042 -0.000002 -0.000025
                                -0.000001 -0.000753  0.000031  0.000102 -0.000375  0.000002 -0.000032  0.000087

   4.4   0    -0.0051  -24.4351  0.000009  0.000113  0.000720  0.003263  0.012360  0.028742  0.041318  0.033365 -0.164908 -0.087420
                                -0.000772  0.276651 -0.016626 -0.091086  0.102843  0.047137  0.189145  0.228842  0.187982  0.179009
                                 0.113911  0.123028  0.040626  0.039222  0.000018  0.000283  0.001774  0.004796  0.006385  0.005891
                                 0.002534  0.000728  0.001493 -0.013399 -0.032164 -0.043668 -0.025793 -0.044808 -0.000006  0.000000
                                -0.000013 -0.000000 -0.000061  0.000000 -0.000226 -0.000003 -0.001273 -0.000007 -0.004804 -0.000004
                                -0.007400  0.000014 -0.007067  0.000015 -0.002031  0.000036 -0.000000 -0.000007  0.000000  0.000019
                                -0.000001 -0.000122  0.000285  0.001310  0.002142  0.000022 -0.000101 -0.000458

   5.4   0     0.0106   -3.5515 -0.000001 -0.000015 -0.000097 -0.000432 -0.001669 -0.003748 -0.007205 -0.019532  0.052759 -0.000032
                                -0.035145 -0.069569  0.006219  0.040807 -0.056585  0.019693  0.002814  0.058223 -0.199866  0.309076
                                -0.469949  0.618769 -1.047713  1.570987 -0.000002 -0.000036 -0.000208 -0.000688 -0.001522 -0.001291
                                 0.001059  0.000227  0.000664 -0.001937  0.014979 -0.023487  0.059218 -0.097621  0.000002  0.000000
                                -0.000002 -0.000000  0.000017  0.000000  0.000009  0.000000  0.000213  0.000001  0.000550 -0.000001
                                 0.001134  0.000001  0.000563 -0.000008  0.000496  0.000011  0.000000  0.000001 -0.000000 -0.000003
                                 0.000000  0.000017 -0.000028 -0.000166 -0.000053 -0.000003  0.000013  0.000066

 HOMO     19.1    -0.273934 =      -7.4541eV
 LUMO     10.3    -0.027189 =      -0.7398eV
 LUMO-HOMO         0.246745 =       6.7143eV

 No convergence



 **********************************************************************************************************************************
 DATASETS  * FILE   NREC   LENGTH (MB)   RECORD NAMES
              1      22       25.84       500      610      700      900      950      970     1001      129      960     1700
                                          VAR    BASINP    GEOM    SYMINP    ZMAT    AOBASIS   BASIS     P2S    ABASIS    OPER
                                         1101     1401     1411     1412     1650     1100     1400     1410     1200     1210
                                          SR      EKINR    POTR     PVPR    MOLCAS      S      EKIN      POT      H0       H01
                                         1080     1600
                                         AOSYM     SMH

              2       8       11.66       700     1000      520     1800     2202     3202     1001     4202
                                         GEOM     BASIS   MCVARS    GRID      RKS      RHF     BASIS     RHF

 PROGRAMS   *        TOTAL       RHF       INT       RHF       RKS       INT
 CPU TIMES  *       739.02    330.47    371.55     10.79      2.19     23.66
 REAL TIME  *       848.95 SEC
 DISK USED  *        20.23 GB
 SF USED    *         0.35 MB
 GA USED    *         0.23 MB       (max)       0.00 MB       (current)
 **********************************************************************************************************************************
   -->
   <time start="08:05:13" end="08:18:42" cpu="702.09" system="69.58" real="808.95"/>
   <storage units="megabyte" memory="8001.84" sf="0.35" df="553.99" eaf="19680.08" ga="0.0"/>
  </jobstep><!--
 SETTING SCF            =    -11342.16983176  AU
 SETTING _CC_NORM_MAX   =         2.00000000
  --><jobstep command="RCCSD(T)" commandset="CCSD">
   <!--


 PROGRAM * CCSD (Restricted open-shell coupled cluster)     Authors: C. Hampel, H.-J. Werner, 1991, M. Deegan, P.J. Knowles, 1992


 Convergence thresholds:  THRVAR = 1.00D-08  THRDEN = 1.44D-06

 CCSD(T)     terms to be evaluated (factor= 1.000)


 Number of core orbitals:          24 (  12   5   5   2 )
 Number of closed-shell orbitals:   8 (   4   2   2   0 )
 Number of active  orbitals:        8 (   3   2   2   1 )
 Number of external orbitals:     512 ( 201 123 123  65 )

 Memory could be reduced to 838.31 Mwords without degradation in triples

 Number of N-1 electron functions:              24
 Number of N-2 electron functions:             276
 Number of singly external CSFs:              3810
 Number of doubly external CSFs:          13939122
 Total number of CSFs:                    13942932

 Molecular orbitals read from record     4202.2  Type=RHF/CANONICAL (state 1.4)

 ?Error: RHF not converged. This error exit can be avoided using the IGNORE_ERROR option on the ORBITAL directive
   --><error/><!--
  --></jobstep><!--
  -->
  <input>
  <!--
 --></job><!--
--></molpro>
