<?xml version="1.0"?>
<molpro xmlns="http://www.molpro.net/schema/molpro-output"
  xmlns:xsd="http://www.w3.org/1999/XMLSchema"
  xmlns:cml="http://www.xml-cml.org/schema"
  xmlns:stm="http://www.xml-cml.org/schema"
  xmlns:xhtml="http://www.w3.org/1999/xhtml">
 <!--

 Nodes     nprocs
 nid01768    11
 Number of processes for MPI-2 version of Molpro:   nprocs(total)=   12   nprocs(compute)=   11   nprocs(helper)=    1

 Using customized tuning parameters: mindgm=7; mindgv=16; mindgc=1; mindgr=1; noblas=0; minvec=7
 default implementation of scratch files=sf

 --><job>
  <!--

 Variables initialized (889), CPU time= 0.02 sec
 Commands  initialized (702), CPU time= 0.01 sec, 572 directives.
 Default parameters read. Elapsed time= 0.15 sec

 Checking input...
 Passed
1


                                         ***  PROGRAM SYSTEM MOLPRO  ***
                                       Copyright, TTI GmbH Stuttgart, 2015
                                    Version 2015.1 linked Dec 29 2018 15:55:43


 **********************************************************************************************************************************
 LABEL *   Calculation for Nb atom, singlet and triplet
  64 bit mpp version                                                                     DATE: 30-Sep-22          TIME: 06:23:13
 **********************************************************************************************************************************

 SHA1:             19cd028119e0e09f93f0674bd8af7968d9b3eff6
 **********************************************************************************************************************************
  -->
  <!--

Geometry recognized as XYZ


 THRESHOLDS:

 ZERO    =  1.00D-12  ONEINT  =  1.00D-12  TWOINT  =  1.00D-15  PREFAC  =  1.00D-14  LOCALI  =  1.00D-09  EORDER  =  1.00D-04
 ENERGY  =  0.00D+00  ETEST   =  0.00D+00  EDENS   =  0.00D+00  THRDEDEF=  1.00D-06  GRADIENT=  1.00D-02  STEP    =  1.00D-03
 ORBITAL =  1.00D-05  CIVEC   =  1.00D-05  COEFF   =  1.00D-04  PRINTCI =  5.00D-02  PUNCHCI =  9.90D+01  OPTGRAD =  3.00D-04
 OPTENERG=  1.00D-06  OPTSTEP =  3.00D-04  THRGRAD =  1.00D-10  COMPRESS=  1.00D-11  VARMIN  =  1.00D-07  VARMAX  =  1.00D-03
 THRDOUB =  0.00D+00  THRDIV  =  1.00D-05  THRRED  =  1.00D-07  THRPSP  =  1.00D+00  THRDC   =  1.00D-10  THRCS   =  1.00D-10
 THRNRM  =  1.00D-08  THREQ   =  0.00D+00  THRDE   =  1.00D+00  THRREF  =  1.00D-05  SPARFAC =  1.00D+00  THRDLP  =  1.00D-07
 THRDIA  =  1.00D-10  THRDLS  =  1.00D-07  THRGPS  =  0.00D+00  THRKEX  =  0.00D+00  THRDIS  =  2.00D-01  THRVAR  =  1.00D-10
 THRLOC  =  1.00D-06  THRGAP  =  1.00D-06  THRLOCT = -1.00D+00  THRGAPT = -1.00D+00  THRORB  =  1.00D-06  THRMLTP =  0.00D+00
 THRCPQCI=  1.00D-10  KEXTA   =  0.00D+00  THRCOARS=  0.00D+00  SYMTOL  =  1.00D-06  GRADTOL =  1.00D-06  THROVL  =  1.00D-08
 THRORTH =  1.00D-08  GRID    =  1.00D-06  GRIDMAX =  1.00D-03  DTMAX   =  0.00D+00  THROCCDE=  1.00D-01  THROCCDE=  1.00D-01



 THRESHOLDS:

 ZERO    =  1.00D-12  ONEINT  =  1.00D-15  TWOINT  =  1.00D-15  PREFAC  =  1.00D-14  LOCALI  =  1.00D-09  EORDER  =  1.00D-04
 ENERGY  =  0.00D+00  ETEST   =  0.00D+00  EDENS   =  0.00D+00  THRDEDEF=  1.00D-06  GRADIENT=  1.00D-02  STEP    =  1.00D-03
 ORBITAL =  1.00D-05  CIVEC   =  1.00D-05  COEFF   =  1.00D-04  PRINTCI =  5.00D-02  PUNCHCI =  9.90D+01  OPTGRAD =  3.00D-04
 OPTENERG=  1.00D-06  OPTSTEP =  3.00D-04  THRGRAD =  1.00D-10  COMPRESS=  1.00D-11  VARMIN  =  1.00D-07  VARMAX  =  1.00D-03
 THRDOUB =  0.00D+00  THRDIV  =  1.00D-05  THRRED  =  1.00D-07  THRPSP  =  1.00D+00  THRDC   =  1.00D-10  THRCS   =  1.00D-10
 THRNRM  =  1.00D-08  THREQ   =  0.00D+00  THRDE   =  1.00D+00  THRREF  =  1.00D-05  SPARFAC =  1.00D+00  THRDLP  =  1.00D-07
 THRDIA  =  1.00D-10  THRDLS  =  1.00D-07  THRGPS  =  0.00D+00  THRKEX  =  0.00D+00  THRDIS  =  2.00D-01  THRVAR  =  1.00D-10
 THRLOC  =  1.00D-06  THRGAP  =  1.00D-06  THRLOCT = -1.00D+00  THRGAPT = -1.00D+00  THRORB  =  1.00D-06  THRMLTP =  0.00D+00
 THRCPQCI=  1.00D-10  KEXTA   =  0.00D+00  THRCOARS=  0.00D+00  SYMTOL  =  1.00D-06  GRADTOL =  1.00D-06  THROVL  =  1.00D-08
 THRORTH =  1.00D-08  GRID    =  1.00D-06  GRIDMAX =  1.00D-03  DTMAX   =  0.00D+00  THROCCDE=  1.00D-01  THROCCDE=  1.00D-01



 Variable memory set to 1000000000 words,  buffer space   230000 words

 SETTING BASIS          =    USERDEF

 DO I                   =         1.00000000

 Running procedure=ID4S1
  --><jobstep command="RHF-SCF" commandset="SCFPRO">
   <!--


 Recomputing integrals since basis changed


 Using spherical harmonics



 PROGRAM * SEWARD (Integral evaluation for generally contracted gaussian basis sets)     Author: Roland Lindh, 1990

 Geometry written to block  1 of record 700

 Orientation using atomic masses
 Molecule type: Atom
 Symmetry elements: X,Y,Z
 Rotational constants:       0.0000000      0.0000000      0.0000000 GHz  (calculated with average atomic masses)

 Point group  D2h


   --><cml:molecule>
    <cml:symmetry pointGroup="D2h"/>
    <cml:atomArray>
     <cml:atom id="a1" elementType="Nb" x3="0.0" y3="0.0" z3="0.0"/>
    </cml:atomArray>
    <cml:bondArray>
    </cml:bondArray>
   </cml:molecule><!--

 ATOMIC COORDINATES

 NR  ATOM    CHARGE       X              Y              Z

   1  NB     13.00    0.000000000    0.000000000    0.000000000

 NUCLEAR CHARGE:                   13
 NUMBER OF PRIMITIVE AOS:         364
 NUMBER OF SYMMETRY AOS:          302
 NUMBER OF CONTRACTIONS:          302   (  93Ag  +  37B3u +  37B2u +  31B1g +  37B1u +  31B2g +  31B3g +   5Au  )
 NUMBER OF CORE ORBITALS:           4   (   1Ag  +   1B3u +   1B2u +   0B1g +   1B1u +   0B2g +   0B3g +   0Au  )
 NUMBER OF VALENCE ORBITALS:        6   (   3Ag  +   0B3u +   0B2u +   1B1g +   0B1u +   1B2g +   1B3g +   0Au  )


 NUCLEAR REPULSION ENERGY    0.00000000

 EXTRA SYMMETRY OF AOS IN SYMMETRY 1:   1 1 1 1 1 1 1 1 1 1   1 1 1 1 1 1 1 1 1 1   1 1 1 1 1 1 1 1 1 1   1 1 1 1 1 1 2 1 2 1
                                        2 1 2 1 2 1 2 1 2 1   2 1 2 1 2 1 2 1 2 1   2 1 2 1 2 1 2 1 2 1   2 1 2 1 2 1 2 1 2 1
                                        2 3 4 5 3 4 5 3 4 5   3 4 5
 EXTRA SYMMETRY OF AOS IN SYMMETRY 2:   1 1 1 1 1 1 1 1 1 1   1 1 1 1 1 1 1 1 1 1   1 1 1 1 1 1 1 2 3 2   3 2 3 2 3 2 3
 EXTRA SYMMETRY OF AOS IN SYMMETRY 3:   1 1 1 1 1 1 1 1 1 1   1 1 1 1 1 1 1 1 1 1   1 1 1 1 1 1 1 2 3 2   3 2 3 2 3 2 3
 EXTRA SYMMETRY OF AOS IN SYMMETRY 4:   1 1 1 1 1 1 1 1 1 1   1 1 1 1 1 1 1 1 1 1   1 1 1 2 3 2 3 2 3 2   3
 EXTRA SYMMETRY OF AOS IN SYMMETRY 5:   1 1 1 1 1 1 1 1 1 1   1 1 1 1 1 1 1 1 1 1   1 1 1 1 1 1 1 2 3 2   3 2 3 2 3 2 3
 EXTRA SYMMETRY OF AOS IN SYMMETRY 6:   1 1 1 1 1 1 1 1 1 1   1 1 1 1 1 1 1 1 1 1   1 1 1 2 3 2 3 2 3 2   3
 EXTRA SYMMETRY OF AOS IN SYMMETRY 7:   1 1 1 1 1 1 1 1 1 1   1 1 1 1 1 1 1 1 1 1   1 1 1 2 3 2 3 2 3 2   3

 Eigenvalues of metric

         1 0.110E-07 0.110E-07 0.137E-06 0.116E-05 0.371E-05 0.732E-05 0.290E-04 0.310E-04
         2 0.498E-06 0.369E-05 0.503E-04 0.593E-03 0.140E-02 0.379E-02 0.874E-02 0.123E-01
         3 0.498E-06 0.369E-05 0.503E-04 0.593E-03 0.140E-02 0.379E-02 0.874E-02 0.123E-01
         4 0.110E-07 0.310E-04 0.253E-03 0.976E-03 0.212E-02 0.511E-02 0.139E-01 0.302E-01
         5 0.498E-06 0.369E-05 0.503E-04 0.593E-03 0.140E-02 0.379E-02 0.874E-02 0.123E-01
         6 0.110E-07 0.310E-04 0.253E-03 0.976E-03 0.212E-02 0.511E-02 0.139E-01 0.302E-01
         7 0.110E-07 0.310E-04 0.253E-03 0.976E-03 0.212E-02 0.511E-02 0.139E-01 0.302E-01
         8 0.144E+00 0.373E+00 0.826E+00 0.148E+01 0.218E+01


 Contracted 2-electron integrals neglected if value below      1.0D-15
 AO integral compression algorithm  1   Integral accuracy      1.0D-15

     1119.093 MB (compressed) written to integral file ( 49.0%)

     Node minimum: 42.729 MB, node maximum: 174.850 MB


 NUMBER OF SORTED TWO-ELECTRON INTEGRALS:   12427187.     BUFFER LENGTH:  32768
 NUMBER OF SEGMENTS:   1  SEGMENT LENGTH:   12427187      RECORD LENGTH: 524288

 Memory used in sort:      12.98 MW

 SORT1 READ   285316239. AND WROTE     7913231. INTEGRALS IN     23 RECORDS. CPU TIME:     5.04 SEC, REAL TIME:     5.23 SEC
 SORT2 READ    87160121. AND WROTE   137103552. INTEGRALS IN   5489 RECORDS. CPU TIME:     0.34 SEC, REAL TIME:     0.55 SEC

 Node minimum:    12426462.  Node maximum:    12574472. integrals

 OPERATOR DM      FOR CENTER  0  COORDINATES:    0.000000    0.000000    0.000000


 **********************************************************************************************************************************
 DATASETS  * FILE   NREC   LENGTH (MB)   RECORD NAMES
              1      19       20.62       500      610      700      900      950      970     1000      129      960     1100
                                          VAR    BASINP    GEOM    SYMINP    ZMAT    AOBASIS   BASIS     P2S    ABASIS      S
                                         1400     1410     1420     1200     1210     1080     1600     1650     1700
                                           T        V       ECP      H0       H01     AOSYM     SMH    MOLCAS    OPER

 PROGRAMS   *        TOTAL       INT
 CPU TIMES  *        73.20     72.81
 REAL TIME  *        75.06 SEC
 DISK USED  *         2.16 GB
 GA USED    *         0.00 MB       (max)       0.00 MB       (current)
 **********************************************************************************************************************************


 PROGRAM * RHF-SCF (OPEN SHELL)       Authors: W. Meyer, H.-J. Werner


 NUMBER OF ELECTRONS:       9+    4-    SPACE SYMMETRY=1    SPIN SYMMETRY: Sextet
 CONVERGENCE THRESHOLDS:    1.00E-05 (Density)    1.00E-07 (Energy)
 MAX. NUMBER OF ITERATIONS:       60
 INTERPOLATION TYPE:            DIIS
 INTERPOLATION STEPS:              2 (START)      1 (STEP)
 LEVEL SHIFTS:                 -0.60 (CLOSED) -0.30 (OPEN)

 Number of closed-shell orbitals:    4 (   1   1   1   0   1   0   0   0 )
 Number of open-shell orbitals:      5 (   2   0   0   1   0   1   1   0 )



 Extra symmetries of mos in symmetry 1:   1   1   3   2
     Symmetry restrictions:    1             1
 Orbital guess generated from atomic densities. Full valence occupancy:    4   1   1   1   1   1   1   0


 Molecular orbital dump at record        3202.2

 ITERATION    DDIFF          GRAD             ENERGY        2-EL.EN.            DIPOLE MOMENTS         DIIS   ORB.
    1      0.000D+00      0.000D+00       -55.36105334     68.796548    0.00000    0.00000    0.00000    0    start
    2      0.000D+00      0.142D-01       -55.62558149     75.137482    0.00000    0.00000    0.00000    1    diag,B
    3      0.388D+00      0.520D-02       -55.66131741     75.517755    0.00000    0.00000    0.00000    2    diag,B
    4      0.782D-01      0.271D-02     34096.44978471     89.809305    0.00000    0.00000    0.00000    3    diag,B
    5      0.591D+02      0.322D-01     34096.45034150     89.815982    0.00000    0.00000    0.00000    4    diag,B
    6      0.131D-03      0.322D-01       -54.93393259     75.634132    0.00000    0.00000    0.00000    5    diag,B
    7      0.591D+02      0.125D-01     76682.74560491     87.255555    0.00000    0.00000    0.00000    6    fixocc
    8      0.257D+02      0.482D-01     34096.28550405     87.255064    0.00000    0.00000    0.00000    7    diag,B
    9      0.341D+02      0.214D-01     76682.72055422     86.578335    0.00000    0.00000    0.00000    8    diag,B
   10      0.341D+02      0.562D-01       -49.38612350     83.139980    0.00000    0.00000    0.00000    9    orth
   11      0.257D+02      0.697D-02       -49.38350671     82.756160    0.00000    0.00000    0.00000    9    diag,B
     Orbital  3.1 strongly deviates from fixed occupation: 0.87622  (now: 1.00)
     Note:  Use {hf,nitord=N} to fix occupations at iteration N
            Use {gthresh,occdev=1.0} to suppress deviation warnings
   12      0.240D-01      0.722D-02     76682.70735775     86.558972    0.00000    0.00000    0.00000    9    diag,B
   13      0.257D+02      0.582D-01     34096.24872079     86.616923    0.00000    0.00000    0.00000    9    diag,B
   14      0.341D+02      0.184D-01     76682.68149941     85.995590    0.00000    0.00000    0.00000    9    diag,B
   15      0.341D+02      0.707D-01     34096.22142157     85.995218    0.00000    0.00000    0.00000    9    diag,B
   16      0.341D+02      0.155D-01     76682.64479008     84.890914    0.00000    0.00000    0.00000    9    diag,B
   17      0.341D+02      0.904D-01     34096.18473129     84.890557    0.00000    0.00000    0.00000    9    diag,B
   18      0.341D+02      0.108D-01     76682.62165465     83.817138    0.00000    0.00000    0.00000    9    diag,B
   19      0.341D+02      0.110D+00     34096.16161715     83.816787    0.00000    0.00000    0.00000    9    diag,B
   20      0.341D+02      0.627D-02    179468.83793548     82.260025    0.00000    0.00000    0.00000    9    orth
   21      0.488D+02      0.110D+00     76682.60971558     82.259876    0.00000    0.00000    0.00000    9    diag,B
   22      0.150D+02      0.139D+00    179468.83790798     82.358136    0.00000    0.00000    0.00000    9    diag,B
   23      0.150D+02      0.109D+00     76682.60968781     82.357986    0.00000    0.00000    0.00000    9    diag,B
   24      0.150D+02      0.139D+00    179468.83790799     82.358135    0.00000    0.00000    0.00000    9    diag,B
   25      0.150D+02      0.109D+00     76682.60968781     82.357985    0.00000    0.00000    0.00000    9    diag,B
   26      0.150D+02      0.139D+00    179468.83790798     82.358135    0.00000    0.00000    0.00000    9    diag,B
   27      0.150D+02      0.109D+00     76682.60968778     82.357985    0.00000    0.00000    0.00000    9    diag,B
   28      0.150D+02      0.139D+00    179468.83790803     82.358135    0.00000    0.00000    0.00000    9    diag,B
   29      0.150D+02      0.109D+00     76682.60968777     82.357985    0.00000    0.00000    0.00000    9    diag,B
   30      0.150D+02      0.139D+00    179468.83790800     82.358135    0.00000    0.00000    0.00000    9    orth
   31      0.150D+02      0.109D+00     76682.60968784     82.357985    0.00000    0.00000    0.00000    9    diag,B
   32      0.150D+02      0.139D+00    179468.83790798     82.358135    0.00000    0.00000    0.00000    9    diag,B
   33      0.150D+02      0.109D+00     76682.60968782     82.357985    0.00000    0.00000    0.00000    9    diag,B
   34      0.150D+02      0.139D+00    179468.83790800     82.358135    0.00000    0.00000    0.00000    9    diag,B
   35      0.150D+02      0.109D+00     76682.60968784     82.357985    0.00000    0.00000    0.00000    9    diag,B
   36      0.150D+02      0.139D+00    179468.83790800     82.358135    0.00000    0.00000    0.00000    9    diag,B
   37      0.150D+02      0.109D+00     76682.60968782     82.357985    0.00000    0.00000    0.00000    9    diag,B
   38      0.150D+02      0.139D+00    179468.83790803     82.358135    0.00000    0.00000    0.00000    9    diag,B
   39      0.150D+02      0.109D+00     76682.60968777     82.357985    0.00000    0.00000    0.00000    9    diag,B
   40      0.150D+02      0.139D+00    179468.83790802     82.358135    0.00000    0.00000    0.00000    9    orth


 ?APPARENTLY NO CONVERGENCE, EXIT AFTER THREE FURTHER ITERATIONS


   41      0.150D+02      0.109D+00     76682.60968777     82.357985    0.00000    0.00000    0.00000    9    diag,B
   42      0.150D+02      0.139D+00    179468.83781415     82.369459    0.00000    0.00000    0.00000    9    orth
   43      0.150D+02      0.109D+00     76682.60436527     82.352678    0.00000    0.00000    0.00000    0    orth

 Final alpha occupancy:   3   1   1   1   1   1   1   0
 Final beta  occupancy:   1   1   1   0   1   0   0   0

 !RHF STATE 1.1 Energy                76682.6043652713
   --><property name="Energy" method="RHF" principal="true" stateSymmetry="1" stateNumber="1"
     value="76682.6043652713"/><!--
 Nuclear energy                         0.00000000
 One-electron energy                76641.42802646
 Two-electron energy                   41.17633882
 Virial quotient                        1.67053587
 !RHF STATE 1.1 Dipole moment           0.00000000     0.00000000     0.00000000
 Dipole moment /Debye                   0.00000000     0.00000000     0.00000000
   --><property name="Dipole moment" method="RHF" principal="true" stateSymmetry="1"
     stateNumber="1" value="0.0 0.0 0.0"/><!--

 ELECTRON ORBITALS
 =================


   Orb  Occ    Energy  Couls-En    Coefficients

                                   1 1s      1 1s      1 1s      1 1s      1 1s      1 1s      1 1s      1 1s      1 1s      1 1s
                                   1 1s      1 1s      1 1s      1 1s      1 1s      1 1s      1 1s      1 1s      1 1s      1 1s
                                   1 1s      1 1s      1 1s      1 1s      1 1s      1 1s      1 1s      1 1s      1 1s      1 1s
                                   1 1s      1 1s      1 1s      1 1s      1 1s      1 3d0     1 3d2+    1 3d0     1 3d2+    1 3d0
                                   1 3d2+    1 3d0     1 3d2+    1 3d0     1 3d2+    1 3d0     1 3d2+    1 3d0     1 3d2+    1 3d0
                                   1 3d2+    1 3d0     1 3d2+    1 3d0     1 3d2+    1 3d0     1 3d2+    1 3d0     1 3d2+    1 3d0
                                   1 3d2+    1 3d0     1 3d2+    1 3d0     1 3d2+    1 3d0     1 3d2+    1 3d0     1 3d2+    1 3d0
                                   1 3d2+    1 3d0     1 3d2+    1 3d0     1 3d2+    1 3d0     1 3d2+    1 3d0     1 3d2+    1 3d0
                                   1 3d2+    1 5g0     1 5g4+    1 5g2+    1 5g0     1 5g4+    1 5g2+    1 5g0     1 5g4+    1 5g2+
                                   1 5g0     1 5g4+    1 5g2+

   1.1   2    -2.4603  -11.9441  0.000000 -0.000000  0.000000 -0.000000  0.000000 -0.000000  0.000000 -0.000000  0.000000 -0.000001
                                 0.000004 -0.000013  0.000045 -0.000424  0.001319 -0.001662  0.002430 -0.011327  0.079452 -0.311116
                                 0.845814 -1.042030  0.006599 -0.106981  0.687662  0.181884  0.416475  0.040437  0.063765 -0.012567
                                 0.001337 -0.002417  0.000406 -0.000158  0.000024 -0.000000 -0.000000  0.000000  0.000000 -0.000000
                                -0.000000  0.000000  0.000000 -0.000000 -0.000000  0.000001  0.000000 -0.000004 -0.000001 -0.000002
                                -0.000001  0.000018  0.000005  0.002201  0.000518  0.000000  0.000000 -0.000039 -0.000005 -0.002170
                                -0.000511  0.000270  0.000062  0.000051  0.000007  0.000071  0.000015 -0.000001 -0.000001  0.000016
                                 0.000003  0.000017  0.000002  0.000001  0.000001  0.000009  0.000001  0.000003  0.000001  0.000002
                                -0.000000 -0.000123 -0.000102  0.000001 -0.001004 -0.000844  0.000000 -0.000666 -0.000564  0.000000
                                 0.000043  0.000041  0.000000

   2.1   +    -0.2196   -3.7751  0.000000 -0.000000  0.000000 -0.000000  0.000000 -0.000000  0.000000 -0.000000  0.000000 -0.000001
                                 0.000003 -0.000010  0.000037 -0.000217  0.000537 -0.000507  0.000269  0.001227 -0.015433  0.073063
                                -0.227818  0.315706 -0.018702  0.046081 -0.254300 -0.148233 -0.136100 -0.205635  0.059444  0.172873
                                 0.666123  0.346354  0.007238  0.000983 -0.000952  0.000000  0.000000 -0.000000 -0.000000  0.000001
                                 0.000000 -0.000003 -0.000000  0.000010  0.000001 -0.000022 -0.000003  0.000116  0.000015  0.000122
                                 0.000016 -0.000475 -0.000062 -0.104573 -0.013679 -0.000000 -0.000000  0.000872  0.000116  0.106404
                                 0.013919 -0.012746 -0.001663  0.003290  0.000427 -0.007819 -0.001017 -0.005828 -0.000740 -0.001425
                                -0.000228 -0.004738 -0.000701  0.000480 -0.000016 -0.002187 -0.000320 -0.000401 -0.000137 -0.000344
                                 0.000090 -0.000193 -0.000189 -0.000002 -0.002617 -0.002359 -0.000015 -0.005299 -0.004536 -0.000004
                                -0.002668 -0.003032 -0.000087

   3.1   + 76813.7844**********  0.000030 -0.000343  0.002487 -0.014326  0.070286 -0.302571  1.222451 -4.563120  9.269883-10.054744
                                 8.951664 -8.280781  9.548875-21.473467 32.648056-20.918777  6.974447 -5.193576  6.915703 -8.991888
                                 9.371053 -7.623746  5.430278 -6.495204  6.821237 -7.426329  6.456937 -2.868647  1.273387 -0.404614
                                 0.085766 -0.024753  0.009585 -0.003542  0.000968 -0.000000 -0.000000  0.000000  0.000000 -0.000000
                                -0.000000  0.000000  0.000000 -0.000000 -0.000000  0.000000  0.000000 -0.000000 -0.000000  0.000000
                                 0.000000 -0.000000 -0.000000 -0.000000 -0.000000  0.000000  0.000000  0.000000  0.000000  0.000000
                                 0.000000  0.000000 -0.000000 -0.000000  0.000000  0.000000 -0.000000 -0.000000  0.000000  0.000000
                                 0.000000 -0.000000 -0.000000  0.000000  0.000000 -0.000000 -0.000000  0.000000  0.000000 -0.000000
                                -0.000000  0.000000  0.000000 -0.000000 -0.000000 -0.000000  0.000000  0.000000  0.000000 -0.000000
                                -0.000000 -0.000000  0.000000

   4.1   0     0.0089   -0.4977 -0.000000  0.000000 -0.000000  0.000000 -0.000000  0.000000 -0.000000  0.000000 -0.000000  0.000000
                                -0.000000  0.000000 -0.000000  0.000000 -0.000001  0.000001 -0.000001  0.000003 -0.000011  0.000031
                                -0.000076  0.000112 -0.000124  0.000342 -0.000659  0.001491 -0.002070  0.001814 -0.001635  0.001138
                                -0.000672  0.000843 -0.001354  0.002459 -0.001858 -0.000000 -0.000000  0.000000  0.000001 -0.000000
                                -0.000003  0.000001  0.000014 -0.000003 -0.000046  0.000010  0.000132 -0.000027 -0.000375  0.000073
                                 0.001004 -0.000301 -0.004161 -0.201825 -2.789133  0.000000  0.000000  0.003577  0.049429  0.212688
                                 2.939256 -0.025043 -0.346085  0.016388  0.226474 -0.008054 -0.111309  0.018601  0.257048 -0.023442
                                -0.323951  0.020253  0.279864 -0.068153 -0.941824  0.071698  0.990789 -0.047378 -0.654757  0.097257
                                 1.344035 -0.000000  0.000000  0.000005 -0.000001  0.000001  0.000025 -0.000003  0.000001  0.000046
                                -0.000000  0.000002  0.000031

   5.1   0 ******************** -0.000078  0.000888 -0.006432  0.037677 -0.187890  0.866064 -3.623391  7.612000 -7.985896  6.724101
                                -5.599028  5.157193 -6.002939 13.623741-20.791199 13.358733 -4.472631  3.339196 -4.453372  5.794336
                                -6.041720  4.916692 -3.503034  4.190731 -4.401439  4.792235 -4.166808  1.851265 -0.821792  0.261126
                                -0.055352  0.015975 -0.006186  0.002286 -0.000625  0.000000  0.000000 -0.000000 -0.000000  0.000000
                                 0.000000 -0.000000 -0.000000  0.000000  0.000000 -0.000000 -0.000000  0.000000  0.000000 -0.000000
                                -0.000000  0.000000  0.000000  0.000000  0.000000 -0.000000  0.000000 -0.000000 -0.000000 -0.000000
                                -0.000000 -0.000000  0.000000  0.000000 -0.000000 -0.000000  0.000000  0.000000 -0.000000 -0.000000
                                -0.000000  0.000000  0.000000 -0.000000 -0.000000  0.000000  0.000000 -0.000000 -0.000000  0.000000
                                -0.000000 -0.000000 -0.000000  0.000000  0.000000  0.000000 -0.000000 -0.000000 -0.000000  0.000000
                                 0.000000  0.000000 -0.000000

                                   1 2px     1 2px     1 2px     1 2px     1 2px     1 2px     1 2px     1 2px     1 2px     1 2px
                                   1 2px     1 2px     1 2px     1 2px     1 2px     1 2px     1 2px     1 2px     1 2px     1 2px
                                   1 2px     1 2px     1 2px     1 2px     1 2px     1 2px     1 2px     1 4f1+    1 4f3+    1 4f1+
                                   1 4f3+    1 4f1+    1 4f3+    1 4f1+    1 4f3+    1 4f1+    1 4f3+

   1.2   2    -1.4312   -9.6785  0.000000 -0.000000  0.000000 -0.000000  0.000000 -0.000001  0.000002 -0.000011  0.000030 -0.000205
                                 0.000811 -0.035565  0.052687 -0.061588  0.200485 -0.179138 -0.321861  0.259448  0.180293  0.466566
                                 0.386315  0.069399 -0.004439  0.003597 -0.001815  0.000892 -0.000282  0.001272 -0.001641  0.002945
                                -0.003653  0.003544 -0.004483  0.000479 -0.000671  0.000050 -0.000061

   2.2   0     0.0038   -0.6313  0.000000 -0.000000  0.000000 -0.000000  0.000000 -0.000000  0.000002 -0.000005  0.000017 -0.000054
                                 0.000234 -0.002894  0.003762 -0.001749  0.009445 -0.021944  0.049086 -0.039436  0.007232 -0.030929
                                -0.009611 -0.005832  0.090226 -0.020642  0.300703 -0.547478  1.283754  0.000059 -0.000086  0.000258
                                -0.000371  0.001179 -0.001615  0.001672 -0.002322  0.000964 -0.001105

   3.2   0     0.0101   -1.2952 -0.000000  0.000000 -0.000000  0.000000 -0.000000  0.000001 -0.000004  0.000013 -0.000039  0.000142
                                -0.000598  0.011651 -0.016224  0.013959 -0.057216  0.086273 -0.061629  0.044929 -0.051494 -0.022966
                                -0.074044  0.057039  0.088014  0.370684 -0.261094  1.588960 -1.195664  0.000164 -0.000240  0.000726
                                -0.001039  0.003300 -0.004531  0.004700 -0.006473  0.002833 -0.003416

                                   1 2py     1 2py     1 2py     1 2py     1 2py     1 2py     1 2py     1 2py     1 2py     1 2py
                                   1 2py     1 2py     1 2py     1 2py     1 2py     1 2py     1 2py     1 2py     1 2py     1 2py
                                   1 2py     1 2py     1 2py     1 2py     1 2py     1 2py     1 2py     1 4f1-    1 4f3-    1 4f1-
                                   1 4f3-    1 4f1-    1 4f3-    1 4f1-    1 4f3-    1 4f1-    1 4f3-

   1.3   2    -1.4312   -9.6783  0.000000 -0.000000  0.000000 -0.000000  0.000000 -0.000001  0.000002 -0.000011  0.000030 -0.000205
                                 0.000811 -0.035567  0.052689 -0.061588  0.200490 -0.179151 -0.321821  0.259411  0.180306  0.466530
                                 0.386290  0.069467 -0.004408  0.003598 -0.001814  0.000892 -0.000282  0.001272  0.001648  0.002952
                                 0.003696  0.003549  0.004512  0.000478  0.000661  0.000050  0.000061

   2.3   0     0.0038   -0.6336  0.000000 -0.000000  0.000000 -0.000000  0.000000 -0.000000  0.000002 -0.000005  0.000017 -0.000054
                                 0.000233 -0.002869  0.003725 -0.001711  0.009302 -0.021758  0.049083 -0.039448  0.007098 -0.031124
                                -0.009881 -0.005653  0.090903 -0.019538  0.300962 -0.545541  1.281726  0.000059  0.000085  0.000260
                                 0.000368  0.001188  0.001613  0.001690  0.002318  0.000988  0.001148

   3.3   0     0.0100   -1.2990 -0.000000  0.000000 -0.000000  0.000000 -0.000000  0.000001 -0.000004  0.000013 -0.000039  0.000141
                                -0.000597  0.011641 -0.016213  0.013966 -0.057219  0.086191 -0.061193  0.044571 -0.051510 -0.023365
                                -0.074293  0.057142  0.089350  0.371178 -0.257955  1.582924 -1.195473  0.000164  0.000236  0.000726
                                 0.001025  0.003303  0.004494  0.004722  0.006429  0.002872  0.003481

                                   1 3d2-    1 3d2-    1 3d2-    1 3d2-    1 3d2-    1 3d2-    1 3d2-    1 3d2-    1 3d2-    1 3d2-
                                   1 3d2-    1 3d2-    1 3d2-    1 3d2-    1 3d2-    1 3d2-    1 3d2-    1 3d2-    1 3d2-    1 3d2-
                                   1 3d2-    1 3d2-    1 3d2-    1 5g2-    1 5g4-    1 5g2-    1 5g4-    1 5g2-    1 5g4-    1 5g2-
                                   1 5g4-

   1.4   +    -0.2383   -5.6326 -0.000001  0.000008 -0.000041  0.000161 -0.000593  0.001298 -0.006726 -0.006956  0.026880  5.699150
                                 0.000000 -0.041485 -5.787552  0.697795 -0.161369  0.421375  0.283583  0.027240  0.118424 -0.028916
                                 0.029271 -0.001137  0.001188  0.000643 -0.000002  0.002528  0.000010  0.003145  0.000031  0.001344
                                 0.000017

   2.4   0     0.0089   -0.4968 -0.000000  0.000001 -0.000003  0.000012 -0.000039  0.000117 -0.000297  0.001091 -0.004496 -2.868902
                                 0.000000  0.050159  3.020739 -0.355837  0.229411 -0.116808  0.254553 -0.325970  0.278437 -0.946328
                                 0.993816 -0.659565  1.349493 -0.000005  0.000000 -0.000018  0.000000 -0.000018 -0.000001 -0.000005
                                 0.000001

   3.4   0     0.0277   -0.7324  0.000000 -0.000002  0.000010 -0.000041  0.000140 -0.000391  0.001199 -0.002490  0.010374  7.324587
                                -0.000000 -0.131555 -7.725393  0.909862 -0.604914  0.288127 -0.708007  0.888721 -0.779690  2.746970
                                -2.943809  2.210238 -1.054342 -0.000023  0.000000 -0.000081  0.000000 -0.000075 -0.000004 -0.000016
                                 0.000007

                                   1 2pz     1 2pz     1 2pz     1 2pz     1 2pz     1 2pz     1 2pz     1 2pz     1 2pz     1 2pz
                                   1 2pz     1 2pz     1 2pz     1 2pz     1 2pz     1 2pz     1 2pz     1 2pz     1 2pz     1 2pz
                                   1 2pz     1 2pz     1 2pz     1 2pz     1 2pz     1 2pz     1 2pz     1 4f0     1 4f2+    1 4f0
                                   1 4f2+    1 4f0     1 4f2+    1 4f0     1 4f2+    1 4f0     1 4f2+

   1.5   2    -1.4316   -9.6793  0.000000 -0.000000  0.000000 -0.000000  0.000000 -0.000001  0.000002 -0.000011  0.000030 -0.000205
                                 0.000811 -0.035565  0.052687 -0.061591  0.200495 -0.179139 -0.321932  0.259523  0.180249  0.466668
                                 0.386509  0.069093 -0.004614  0.003596 -0.001821  0.000895 -0.000283 -0.002091  0.000004 -0.004550
                                 0.000021 -0.005627  0.000014 -0.000863 -0.000005 -0.000075  0.000000

   2.5   0     0.0038   -0.6212  0.000000 -0.000000  0.000000 -0.000000  0.000000 -0.000000  0.000002 -0.000005  0.000017 -0.000055
                                 0.000239 -0.003006  0.003922 -0.001914  0.010082 -0.022765  0.049071 -0.039359  0.007828 -0.030041
                                -0.008390 -0.006657  0.087103 -0.025506  0.299494 -0.555464  1.292257 -0.000109 -0.000001 -0.000467
                                -0.000003 -0.001991 -0.000008 -0.002825 -0.000017 -0.001147  0.000008

   3.5   0     0.0103   -1.2765  0.000000 -0.000000  0.000000 -0.000000  0.000000 -0.000001  0.000004 -0.000013  0.000040 -0.000143
                                 0.000605 -0.011689  0.016262 -0.013911  0.057144 -0.086580  0.063656 -0.046606  0.051364  0.021030
                                 0.072768 -0.056431 -0.081405 -0.368222  0.275664 -1.617225  1.197466  0.000315  0.000002  0.001343
                                 0.000009  0.005759  0.000024  0.008072  0.000044  0.003821 -0.000009

                                   1 3d1+    1 3d1+    1 3d1+    1 3d1+    1 3d1+    1 3d1+    1 3d1+    1 3d1+    1 3d1+    1 3d1+
                                   1 3d1+    1 3d1+    1 3d1+    1 3d1+    1 3d1+    1 3d1+    1 3d1+    1 3d1+    1 3d1+    1 3d1+
                                   1 3d1+    1 3d1+    1 3d1+    1 5g1+    1 5g3+    1 5g1+    1 5g3+    1 5g1+    1 5g3+    1 5g1+
                                   1 5g3+

   1.6   +    -0.2385   -5.6373 -0.000001  0.000008 -0.000041  0.000161 -0.000594  0.001300 -0.006737 -0.006965  0.026911  5.701999
                                 0.000000 -0.041424 -5.790259  0.698182 -0.161137  0.421643  0.283511  0.026643  0.117660 -0.029034
                                 0.029179 -0.001149  0.001185 -0.000233 -0.000605 -0.000830 -0.002318 -0.000973 -0.002854 -0.000382
                                -0.001224

   2.6   0     0.0089   -0.4969 -0.000000  0.000001 -0.000003  0.000012 -0.000039  0.000117 -0.000297  0.001089 -0.004490 -2.865195
                                 0.000000  0.050094  3.016841 -0.355384  0.229126 -0.116661  0.254263 -0.325591  0.278114 -0.945229
                                 0.992700 -0.658447  1.348934  0.000002  0.000005  0.000007  0.000017  0.000000  0.000013  0.000012
                                 0.000010

   3.6   0     0.0276   -0.7327  0.000000 -0.000002  0.000010 -0.000041  0.000139 -0.000390  0.001196 -0.002486  0.010357  7.312425
                                -0.000000 -0.131332 -7.712558  0.908364 -0.603908  0.287677 -0.706798  0.887235 -0.778369  2.742057
                                -2.938083  2.208903 -1.054569  0.000007  0.000021  0.000031  0.000077 -0.000009  0.000047  0.000066
                                 0.000050

                                   1 3d1-    1 3d1-    1 3d1-    1 3d1-    1 3d1-    1 3d1-    1 3d1-    1 3d1-    1 3d1-    1 3d1-
                                   1 3d1-    1 3d1-    1 3d1-    1 3d1-    1 3d1-    1 3d1-    1 3d1-    1 3d1-    1 3d1-    1 3d1-
                                   1 3d1-    1 3d1-    1 3d1-    1 5g1-    1 5g3-    1 5g1-    1 5g3-    1 5g1-    1 5g3-    1 5g1-
                                   1 5g3-

   1.7   +    -0.2384   -5.6363 -0.000001  0.000008 -0.000041  0.000161 -0.000594  0.001299 -0.006735 -0.006963  0.026904  5.701197
                                 0.000000 -0.041433 -5.789461  0.698064 -0.161152  0.421564  0.283501  0.026767  0.117869 -0.029053
                                 0.029247 -0.001161  0.001195 -0.000234  0.000603 -0.000825  0.002334 -0.000957  0.002898 -0.000368
                                 0.001239

   2.7   0     0.0089   -0.4969 -0.000000  0.000001 -0.000003  0.000012 -0.000039  0.000117 -0.000297  0.001090 -0.004491 -2.865871
                                 0.000000  0.050105  3.017550 -0.355465  0.229175 -0.116688  0.254307 -0.325651  0.278165 -0.945402
                                 0.992875 -0.658622  1.349021  0.000002 -0.000005  0.000007 -0.000017 -0.000000 -0.000014  0.000012
                                -0.000008

   3.7   0     0.0277   -0.7327  0.000000 -0.000002  0.000010 -0.000041  0.000139 -0.000390  0.001197 -0.002486  0.010360  7.314270
                                -0.000000 -0.131367 -7.714510  0.908588 -0.604063  0.287738 -0.706990  0.887462 -0.778571  2.742808
                                -2.938954  2.209103 -1.054531  0.000007 -0.000021  0.000031 -0.000076 -0.000011 -0.000054  0.000070
                                -0.000041

                                   1 4f2-    1 4f2-    1 4f2-    1 4f2-    1 4f2-

   1.8   0     0.1230   -1.3060  0.004335 -0.008742  0.053058 -0.137158  1.057888

   2.8   0     0.3803   -2.0069 -0.000793  0.071108 -0.085393  1.192483 -0.494786

 HOMO      3.1 76813.784360 = 2090209.4634eV
 LUMO      2.3     0.003758 =       0.1023eV
 LUMO-HOMO    -76813.780603 =-2090209.3611eV

 No convergence



 **********************************************************************************************************************************
 DATASETS  * FILE   NREC   LENGTH (MB)   RECORD NAMES
              1      19       20.67       500      610      700      900      950      970     1000      129      960     1100
                                          VAR    BASINP    GEOM    SYMINP    ZMAT    AOBASIS   BASIS     P2S    ABASIS      S
                                         1400     1410     1420     1200     1210     1080     1600     1650     1700
                                           T        V       ECP      H0       H01     AOSYM     SMH    MOLCAS    OPER

              2       5        5.83       200      700     1000      520     3202
                                        OPTIONS   GEOM     BASIS   MCVARS     RHF

 PROGRAMS   *        TOTAL       RHF       INT
 CPU TIMES  *        75.98      2.77     72.81
 REAL TIME  *        78.17 SEC
 DISK USED  *         2.48 GB
 SF USED    *         0.06 MB
 GA USED    *         0.00 MB       (max)       0.00 MB       (current)
 **********************************************************************************************************************************
   -->
   <time start="06:23:13" end="06:24:31" cpu="75.98" system="1.89" real="78.17"/>
   <storage units="megabyte" memory="8001.84" sf="0.06" df="317.68" eaf="2162.08" ga="0.0"/>
  </jobstep><!--
  --><jobstep command="POP" commandset="POP">
   <!--


 PROGRAM * POP (Mulliken population analysis)


 Density matrix read from record         3202.2  Type=RHF/CHARGE (state 1.1)

 Population analysis by basis function type

 Unique atom        s        p        d        f        g    Total    Charge
   1  NB      3.99939  5.99932  3.00035  0.00068  0.00025 13.00000  + 0.00000


 **********************************************************************************************************************************
 DATASETS  * FILE   NREC   LENGTH (MB)   RECORD NAMES
              1      19       20.67       500      610      700      900      950      970     1000      129      960     1100
                                          VAR    BASINP    GEOM    SYMINP    ZMAT    AOBASIS   BASIS     P2S    ABASIS      S
                                         1400     1410     1420     1200     1210     1080     1600     1650     1700
                                           T        V       ECP      H0       H01     AOSYM     SMH    MOLCAS    OPER

              2       5        5.83       200      700     1000      520     3202
                                        OPTIONS   GEOM     BASIS   MCVARS     RHF

 PROGRAMS   *        TOTAL       POP       RHF       INT
 CPU TIMES  *        75.99      0.00      2.77     72.81
 REAL TIME  *        78.18 SEC
 DISK USED  *         2.48 GB
 SF USED    *         0.06 MB
 GA USED    *         0.00 MB       (max)       0.00 MB       (current)
 **********************************************************************************************************************************
   -->
   <time start="06:24:31" end="06:24:31" cpu="0.01" system="0.01" real="0.01"/>
   <storage units="megabyte" memory="8001.84" sf="0.06" df="317.68" eaf="2162.08" ga="0.0"/>
  </jobstep><!--
  --><jobstep command="MULTI" commandset="MULTI">
   <!--


 PROGRAM * MULTI (Direct Multiconfiguration SCF)       Authors: P.J. Knowles, H.-J. Werner (1984)     S.T. Elbert (1988)


 Number of frozen core orbitals:    4 (   1   1   1   0   1   0   0   0 )
 Number of active  orbitals:        6 (   3   0   0   1   0   1   1   0 )
 Number of external orbitals:     292 (  89  36  36  30  36  30  30   5 )

 State symmetry 1

 Orbital occupancy restrictions for symmetry 7
  1      1       200000

 Number of electrons:     5    Spin symmetry=Sextet    Space symmetry=7
 Number of states:        1
 Number of CSFs:          1

 State symmetry 2

 Orbital occupancy restrictions for symmetry 6
  1      1       200000

 Number of electrons:     5    Spin symmetry=Sextet    Space symmetry=6
 Number of states:        1
 Number of CSFs:          1

 State symmetry 3

 Orbital occupancy restrictions for symmetry 4
  1      1       200000

 Number of electrons:     5    Spin symmetry=Sextet    Space symmetry=4
 Number of states:        1
 Number of CSFs:          1

 State symmetry 4

 Orbital occupancy restrictions for symmetry 1
  1      1       200000

 Number of electrons:     5    Spin symmetry=Sextet    Space symmetry=1
 Number of states:        2
 Number of CSFs:          2

 ?Error: RHF not converged. This error exit can be avoided using the IGNORE_ERROR option on the ORBITAL directive
   --><error/><!--
  --></jobstep><!--
  -->
  <input>
  <!--
 --></job><!--
--></molpro>
