<?xml version="1.0"?>
<molpro xmlns="http://www.molpro.net/schema/molpro-output"
  xmlns:xsd="http://www.w3.org/1999/XMLSchema"
  xmlns:cml="http://www.xml-cml.org/schema"
  xmlns:stm="http://www.xml-cml.org/schema"
  xmlns:xhtml="http://www.w3.org/1999/xhtml">
 <!--

 Nodes     nprocs
 nid13053    11
 Number of processes for MPI-2 version of Molpro:   nprocs(total)=   12   nprocs(compute)=   11   nprocs(helper)=    1

 Using customized tuning parameters: mindgm=7; mindgv=16; mindgc=1; mindgr=1; noblas=0; minvec=7
 default implementation of scratch files=sf

 --><job>
  <!--

 Variables initialized (889), CPU time= 0.01 sec
 Commands  initialized (702), CPU time= 0.01 sec, 572 directives.
 Default parameters read. Elapsed time= 0.15 sec

 Checking input...
 Passed
1


                                         ***  PROGRAM SYSTEM MOLPRO  ***
                                       Copyright, TTI GmbH Stuttgart, 2015
                                    Version 2015.1 linked Dec 29 2018 15:55:43


 **********************************************************************************************************************************
 LABEL *   Calculation for Re atom, singlet and triplet
  64 bit mpp version                                                                     DATE: 11-Nov-22          TIME: 07:32:44
 **********************************************************************************************************************************

 SHA1:             19cd028119e0e09f93f0674bd8af7968d9b3eff6
 **********************************************************************************************************************************
  -->
  <!--

 THRESHOLDS:

 ZERO    =  1.00D-12  ONEINT  =  1.00D-12  TWOINT  =  1.00D-15  PREFAC  =  1.00D-14  LOCALI  =  1.00D-09  EORDER  =  1.00D-04
 ENERGY  =  0.00D+00  ETEST   =  0.00D+00  EDENS   =  0.00D+00  THRDEDEF=  1.00D-06  GRADIENT=  1.00D-02  STEP    =  1.00D-03
 ORBITAL =  1.00D-05  CIVEC   =  1.00D-05  COEFF   =  1.00D-04  PRINTCI =  5.00D-02  PUNCHCI =  9.90D+01  OPTGRAD =  3.00D-04
 OPTENERG=  1.00D-06  OPTSTEP =  3.00D-04  THRGRAD =  1.00D-10  COMPRESS=  1.00D-11  VARMIN  =  1.00D-07  VARMAX  =  1.00D-03
 THRDOUB =  0.00D+00  THRDIV  =  1.00D-05  THRRED  =  1.00D-07  THRPSP  =  1.00D+00  THRDC   =  1.00D-10  THRCS   =  1.00D-10
 THRNRM  =  1.00D-08  THREQ   =  0.00D+00  THRDE   =  1.00D+00  THRREF  =  1.00D-05  SPARFAC =  1.00D+00  THRDLP  =  1.00D-07
 THRDIA  =  1.00D-10  THRDLS  =  1.00D-07  THRGPS  =  0.00D+00  THRKEX  =  0.00D+00  THRDIS  =  2.00D-01  THRVAR  =  1.00D-10
 THRLOC  =  1.00D-06  THRGAP  =  1.00D-06  THRLOCT = -1.00D+00  THRGAPT = -1.00D+00  THRORB  =  1.00D-06  THRMLTP =  0.00D+00
 THRCPQCI=  1.00D-10  KEXTA   =  0.00D+00  THRCOARS=  0.00D+00  SYMTOL  =  1.00D-06  GRADTOL =  1.00D-06  THROVL  =  1.00D-08
 THRORTH =  1.00D-08  GRID    =  1.00D-06  GRIDMAX =  1.00D-03  DTMAX   =  0.00D+00  THROCCDE=  1.00D-01  THROCCDE=  1.00D-01



 THRESHOLDS:

 ZERO    =  1.00D-12  ONEINT  =  1.00D-12  TWOINT  =  1.00D-15  PREFAC  =  1.00D-14  LOCALI  =  1.00D-09  EORDER  =  1.00D-04
 ENERGY  =  0.00D+00  ETEST   =  0.00D+00  EDENS   =  0.00D+00  THRDEDEF=  1.00D-06  GRADIENT=  1.00D-02  STEP    =  1.00D-03
 ORBITAL =  1.00D-05  CIVEC   =  1.00D-05  COEFF   =  1.00D-04  PRINTCI =  5.00D-02  PUNCHCI =  9.90D+01  OPTGRAD =  3.00D-04
 OPTENERG=  1.00D-06  OPTSTEP =  3.00D-04  THRGRAD =  1.00D-10  COMPRESS=  1.00D-11  VARMIN  =  1.00D-07  VARMAX  =  1.00D-03
 THRDOUB =  0.00D+00  THRDIV  =  1.00D-05  THRRED  =  1.00D-07  THRPSP  =  1.00D+00  THRDC   =  1.00D-10  THRCS   =  1.00D-10
 THRNRM  =  1.00D-08  THREQ   =  0.00D+00  THRDE   =  1.00D+00  THRREF  =  1.00D-05  SPARFAC =  1.00D+00  THRDLP  =  1.00D-07
 THRDIA  =  1.00D-10  THRDLS  =  1.00D-07  THRGPS  =  0.00D+00  THRKEX  =  0.00D+00  THRDIS  =  2.00D-01  THRVAR  =  1.00D-10
 THRLOC  =  1.00D-06  THRGAP  =  1.00D-06  THRLOCT = -1.00D+00  THRGAPT = -1.00D+00  THRORB  =  1.00D-06  THRMLTP =  0.00D+00
 THRCPQCI=  1.00D-10  KEXTA   =  0.00D+00  THRCOARS=  0.00D+00  SYMTOL  =  1.00D-06  GRADTOL =  1.00D-06  THROVL  =  1.00D-15
 THRORTH =  1.00D-08  GRID    =  1.00D-06  GRIDMAX =  1.00D-03  DTMAX   =  0.00D+00  THROCCDE=  1.00D-01  THROCCDE=  1.00D-01



 Variable memory set to 1000000000 words,  buffer space   230000 words

 SETTING BASIS          =    USERDEF
 SETTING RE_CCSD        =       -77.94999046
 SETTING O_CCSD         =       -15.86622096
 SETTING NE             =        21.00000000
 SETTING SYMM           =         1.00000000
 SETTING SS             =         1.00000000
 SETTING A1             =         6.00000000
 SETTING B1             =         2.00000000
 SETTING B2             =         2.00000000
 SETTING A2             =         1.00000000

Geometry recognized as XYZ

  --><jobstep command="RHF-SCF" commandset="SCFPRO">
   <!--


 Recomputing integrals since basis changed


 Using spherical harmonics



 PROGRAM * SEWARD (Integral evaluation for generally contracted gaussian basis sets)     Author: Roland Lindh, 1990

 Geometry written to block  1 of record 700


 Point group  C2v


   --><cml:molecule>
    <cml:symmetry pointGroup="C2v"/>
    <cml:atomArray>
     <cml:atom id="a1" elementType="Re" x3="0.0" y3="0.0" z3="0.0"/>
     <cml:atom id="a2" elementType="O" x3="0.0" y3="0.0" z3="2.6"/>
    </cml:atomArray>
    <cml:bondArray>
     <cml:bond atomRefs2="a1 a2"/>
    </cml:bondArray>
   </cml:molecule><!--

 ATOMIC COORDINATES

 NR  ATOM    CHARGE       X              Y              Z

   1  RE     15.00    0.000000000    0.000000000    0.000000000
   2  O       6.00    0.000000000    0.000000000    4.913287924

 Bond lengths in Bohr (Angstrom)

 1-2  4.913287924
     ( 2.600000000)

 NUCLEAR CHARGE:                   21
 NUMBER OF PRIMITIVE AOS:         536
 NUMBER OF SYMMETRY AOS:          441
 NUMBER OF CONTRACTIONS:          441   ( 182A1  + 105B1  + 105B2  +  49A2  )
 NUMBER OF CORE ORBITALS:           4   (   2A1  +   1B1  +   1B2  +   0A2  )
 NUMBER OF VALENCE ORBITALS:       10   (   5A1  +   2B1  +   2B2  +   1A2  )


 NUCLEAR REPULSION ENERGY   18.31767269

 EXTRA SYMMETRY OF AOS IN SYMMETRY 1:   1 1 1 1 1 1 1 1 1 1   1 1 1 1 1 1 1 1 1 1   1 1 1 1 1 1 1 1 1 1   1 1 1 1 1 1 1 1 1 1
                                        1 1 1 1 1 1 1 1 1 1   1 1 1 1 1 1 1 1 1 1   1 1 1 1 1 1 1 2 1 2   1 2 1 2 1 2 1 2 1 2
                                        1 2 1 2 1 2 1 2 1 2   1 2 1 2 1 2 1 2 1 2   1 2 1 2 1 2 1 2 1 2   1 2 1 2 1 2 1 2 1 2
                                        1 2 1 2 1 2 1 2 1 2   1 2 1 2 1 2 1 2 1 2   1 3 2 1 3 2 1 3 2 1   1 1 1 1 1 1 1 1 1 1
                                        1 1 1 1 1 1 1 1 1 1   1 2 1 2 1 2 1 2 1 2   1 2
 EXTRA SYMMETRY OF AOS IN SYMMETRY 2:   1 1 1 1 1 1 1 1 1 1   1 1 1 1 1 1 1 1 1 1   1 1 1 1 1 1 1 1 1 1   1 1 1 1 1 1 1 1 1 1
                                        1 1 1 1 1 1 1 1 1 1   1 1 1 1 2 1 2 1 2 1   2 1 2 1 2 1 2 1 2 1   2 1 2 1 2 1 2 1 2 1
                                        2 1 2 1 2 1 2 1 2 1   1 1 1 1 1 1 1 1 1 1   1 1 2 1 2
 EXTRA SYMMETRY OF AOS IN SYMMETRY 3:   1 1 1 1 1 1 1 1 1 1   1 1 1 1 1 1 1 1 1 1   1 1 1 1 1 1 1 1 1 1   1 1 1 1 1 1 1 1 1 1
                                        1 1 1 1 1 1 1 1 1 1   1 1 1 1 2 1 2 1 2 1   2 1 2 1 2 1 2 1 2 1   2 1 2 1 2 1 2 1 2 1
                                        2 1 2 1 2 1 2 1 2 1   1 1 1 1 1 1 1 1 1 1   1 1 2 1 2
 EXTRA SYMMETRY OF AOS IN SYMMETRY 4:   1 1 1 1 1 1 1 1 1 1   1 1 1 1 1 1 1 1 1 1   1 1 1 1 1 1 1 1 1 1   1 1 1 1 1 1 1 1 2 1
                                        2 1 2 1 1 1 1 1 1

 Eigenvalues of metric

         1 0.419E-06 0.678E-06 0.107E-04 0.133E-04 0.139E-04 0.222E-04 0.459E-04 0.711E-04
         2 0.467E-06 0.113E-04 0.138E-04 0.970E-04 0.100E-03 0.132E-03 0.141E-03 0.442E-03
         3 0.467E-06 0.113E-04 0.138E-04 0.970E-04 0.100E-03 0.132E-03 0.141E-03 0.442E-03
         4 0.139E-04 0.999E-04 0.143E-03 0.607E-03 0.146E-02 0.227E-02 0.654E-02 0.735E-02


 Contracted 2-electron integrals neglected if value below      1.0D-15
 AO integral compression algorithm  1   Integral accuracy      1.0D-15

     3736.076 MB (compressed) written to integral file ( 33.3%)

     Node minimum: 152.044 MB, node maximum: 765.460 MB


 NUMBER OF SORTED TWO-ELECTRON INTEGRALS:  110531496.     BUFFER LENGTH:  32768
 NUMBER OF SEGMENTS:   4  SEGMENT LENGTH:   31986939      RECORD LENGTH: 524288

 Memory used in sort:      32.54 MW

 SORT1 READ  1401473000. AND WROTE    37639090. INTEGRALS IN    109 RECORDS. CPU TIME:    19.55 SEC, REAL TIME:    27.03 SEC
 SORT2 READ   407234539. AND WROTE  1216411966. INTEGRALS IN   6380 RECORDS. CPU TIME:     1.40 SEC, REAL TIME:     2.56 SEC

 Node minimum:   110449701.  Node maximum:   110660215. integrals

 OPERATOR DM      FOR CENTER  0  COORDINATES:    0.000000    0.000000    0.000000


 **********************************************************************************************************************************
 DATASETS  * FILE   NREC   LENGTH (MB)   RECORD NAMES
              1      19       22.35       500      610      700      900      950      970     1000      129      960     1100
                                          VAR    BASINP    GEOM    SYMINP    ZMAT    AOBASIS   BASIS     P2S    ABASIS      S
                                         1400     1410     1420     1200     1210     1080     1600     1650     1700
                                           T        V       ECP      H0       H01     AOSYM     SMH    MOLCAS    OPER

 PROGRAMS   *        TOTAL       INT
 CPU TIMES  *       158.54    158.23
 REAL TIME  *       168.69 SEC
 DISK USED  *         8.70 GB
 GA USED    *         0.00 MB       (max)       0.00 MB       (current)
 **********************************************************************************************************************************


 PROGRAM * RHF-SCF (OPEN SHELL)       Authors: W. Meyer, H.-J. Werner


 NUMBER OF ELECTRONS:      11+   10-    SPACE SYMMETRY=1    SPIN SYMMETRY: Doublet
 CONVERGENCE THRESHOLDS:    1.00E-05 (Density)    1.00E-07 (Energy)
 MAX. NUMBER OF ITERATIONS:      200
 INTERPOLATION TYPE:            DIIS
 INTERPOLATION STEPS:              2 (START)      1 (STEP)
 LEVEL SHIFTS:                 -0.60 (CLOSED) -0.30 (OPEN)

 Number of closed-shell orbitals:   10 (   5   2   2   1 )
 Number of open-shell orbitals:      1 (   1   0   0   0 )


 Orbital guess generated from atomic densities. Full valence occupancy:    7   3   3   1

 Molecular orbital dump at record        2100.2

 ITERATION    DDIFF          GRAD             ENERGY        2-EL.EN.            DIPOLE MOMENTS         DIIS   ORB.
    1      0.000D+00      0.000D+00       -92.22208135    162.414198    0.00000    0.00000   -8.22267    0    start
    2      0.000D+00      0.164D-01       -92.12324168    171.132075    0.00000    0.00000    2.43477    1    diag,B
    3      0.135D-01      0.250D-01       -92.79868897    165.653749    0.00000    0.00000   -3.41902    2    diag,B
    4      0.840D-02      0.245D-02       -92.81854638    166.248019    0.00000    0.00000   -3.04075    3    diag,B
    5      0.313D-02      0.173D-02       -92.83977647    166.547057    0.00000    0.00000   -2.94062    4    diag,B
    6      0.336D-02      0.148D-02       -92.85343918    166.705575    0.00000    0.00000   -2.89887    5    diag,B
    7      0.110D-02      0.149D-02       -92.85140222    166.685684    0.00000    0.00000   -2.90473    6    diag,B
    8      0.129D-03      0.148D-02       -92.80215682    166.405072    0.00000    0.00000   -2.67097    7    diag,B
    9      0.304D-02      0.145D-02       -92.78517427    165.879105    0.00000    0.00000   -2.81249    8    diag,B
   10      0.338D-02      0.751D-03       -92.75756713    166.332553    0.00000    0.00000   -1.58938    9    orth
   11      0.344D-02      0.278D-02       -92.75653194    166.341052    0.00000    0.00000   -1.55469    9    diag,B
   12      0.145D-03      0.285D-02       -92.74973743    166.543518    0.00000    0.00000   -1.33410    9    diag,B
   13      0.336D-03      0.352D-02       -92.75328181    166.225015    0.00000    0.00000   -1.44823    9    diag,B
   14      0.137D-02      0.251D-02       -92.74667743    166.234227    0.00000    0.00000   -1.19263    9    diag,B
   15      0.106D-02      0.276D-02       -92.74498137    166.537438    0.00000    0.00000   -1.17559    9    diag,B
   16      0.174D-02      0.367D-02       -92.73203340    166.459103    0.00000    0.00000   -0.69694    9    diag,B
   17      0.288D-02      0.367D-02       -92.74482268    166.355720    0.00000    0.00000   -1.11475    9    diag,B
   18      0.214D-02      0.339D-02       -92.74577107    166.416028    0.00000    0.00000   -1.16871    9    diag,B
   19      0.477D-03      0.346D-02       -92.75028225    166.205226    0.00000    0.00000   -1.28125    9    fixocc
   20      0.719D-03      0.290D-02       -92.75111808    166.065614    0.00000    0.00000   -1.29352    9    orth
   21      0.899D-03      0.257D-02       -92.74635492    166.102979    0.00000    0.00000   -1.10310    9    diag,B
   22      0.493D-03      0.294D-02       -92.74307283    166.496966    0.00000    0.00000   -1.09266    9    diag,B
   23      0.150D-02      0.350D-02       -92.75173782    166.179422    0.00000    0.00000   -1.33536    9    diag,B
   24      0.165D-02      0.295D-02       -92.75253861    166.398373    0.00000    0.00000   -1.40912    9    diag,B
   25      0.909D-03      0.316D-02       -92.75414519    166.147230    0.00000    0.00000   -1.42376    9    diag,B
   26      0.911D-03      0.273D-02       -92.75373584    166.043628    0.00000    0.00000   -1.39783    9    diag,B
   27      0.721D-03      0.252D-02       -92.75089052    166.007159    0.00000    0.00000   -1.27987    9    diag,B
   28      0.648D-03      0.256D-02       -92.74214368    166.490108    0.00000    0.00000   -1.06291    9    diag,B
   29      0.151D-02      0.376D-02       -92.75152775    165.938278    0.00000    0.00000   -1.30340    9    diag,B
   30      0.185D-02      0.235D-02       -92.75097428    165.919545    0.00000    0.00000   -1.27791    9    orth
   31      0.126D-03      0.237D-02       -92.73747125    166.551423    0.00000    0.00000   -0.92661    9    diag,B
   32      0.185D-02      0.408D-02       -92.75030263    165.927100    0.00000    0.00000   -1.25271    9    diag,B
   33      0.210D-02      0.234D-02       -92.75038031    166.015293    0.00000    0.00000   -1.26265    9    diag,B
   34      0.449D-03      0.247D-02       -92.74468304    165.973407    0.00000    0.00000   -1.02487    9    diag,B
   35      0.108D-02      0.288D-02       -92.75010251    165.811055    0.00000    0.00000   -1.29587    9    diag,B
   36      0.158D-02      0.173D-02       -92.74096266    165.963328    0.00000    0.00000   -0.87651    9    diag,B
   37      0.124D-02      0.258D-02       -92.74456990    165.817435    0.00000    0.00000   -1.00137    9    diag,B
   38      0.879D-03      0.244D-02       -92.74154967    166.544505    0.00000    0.00000   -1.03627    9    diag,B
   39      0.361D-02      0.357D-02       -92.74883858    165.764931    0.00000    0.00000   -1.22381    9    diag,B
   40      0.373D-02      0.180D-02       -92.74770379    165.828124    0.00000    0.00000   -1.16206    9    orth
   41      0.166D-03      0.200D-02       -92.74666079    165.930303    0.00000    0.00000   -1.14547    9    diag,B
     Orbital  5.1 strongly deviates from fixed occupation: 1.87672  (now: 2.00)
     Note:  Use {hf,nitord=N} to fix occupations at iteration N
            Use {gthresh,occdev=1.0} to suppress deviation warnings
   42      0.927D-03      0.190D-02       -92.73474707    166.402073    0.00000    0.00000   -0.76713    9    diag,B
   43      0.318D-02      0.391D-02       -92.75189312    165.719954    0.00000    0.00000   -1.35273    9    diag,B
   44      0.191D-02      0.172D-02       -92.74872885    165.847459    0.00000    0.00000   -1.23463    9    diag,B
   45      0.913D-03      0.181D-02       -92.71731332    166.732761    0.00000    0.00000   -0.34423    9    diag,B
   46      0.281D-02      0.505D-02       -92.74837701    165.932747    0.00000    0.00000   -1.21277    9    diag,B
   47      0.231D-02      0.200D-02       -92.74838968    165.856683    0.00000    0.00000   -1.26491    9    diag,B
   48      0.134D-02      0.164D-02       -92.74506642    165.990607    0.00000    0.00000   -1.04336    9    diag,B
   49      0.673D-03      0.231D-02       -92.74394923    165.887601    0.00000    0.00000   -0.94497    9    diag,B
   50      0.868D-03      0.255D-02       -92.74776507    165.942543    0.00000    0.00000   -1.19172    9    orth
   51      0.128D-02      0.205D-02       -92.74247016    166.203688    0.00000    0.00000   -0.92980    9    diag,B
   52      0.107D-02      0.307D-02       -92.74856879    165.729490    0.00000    0.00000   -1.25251    9    diag,B
   53      0.312D-02      0.164D-02       -92.74360800    166.048989    0.00000    0.00000   -0.97485    9    diag,B
   54      0.200D-02      0.257D-02       -92.74864796    165.799542    0.00000    0.00000   -1.19232    9    diag,B
   55      0.892D-03      0.196D-02       -92.75163588    165.494042    0.00000    0.00000   -1.65397    9    diag,B
   56      0.246D-02      0.576D-03       -92.75030070    165.870678    0.00000    0.00000   -1.80962    9    diag,B
   57      0.117D-02      0.423D-03       -92.75023622    165.867519    0.00000    0.00000   -1.90806    9    diag,B
   58      0.537D-03      0.317D-03       -92.75012415    165.828610    0.00000    0.00000   -1.90193    9    diag,B
   59      0.634D-03      0.187D-03       -92.74966649    165.987426    0.00000    0.00000   -1.83774    9    diag,B
   60      0.101D-02      0.358D-03       -92.74986186    165.966351    0.00000    0.00000   -1.93750    9    orth
   61      0.280D-03      0.149D-03       -92.74984686    165.900158    0.00000    0.00000   -1.84786    9    diag,B
   62      0.332D-03      0.251D-03       -92.74989356    165.890145    0.00000    0.00000   -1.87123    9    diag,B
   63      0.252D-04      0.194D-03       -92.74997523    165.890567    0.00000    0.00000   -1.91115    9    diag,B
   64      0.875D-04      0.137D-03       -92.75000404    165.808897    0.00000    0.00000   -1.96168    9    diag,B
   65      0.331D-03      0.937D-04       -92.75001164    165.778749    0.00000    0.00000   -1.95677    9    diag,B
   66      0.200D-03      0.729D-04       -92.74991451    165.913765    0.00000    0.00000   -1.98048    9    diag,B
   67      0.615D-03      0.218D-04       -92.74990887    165.920572    0.00000    0.00000   -1.98169    9    diag,B
   68      0.159D-03      0.100D-04       -92.74990741    165.941179    0.00000    0.00000   -1.98749    9    diag,B
   69      0.985D-04      0.594D-05       -92.74990778    165.932673    0.00000    0.00000   -1.98652    9    diag,B
   70      0.187D-04      0.402D-05       -92.74990781    165.936285    0.00000    0.00000   -1.98693    9    orth
   71      0.167D-04      0.165D-05       -92.74990783    165.936395    0.00000    0.00000   -1.98700    9    diag,B
   72      0.117D-04      0.106D-05       -92.74990785    165.936118    0.00000    0.00000   -1.98711    9    diag,B
   73      0.435D-05      0.887D-06       -92.74990788    165.936103    0.00000    0.00000   -1.98719    0    orth

 Final alpha occupancy:   6   2   2   1
 Final beta  occupancy:   5   2   2   1

 !RHF STATE 1.1 Energy                -92.749907878837
   --><property name="Energy" method="RHF" principal="true" stateSymmetry="1" stateNumber="1"
     value="-92.7499078788373"/><!--
 Nuclear energy                        18.31767269
 One-electron energy                 -194.03563214
 Two-electron energy                   82.96805157
 Virial quotient                       -2.47747799
 !RHF STATE 1.1 Dipole moment           0.00000000     0.00000000    -1.98719073
 Dipole moment /Debye                   0.00000000     0.00000000    -5.05060422
   --><property name="Dipole moment" method="RHF" principal="true" stateSymmetry="1"
     stateNumber="1" value="0.0 0.0 -1.98719073038038"/><!--

 ELECTRON ORBITALS
 =================


   Orb  Occ    Energy  Couls-En    Coefficients

                                   1 1s      1 1s      1 1s      1 1s      1 1s      1 1s      1 1s      1 1s      1 1s      1 1s
                                   1 1s      1 1s      1 1s      1 1s      1 1s      1 1s      1 1s      1 1s      1 1s      1 1s
                                   1 1s      1 1s      1 1s      1 1s      1 1s      1 1s      1 1s      1 1s      1 1s      1 1s
                                   1 1s      1 1s      1 1s      1 1s      1 1s      1 2pz     1 2pz     1 2pz     1 2pz     1 2pz
                                   1 2pz     1 2pz     1 2pz     1 2pz     1 2pz     1 2pz     1 2pz     1 2pz     1 2pz     1 2pz
                                   1 2pz     1 2pz     1 2pz     1 2pz     1 2pz     1 2pz     1 2pz     1 2pz     1 2pz     1 2pz
                                   1 2pz     1 2pz     1 2pz     1 2pz     1 2pz     1 2pz     1 3d0     1 3d2+    1 3d0     1 3d2+
                                   1 3d0     1 3d2+    1 3d0     1 3d2+    1 3d0     1 3d2+    1 3d0     1 3d2+    1 3d0     1 3d2+
                                   1 3d0     1 3d2+    1 3d0     1 3d2+    1 3d0     1 3d2+    1 3d0     1 3d2+    1 3d0     1 3d2+
                                   1 3d0     1 3d2+    1 3d0     1 3d2+    1 3d0     1 3d2+    1 3d0     1 3d2+    1 3d0     1 3d2+
                                   1 3d0     1 3d2+    1 3d0     1 3d2+    1 3d0     1 3d2+    1 3d0     1 3d2+    1 3d0     1 3d2+
                                   1 4f0     1 4f2+    1 4f0     1 4f2+    1 4f0     1 4f2+    1 4f0     1 4f2+    1 4f0     1 4f2+
                                   1 4f0     1 4f2+    1 4f0     1 4f2+    1 4f0     1 4f2+    1 4f0     1 4f2+    1 4f0     1 4f2+
                                   1 4f0     1 4f2+    1 4f0     1 4f2+    1 4f0     1 4f2+    1 4f0     1 4f2+    1 4f0     1 4f2+
                                   1 5g0     1 5g4+    1 5g2+    1 5g0     1 5g4+    1 5g2+    1 5g0     1 5g4+    1 5g2+    2 1s
                                   2 1s      2 1s      2 1s      2 1s      2 1s      2 1s      2 1s      2 1s      2 1s      2 1s
                                   2 1s      2 1s      2 2pz     2 2pz     2 2pz     2 2pz     2 2pz     2 2pz     2 2pz     2 2pz
                                   2 3d0     2 3d2+    2 3d0     2 3d2+    2 3d0     2 3d2+    2 3d0     2 3d2+    2 4f0     2 4f2+
                                   2 4f0     2 4f2+

   1.1   2    -3.8693  -17.2855 -0.000000  0.000000 -0.000000  0.000000 -0.000000  0.000000 -0.000000  0.000000 -0.000001  0.000002
                                -0.000005  0.000014 -0.000035  0.000087 -0.000213  0.000518 -0.001250  0.002990 -0.007087  0.016730
                                -0.039733  0.095076 -0.209083  0.278953  0.199627 -1.219712 -1.602839  1.259038  0.600089  0.002714
                                 0.002911 -0.001556  1.695115 -0.299959  0.000450  0.000000 -0.000000  0.000000 -0.000000  0.000000
                                -0.000000  0.000000 -0.000000  0.000000 -0.000000  0.000000 -0.000000  0.000000 -0.000001  0.000003
                                -0.000006  0.000014 -0.000027  0.000034  0.000051 -0.000100 -0.001866 -0.003013  0.025028  0.002972
                                -0.002098  0.000543 -0.000106  0.003438 -0.024143  0.000004  0.000000  0.000000 -0.000000 -0.000000
                                 0.000000  0.000000 -0.000000 -0.000000  0.000000  0.000000 -0.000000 -0.000000  0.000001  0.000000
                                -0.000002 -0.000000  0.000006 -0.000000 -0.000014 -0.000000  0.000022  0.000000  0.000151 -0.000002
                                -0.001132  0.000011  0.002712 -0.000004  0.004618 -0.000040  0.002535 -0.000014 -0.001469 -0.000009
                                -0.000155 -0.000004  0.000258 -0.000000 -0.001105 -0.000003 -0.005244 -0.000012 -0.000102 -0.000000
                                 0.000000  0.000000 -0.000000 -0.000000  0.000000  0.000000 -0.000000 -0.000000  0.000001  0.000000
                                -0.000003 -0.000000  0.000009  0.000000 -0.000000 -0.000000 -0.000008  0.000000  0.000725 -0.000001
                                 0.000786 -0.000000 -0.000023 -0.000000 -0.000674 -0.000000 -0.001157  0.000000  0.000149  0.000000
                                 0.000074 -0.000199 -0.000001  0.000231 -0.000951 -0.000003 -0.000234 -0.000136 -0.000000 -0.000000
                                 0.000000 -0.000000  0.000001 -0.000008  0.000138  0.000370  0.000533 -0.000621  0.001174  0.000309
                                -0.000512 -0.000274 -0.000004 -0.000029 -0.000124  0.000004 -0.001330 -0.000004 -0.000006  0.000001
                                -0.000026 -0.000000  0.000113 -0.000000  0.000683  0.000000  0.000004 -0.000000  0.000010  0.000000
                                -0.000180 -0.000000

   2.1   2    -2.2420  -13.8306  0.000000 -0.000000  0.000000 -0.000000  0.000000 -0.000000  0.000000 -0.000000  0.000000 -0.000000
                                 0.000000 -0.000000  0.000000 -0.000000  0.000001 -0.000001  0.000003 -0.000008  0.000019 -0.000046
                                 0.000110 -0.000267  0.000598 -0.000811 -0.000662  0.004408  0.010469 -0.008701  0.000846 -0.000293
                                -0.000672 -0.001079 -0.010287  0.003637  0.000282  0.000000 -0.000000  0.000000 -0.000000  0.000000
                                -0.000000  0.000000 -0.000001  0.000002 -0.000007  0.000021 -0.000058  0.000154 -0.000384  0.000913
                                -0.002087  0.004650 -0.009228  0.002056  0.106951 -0.313456  0.044080  0.500127  0.208836  0.228461
                                 0.029070 -0.001536  0.000543 -0.181102  0.327184 -0.000105  0.000000  0.000000 -0.000000  0.000000
                                 0.000000 -0.000000 -0.000000  0.000000  0.000000 -0.000000 -0.000000  0.000000  0.000001  0.000000
                                -0.000003 -0.000000  0.000007  0.000000 -0.000015  0.000000  0.000032 -0.000000  0.000014 -0.000000
                                -0.000475  0.000001  0.001076 -0.000000  0.001681 -0.000003 -0.001324 -0.000003 -0.001864 -0.000000
                                -0.000851  0.000000 -0.000612  0.000000 -0.000483 -0.000000  0.003753  0.000000  0.000157  0.000000
                                -0.000000  0.000000  0.000000 -0.000000 -0.000000  0.000000  0.000002 -0.000000 -0.000004  0.000000
                                 0.000022 -0.000000  0.000014 -0.000000 -0.000173  0.000000  0.001035 -0.000001  0.002070 -0.000014
                                -0.001147 -0.000009  0.002719 -0.000011  0.000850 -0.000015  0.000675 -0.000003 -0.000139 -0.000000
                                -0.000052 -0.000004 -0.000000 -0.000357  0.000001 -0.000000 -0.000245 -0.000000  0.000001 -0.000000
                                 0.000000 -0.000000  0.000001 -0.000007  0.000344 -0.000999  0.001062  0.003883  0.002446  0.002012
                                -0.000106 -0.000523 -0.000058 -0.000498 -0.001477 -0.002527 -0.001475 -0.000678 -0.000010  0.000016
                                 0.000078 -0.000000  0.000317  0.000000  0.000013  0.000000  0.000007 -0.000000 -0.000035 -0.000000
                                -0.000026 -0.000000

   3.1   2    -1.1659   -9.0302  0.000000 -0.000000  0.000000 -0.000000  0.000000 -0.000000  0.000000 -0.000000  0.000000 -0.000000
                                 0.000000 -0.000000  0.000001 -0.000002  0.000004 -0.000010  0.000023 -0.000056  0.000132 -0.000311
                                 0.000734 -0.001742  0.003837 -0.005487 -0.001454  0.014971 -0.027965  0.004056  0.020790  0.023037
                                -0.010768  0.003388  0.020052 -0.047589 -0.000845 -0.000000  0.000000 -0.000000  0.000000 -0.000000
                                 0.000000 -0.000000  0.000000 -0.000000  0.000000 -0.000000  0.000000 -0.000001  0.000003 -0.000007
                                 0.000017 -0.000044  0.000078  0.000388 -0.004502  0.013242 -0.020236 -0.049130  0.279072  0.016556
                                 0.001190 -0.003441  0.001339  0.039809 -0.299920 -0.000240 -0.000000  0.000000  0.000000  0.000000
                                -0.000000 -0.000000  0.000000  0.000000 -0.000000  0.000000  0.000002 -0.000000 -0.000004  0.000000
                                 0.000011 -0.000000 -0.000024  0.000000  0.000050 -0.000000 -0.000103  0.000000  0.000480 -0.000000
                                -0.002671 -0.000000 -0.005676  0.000000  0.009428  0.000001  0.019056  0.000001  0.010015  0.000001
                                -0.004368  0.000001  0.001491  0.000000  0.006000  0.000000 -0.011542  0.000000 -0.000086 -0.000000
                                 0.000000  0.000000 -0.000000 -0.000000  0.000002  0.000000 -0.000006 -0.000000  0.000017  0.000000
                                -0.000043 -0.000000  0.000112  0.000000 -0.000313 -0.000000  0.002520  0.000000  0.008770  0.000001
                                 0.010728  0.000001 -0.005191  0.000000 -0.010387  0.000000 -0.005793  0.000000 -0.000998  0.000000
                                 0.000021 -0.000012 -0.000000  0.000808  0.000010 -0.000000 -0.001345  0.000003 -0.000000 -0.000000
                                 0.000003 -0.000025  0.000159 -0.001397  0.054283 -0.105443  0.190342  0.563506  0.390127  0.027973
                                -0.050715 -0.087866 -0.000098 -0.000645 -0.003785 -0.003756 -0.026812 -0.004177 -0.000343  0.000023
                                 0.000462 -0.000001  0.003406 -0.000002  0.010302 -0.000003  0.000246 -0.000000  0.000205 -0.000000
                                -0.002281  0.000000

   4.1   2    -0.4877   -7.8026 -0.000000  0.000000 -0.000000  0.000000 -0.000000  0.000000 -0.000000  0.000000 -0.000000  0.000000
                                -0.000001  0.000002 -0.000005  0.000013 -0.000031  0.000076 -0.000183  0.000437 -0.001037  0.002449
                                -0.005823  0.013982 -0.031050  0.042831  0.025524 -0.176336 -0.129870  0.182867  0.068623 -0.249240
                                -0.125379  0.009865  0.153829  0.088327 -0.005744  0.000000 -0.000000  0.000000 -0.000000  0.000000
                                -0.000000  0.000000 -0.000000  0.000000 -0.000000  0.000000 -0.000001  0.000003 -0.000006  0.000016
                                -0.000038  0.000092 -0.000174 -0.000472  0.006607 -0.019727  0.028925  0.074998 -0.442247 -0.023089
                                -0.014799  0.034814  0.012310 -0.058205  0.475219 -0.004714 -0.000000  0.000000  0.000000 -0.000000
                                -0.000000  0.000000  0.000000 -0.000000 -0.000001  0.000000  0.000002 -0.000000 -0.000006  0.000000
                                 0.000015 -0.000000 -0.000047  0.000000  0.000109 -0.000000 -0.000241  0.000000 -0.002414  0.000000
                                 0.020938 -0.000007  0.004231  0.000008 -0.081345  0.000029 -0.128758  0.000049 -0.105824  0.000053
                                -0.029007  0.000014  0.005509 -0.000003 -0.012910 -0.000003  0.019162 -0.000000 -0.002781  0.000000
                                -0.000000  0.000000  0.000000 -0.000000 -0.000001  0.000000  0.000002 -0.000000 -0.000008  0.000000
                                 0.000017 -0.000000 -0.000063  0.000000  0.000150 -0.000000 -0.001939  0.000001 -0.010913  0.000000
                                -0.016997 -0.000000  0.004408 -0.000002  0.013805 -0.000004  0.003580 -0.000004  0.004240 -0.000004
                                -0.001013  0.000162  0.000004 -0.002654 -0.000103  0.000006  0.000306 -0.000167  0.000004 -0.000000
                                 0.000000 -0.000001  0.000004 -0.000065  0.004211 -0.014358  0.014897  0.072246  0.038146 -0.046820
                                -0.000203 -0.006397  0.008653  0.074423  0.245578  0.380031  0.313828  0.056387  0.004915 -0.002275
                                -0.001568 -0.000000 -0.006530 -0.000000 -0.019425 -0.000001 -0.000150 -0.000000 -0.001420  0.000002
                                 0.002935  0.000001

   5.1   2    -0.3282   -6.7634  0.000000 -0.000000  0.000000 -0.000000  0.000000 -0.000000  0.000000 -0.000000  0.000000 -0.000001
                                 0.000001 -0.000004  0.000010 -0.000024  0.000058 -0.000142  0.000343 -0.000821  0.001947 -0.004606
                                 0.010979 -0.026450  0.058859 -0.080311 -0.055863  0.363810  0.434703 -0.446389 -0.218160  0.427974
                                 0.507457  0.138054 -0.460372 -0.056321 -0.007849  0.000000 -0.000000  0.000000 -0.000000  0.000000
                                -0.000000  0.000000 -0.000000  0.000000 -0.000001  0.000002 -0.000007  0.000018 -0.000045  0.000107
                                -0.000246  0.000553 -0.001112  0.000237  0.013573 -0.041484  0.016317  0.089826 -0.177361  0.014395
                                -0.134729 -0.158455 -0.013853 -0.042951  0.269888 -0.001935  0.000000 -0.000000 -0.000000  0.000000
                                 0.000000 -0.000000 -0.000001  0.000000  0.000003 -0.000000 -0.000010  0.000000  0.000030 -0.000000
                                -0.000075  0.000000  0.000184 -0.000001 -0.000399  0.000001  0.000853 -0.000002  0.001466 -0.000006
                                -0.019779  0.000068  0.019829 -0.000050  0.081915 -0.000272  0.136112 -0.000425  0.109024 -0.000405
                                 0.040875 -0.000198  0.005099 -0.000023 -0.008090  0.000010  0.008002 -0.000000  0.000099 -0.000000
                                 0.000000 -0.000000 -0.000000  0.000000  0.000000 -0.000000 -0.000001  0.000000  0.000000 -0.000000
                                -0.000006  0.000000 -0.000011 -0.000000 -0.000103  0.000000  0.000162 -0.000003 -0.004296 -0.000011
                                -0.011314 -0.000008  0.000438  0.000005  0.002361  0.000012 -0.008672  0.000022 -0.006175  0.000014
                                 0.001651 -0.000445 -0.000007 -0.001074  0.000027 -0.000008 -0.003426  0.000315  0.000001  0.000000
                                -0.000000  0.000003 -0.000019  0.000138 -0.003874  0.001384 -0.014696 -0.022362 -0.043148 -0.025704
                                 0.007478  0.006813  0.004746  0.040830  0.136006  0.208854  0.189460  0.043147  0.002845 -0.001245
                                 0.000124 -0.000000 -0.000076 -0.000001 -0.009132 -0.000000 -0.000032 -0.000000 -0.001048  0.000001
                                 0.001349  0.000001

   6.1   +    -0.5239   -9.1348  0.000000 -0.000000  0.000000 -0.000000  0.000000 -0.000000  0.000000 -0.000000  0.000000 -0.000000
                                 0.000000 -0.000000  0.000000 -0.000000  0.000000 -0.000000  0.000001 -0.000002  0.000006 -0.000013
                                 0.000032 -0.000077  0.000170 -0.000234 -0.000148  0.001004  0.000913 -0.001100 -0.000292  0.001540
                                 0.001147  0.000215 -0.001018 -0.000640 -0.000010  0.000000 -0.000000  0.000000 -0.000000  0.000000
                                -0.000000  0.000000 -0.000000  0.000000 -0.000000  0.000000 -0.000000  0.000000 -0.000000  0.000000
                                -0.000000  0.000000 -0.000001  0.000000  0.000007 -0.000020  0.000009  0.000039  0.000017  0.000030
                                -0.000044 -0.000175 -0.000031 -0.000021  0.000020  0.000003 -0.000000  0.000000  0.000000 -0.000000
                                -0.000000  0.000000  0.000000 -0.000002 -0.000000  0.000008  0.000000 -0.000025 -0.000000  0.000076
                                 0.000000 -0.000186 -0.000001  0.000471  0.000003 -0.001029 -0.000006  0.002211 -0.000016  0.006163
                                 0.000183 -0.069635 -0.000117  0.042832 -0.000755  0.285066 -0.001084  0.427790 -0.000838  0.339848
                                -0.000277  0.118021 -0.000014  0.005883  0.000013 -0.003913 -0.000020  0.001274  0.000002  0.000269
                                -0.000000  0.000000  0.000000 -0.000000 -0.000000  0.000000  0.000000 -0.000001 -0.000000  0.000004
                                 0.000000 -0.000008 -0.000000  0.000028  0.000001 -0.000070 -0.000006  0.000518 -0.000018  0.001669
                                -0.000017  0.002229  0.000010 -0.000655  0.000015 -0.001164  0.000014 -0.002245 -0.000000 -0.001454
                                -0.000004 -0.000004  0.001259  0.000012  0.000006 -0.002138  0.000020  0.000004 -0.004325 -0.000000
                                 0.000000 -0.000000  0.000000 -0.000000 -0.000001  0.000004 -0.000003 -0.000020 -0.000012  0.000004
                                -0.000001  0.000001 -0.000001 -0.000006 -0.000021 -0.000030 -0.000026 -0.000001 -0.000001  0.000000
                                -0.000001  0.000131 -0.000003  0.000758 -0.000002  0.000891 -0.000000  0.000014  0.000001 -0.000041
                                 0.000001 -0.000442

   7.1   0    -0.1019   -7.8304  0.000000 -0.000000  0.000000 -0.000000  0.000000 -0.000000  0.000000 -0.000000  0.000000 -0.000000
                                 0.000001 -0.000002  0.000004 -0.000011  0.000027 -0.000066  0.000159 -0.000381  0.000903 -0.002135
                                 0.005088 -0.012248  0.027227 -0.037105 -0.025624  0.166511  0.206343 -0.204924 -0.137186  0.160792
                                 0.204194  0.115373 -0.215257  0.004168  0.020468 -0.000000  0.000000 -0.000000  0.000000 -0.000000
                                 0.000000 -0.000000  0.000000 -0.000000  0.000000 -0.000001  0.000002 -0.000006  0.000015 -0.000037
                                 0.000084 -0.000189  0.000380 -0.000119 -0.004300  0.013169 -0.003462 -0.026739  0.047592 -0.003572
                                 0.048543  0.031630  0.004885  0.010772 -0.079020  0.001545 -0.000000 -0.000000  0.000000  0.000000
                                -0.000000 -0.000000  0.000002  0.000000 -0.000006 -0.000000  0.000020  0.000000 -0.000061 -0.000000
                                 0.000149  0.000001 -0.000378 -0.000001  0.000825  0.000003 -0.001762 -0.000006 -0.004998 -0.000018
                                 0.055623  0.000198 -0.035215 -0.000119 -0.226857 -0.000799 -0.340091 -0.001213 -0.294865 -0.001095
                                -0.183881 -0.000677 -0.071849 -0.000235  0.004729  0.000012 -0.002443 -0.000003 -0.006468 -0.000021
                                -0.000000  0.000000  0.000000 -0.000000 -0.000001  0.000000  0.000002 -0.000000 -0.000007  0.000000
                                 0.000017 -0.000000 -0.000045  0.000000  0.000153 -0.000000 -0.001086  0.000001 -0.002136  0.000003
                                 0.000040 -0.000000  0.001567 -0.000003  0.002028 -0.000005  0.005795 -0.000001  0.001822  0.000014
                                -0.002801  0.001049  0.000002  0.000386  0.003818  0.000012  0.006606  0.002765  0.000027 -0.000000
                                 0.000000 -0.000001  0.000009 -0.000059  0.001383  0.000888  0.005417  0.003683  0.018842  0.033274
                                -0.003520 -0.002544 -0.001404 -0.012039 -0.040960 -0.061622 -0.064562 -0.026846 -0.000983  0.000366
                                -0.000692 -0.000001 -0.002777 -0.000005 -0.000647 -0.000001 -0.000042 -0.000000  0.000498  0.000000
                                 0.000487  0.000001

   8.1   0     0.0170   -2.0569  0.000000 -0.000000  0.000000 -0.000000  0.000000 -0.000000  0.000000 -0.000000  0.000000 -0.000000
                                 0.000000 -0.000000  0.000001 -0.000003  0.000007 -0.000017  0.000040 -0.000097  0.000235 -0.000579
                                 0.001474 -0.003862  0.008954 -0.008648 -0.036923  0.166113  0.832452 -0.526818 -0.636737  0.446812
                                -0.607143  1.681486 -0.745916  0.748311 -1.658898  0.000000 -0.000000  0.000000 -0.000000  0.000000
                                -0.000000  0.000000 -0.000000  0.000000 -0.000001  0.000003 -0.000009  0.000024 -0.000060  0.000139
                                -0.000308  0.000653 -0.001372  0.003235 -0.009592  0.027010 -0.127713 -0.224293  1.868574  0.148677
                                -0.115937  0.221093 -0.282639  0.231712 -1.886739  0.874165 -0.000000 -0.000000  0.000000  0.000000
                                -0.000000 -0.000000  0.000000  0.000000 -0.000000 -0.000000  0.000001  0.000000 -0.000002 -0.000000
                                 0.000005  0.000000 -0.000009 -0.000000  0.000017  0.000000 -0.000033 -0.000000  0.000470  0.000000
                                -0.003386  0.000002 -0.004398 -0.000008  0.014028 -0.000008  0.036141 -0.000002  0.009373 -0.000031
                                -0.029514 -0.000015  0.061483 -0.000016  0.005161  0.000006 -0.018405 -0.000017 -0.087341  0.000072
                                 0.000000 -0.000000 -0.000000  0.000000  0.000002 -0.000000 -0.000006  0.000000  0.000015 -0.000000
                                -0.000040  0.000000  0.000094 -0.000000 -0.000304  0.000000  0.002318 -0.000003  0.007901 -0.000008
                                 0.013339 -0.000008 -0.004877  0.000006 -0.011606  0.000011 -0.017438  0.000005 -0.003034 -0.000012
                                 0.000148 -0.000157 -0.000001 -0.000081  0.000496 -0.000002 -0.003836  0.000487 -0.000001 -0.000000
                                 0.000000 -0.000000  0.000002  0.000003 -0.001038  0.005526 -0.003395 -0.024716 -0.014409 -0.087268
                                -0.001171  0.001428  0.000654  0.005672  0.018489  0.029940  0.015759  0.046733  0.000308 -0.000172
                                 0.000244 -0.000000  0.000519 -0.000000  0.011779  0.000001  0.000004  0.000000 -0.000004  0.000000
                                -0.001352 -0.000000

                                   1 2px     1 2px     1 2px     1 2px     1 2px     1 2px     1 2px     1 2px     1 2px     1 2px
                                   1 2px     1 2px     1 2px     1 2px     1 2px     1 2px     1 2px     1 2px     1 2px     1 2px
                                   1 2px     1 2px     1 2px     1 2px     1 2px     1 2px     1 2px     1 2px     1 2px     1 2px
                                   1 2px     1 3d1+    1 3d1+    1 3d1+    1 3d1+    1 3d1+    1 3d1+    1 3d1+    1 3d1+    1 3d1+
                                   1 3d1+    1 3d1+    1 3d1+    1 3d1+    1 3d1+    1 3d1+    1 3d1+    1 3d1+    1 3d1+    1 3d1+
                                   1 3d1+    1 3d1+    1 3d1+    1 4f1+    1 4f3+    1 4f1+    1 4f3+    1 4f1+    1 4f3+    1 4f1+
                                   1 4f3+    1 4f1+    1 4f3+    1 4f1+    1 4f3+    1 4f1+    1 4f3+    1 4f1+    1 4f3+    1 4f1+
                                   1 4f3+    1 4f1+    1 4f3+    1 4f1+    1 4f3+    1 4f1+    1 4f3+    1 4f1+    1 4f3+    1 4f1+
                                   1 4f3+    1 4f1+    1 4f3+    1 5g1+    1 5g3+    1 5g1+    1 5g3+    1 5g1+    1 5g3+    2 2px
                                   2 2px     2 2px     2 2px     2 2px     2 2px     2 2px     2 2px     2 3d1+    2 3d1+    2 3d1+
                                   2 3d1+    2 4f1+    2 4f3+    2 4f1+    2 4f3+

   1.2   2    -2.2466  -13.7792  0.000000 -0.000000  0.000000 -0.000000  0.000000 -0.000000  0.000000 -0.000001  0.000002 -0.000007
                                 0.000021 -0.000058  0.000154 -0.000385  0.000917 -0.002095  0.004668 -0.009271  0.002183  0.106527
                                -0.312785  0.042740  0.491921  0.217420  0.237747  0.024985 -0.002067  0.000937 -0.175035  0.316506
                                -0.000260  0.000000 -0.000000  0.000000 -0.000000  0.000000 -0.000000  0.000000 -0.000000  0.000001
                                -0.000001  0.000002  0.000006 -0.000024  0.000391 -0.000206 -0.000302 -0.000066 -0.000192 -0.000043
                                -0.000264  0.000658 -0.000000 -0.000000  0.000000  0.000000 -0.000000 -0.000000  0.000000  0.000001
                                -0.000001 -0.000002  0.000001  0.000011 -0.000011  0.000016 -0.000002 -0.000183 -0.000060  0.000880
                                -0.000106  0.001417 -0.001167 -0.001228 -0.001925  0.001447 -0.001204 -0.000949 -0.002702 -0.000003
                                -0.001529  0.000001 -0.000169 -0.000013 -0.000006  0.000066 -0.000007  0.000005  0.000011  0.000048
                                 0.000415  0.001310  0.002132  0.001776  0.000146  0.000016 -0.000013 -0.000063 -0.000362 -0.000429
                                -0.000007  0.000005 -0.000000  0.000186  0.000000

   2.2   2    -0.3563   -7.5863 -0.000000  0.000000 -0.000000  0.000000 -0.000000  0.000000 -0.000000  0.000000 -0.000000  0.000000
                                -0.000001  0.000002 -0.000006  0.000015 -0.000036  0.000083 -0.000188  0.000378 -0.000080 -0.004606
                                 0.014059 -0.004910 -0.027828  0.025141 -0.007789  0.039506  0.047062 -0.000212  0.012630 -0.053863
                                -0.000186  0.000000 -0.000000  0.000000 -0.000001  0.000003 -0.000011  0.000034 -0.000083  0.000210
                                -0.000457  0.000977  0.002618 -0.029662  0.020545  0.119818  0.172660  0.168664  0.101928  0.023560
                                -0.003941  0.009896 -0.005188  0.000000  0.000000 -0.000000 -0.000000  0.000000  0.000000 -0.000000
                                -0.000000  0.000002  0.000000  0.000003 -0.000000  0.000030  0.000000  0.000036 -0.000002  0.000046
                                 0.000040  0.001192  0.000048  0.001913 -0.000008  0.000718 -0.000076  0.004303 -0.000166  0.016193
                                -0.000211  0.013127 -0.000102  0.001832 -0.000111  0.002279 -0.000190  0.002904 -0.000201  0.008003
                                 0.068554  0.227244  0.358313  0.315286  0.074396  0.004766 -0.002103 -0.001696 -0.007246 -0.018446
                                -0.000168 -0.001123  0.000002  0.003250  0.000002

   3.2   0    -0.1054   -8.0497  0.000000 -0.000000  0.000000 -0.000000  0.000000 -0.000000  0.000000 -0.000000  0.000000 -0.000000
                                 0.000001 -0.000002  0.000006 -0.000015  0.000037 -0.000084  0.000189 -0.000381  0.000161  0.003909
                                -0.011914  0.000681  0.018757  0.023807  0.015115 -0.035516 -0.056456 -0.022203 -0.005019  0.002213
                                -0.005842  0.000000 -0.000000  0.000000 -0.000002  0.000006 -0.000020  0.000060 -0.000148  0.000375
                                -0.000818  0.001751  0.004990 -0.055578  0.034004  0.226334  0.344673  0.297585  0.165809  0.057103
                                -0.003674 -0.000979  0.002715  0.000000  0.000000 -0.000000 -0.000000  0.000001  0.000000 -0.000002
                                -0.000000  0.000005  0.000000 -0.000015 -0.000001  0.000030  0.000003 -0.000144 -0.000010  0.001022
                                 0.000034  0.002434  0.000180  0.002105  0.000030 -0.001822 -0.000028 -0.004546 -0.000159 -0.013194
                                -0.000383 -0.010892 -0.000209  0.002379  0.000738 -0.000795  0.001619 -0.008512  0.000754 -0.004915
                                -0.042041 -0.140994 -0.220337 -0.203765 -0.095445 -0.003193  0.001288 -0.000307 -0.002784  0.003799
                                -0.000027  0.001029  0.000001 -0.000030 -0.000009

   4.2   0     0.0076   -3.1556 -0.000000  0.000000 -0.000000  0.000000 -0.000000  0.000000 -0.000000  0.000000 -0.000000  0.000000
                                -0.000001  0.000003 -0.000008  0.000021 -0.000051  0.000121 -0.000288  0.000559  0.001030 -0.017123
                                 0.051434 -0.064470 -0.169266  0.813386  0.028904  0.055704  0.327692  0.079538  0.128154 -0.906843
                                 0.735558  0.000000 -0.000000  0.000000 -0.000001  0.000002 -0.000008  0.000024 -0.000059  0.000137
                                -0.000292  0.000615 -0.000363 -0.003168  0.023016  0.014944 -0.005399  0.049576 -0.014512  0.025938
                                -0.018049  0.047513 -0.153190 -0.000000 -0.000000  0.000001  0.000000 -0.000002 -0.000000  0.000008
                                 0.000000 -0.000022 -0.000001  0.000053  0.000002 -0.000139 -0.000007  0.000418  0.000026 -0.003084
                                -0.000056 -0.009013 -0.000396 -0.006863  0.000237  0.005536 -0.000008  0.010278  0.000446  0.001265
                                 0.001671 -0.025444  0.001821  0.000252  0.000086 -0.000501  0.000190 -0.002055 -0.000005 -0.001551
                                -0.013346 -0.043921 -0.069718 -0.062864 -0.076443 -0.000835  0.000409 -0.000221 -0.002081  0.001470
                                -0.000031  0.000342  0.000004 -0.000049 -0.000014

                                   1 2py     1 2py     1 2py     1 2py     1 2py     1 2py     1 2py     1 2py     1 2py     1 2py
                                   1 2py     1 2py     1 2py     1 2py     1 2py     1 2py     1 2py     1 2py     1 2py     1 2py
                                   1 2py     1 2py     1 2py     1 2py     1 2py     1 2py     1 2py     1 2py     1 2py     1 2py
                                   1 2py     1 3d1-    1 3d1-    1 3d1-    1 3d1-    1 3d1-    1 3d1-    1 3d1-    1 3d1-    1 3d1-
                                   1 3d1-    1 3d1-    1 3d1-    1 3d1-    1 3d1-    1 3d1-    1 3d1-    1 3d1-    1 3d1-    1 3d1-
                                   1 3d1-    1 3d1-    1 3d1-    1 4f1-    1 4f3-    1 4f1-    1 4f3-    1 4f1-    1 4f3-    1 4f1-
                                   1 4f3-    1 4f1-    1 4f3-    1 4f1-    1 4f3-    1 4f1-    1 4f3-    1 4f1-    1 4f3-    1 4f1-
                                   1 4f3-    1 4f1-    1 4f3-    1 4f1-    1 4f3-    1 4f1-    1 4f3-    1 4f1-    1 4f3-    1 4f1-
                                   1 4f3-    1 4f1-    1 4f3-    1 5g1-    1 5g3-    1 5g1-    1 5g3-    1 5g1-    1 5g3-    2 2py
                                   2 2py     2 2py     2 2py     2 2py     2 2py     2 2py     2 2py     2 3d1-    2 3d1-    2 3d1-
                                   2 3d1-    2 4f1-    2 4f3-    2 4f1-    2 4f3-

   1.3   2    -2.2467  -13.7794  0.000000 -0.000000  0.000000 -0.000000  0.000000 -0.000000  0.000000 -0.000001  0.000002 -0.000007
                                 0.000021 -0.000058  0.000154 -0.000385  0.000917 -0.002095  0.004668 -0.009271  0.002183  0.106531
                                -0.312796  0.042761  0.491972  0.217175  0.237694  0.024956 -0.002066  0.000936 -0.175084  0.316794
                                -0.000259  0.000000 -0.000000  0.000000 -0.000000  0.000000 -0.000000  0.000000 -0.000000  0.000001
                                -0.000001  0.000002  0.000006 -0.000025  0.000390 -0.000203 -0.000299 -0.000069 -0.000193 -0.000043
                                -0.000263  0.000658 -0.000000 -0.000000 -0.000000  0.000000  0.000000 -0.000000 -0.000000  0.000001
                                 0.000001 -0.000002 -0.000001  0.000011  0.000011  0.000016  0.000002 -0.000182  0.000061  0.000881
                                 0.000106  0.001417  0.001145 -0.001219  0.001922  0.001449  0.001188 -0.000938  0.002690  0.000005
                                 0.001533  0.000002  0.000169 -0.000013  0.000006  0.000066  0.000006  0.000005 -0.000011  0.000048
                                 0.000415  0.001310  0.002132  0.001774  0.000146  0.000016 -0.000013 -0.000063 -0.000361 -0.000428
                                -0.000007  0.000005  0.000000  0.000185 -0.000000

   2.3   2    -0.3564   -7.5861 -0.000000  0.000000 -0.000000  0.000000 -0.000000  0.000000 -0.000000  0.000000 -0.000000  0.000000
                                -0.000001  0.000002 -0.000006  0.000015 -0.000036  0.000083 -0.000188  0.000378 -0.000080 -0.004603
                                 0.014053 -0.004908 -0.027815  0.025125 -0.007788  0.039495  0.047031 -0.000222  0.012625 -0.053836
                                -0.000186  0.000000 -0.000000  0.000000 -0.000001  0.000003 -0.000011  0.000034 -0.000083  0.000210
                                -0.000457  0.000976  0.002616 -0.029636  0.020529  0.119713  0.172506  0.168526  0.101832  0.023529
                                -0.003939  0.009900 -0.005187  0.000000 -0.000000 -0.000000  0.000000  0.000000 -0.000000 -0.000000
                                 0.000000  0.000002 -0.000000  0.000003  0.000000  0.000030 -0.000000  0.000036  0.000002  0.000046
                                -0.000038  0.001192 -0.000041  0.001911  0.000013  0.000718  0.000074  0.004303  0.000161  0.016191
                                 0.000200  0.013121  0.000095  0.001827  0.000101  0.002271  0.000167  0.002899  0.000178  0.008007
                                 0.068586  0.227348  0.358467  0.315374  0.074376  0.004768 -0.002104 -0.001695 -0.007243 -0.018442
                                -0.000168 -0.001123  0.000002  0.003250  0.000000

   3.3   0    -0.1055   -8.0509  0.000000 -0.000000  0.000000 -0.000000  0.000000 -0.000000  0.000000 -0.000000  0.000000 -0.000000
                                 0.000001 -0.000002  0.000006 -0.000015  0.000037 -0.000084  0.000188 -0.000380  0.000160  0.003903
                                -0.011893  0.000677  0.018722  0.023813  0.015103 -0.035466 -0.056384 -0.022143 -0.005007  0.002163
                                -0.005822  0.000000 -0.000000  0.000000 -0.000002  0.000006 -0.000020  0.000060 -0.000148  0.000375
                                -0.000819  0.001751  0.004992 -0.055598  0.034010  0.226419  0.344795  0.297656  0.165811  0.057068
                                -0.003671 -0.000979  0.002714  0.000000 -0.000000 -0.000000  0.000000  0.000001 -0.000000 -0.000002
                                 0.000000  0.000005 -0.000000 -0.000015  0.000001  0.000030 -0.000003 -0.000145  0.000010  0.001023
                                -0.000034  0.002437 -0.000181  0.002107 -0.000033 -0.001823  0.000027 -0.004548  0.000156 -0.013191
                                 0.000383 -0.010884  0.000218  0.002380 -0.000756 -0.000792 -0.001652 -0.008510 -0.000779 -0.004912
                                -0.042017 -0.140913 -0.220202 -0.203618 -0.095329 -0.003191  0.001287 -0.000308 -0.002786  0.003793
                                -0.000027  0.001028 -0.000004 -0.000030  0.000008

   4.3   0     0.0075   -3.1551 -0.000000  0.000000 -0.000000  0.000000 -0.000000  0.000000 -0.000000  0.000000 -0.000000  0.000000
                                -0.000001  0.000003 -0.000008  0.000021 -0.000051  0.000121 -0.000288  0.000558  0.001030 -0.017115
                                 0.051408 -0.064451 -0.169198  0.813145  0.028877  0.055623  0.327632  0.079631  0.128113 -0.906547
                                 0.735569  0.000000 -0.000000  0.000000 -0.000001  0.000002 -0.000008  0.000024 -0.000059  0.000137
                                -0.000291  0.000615 -0.000364 -0.003163  0.023012  0.014922 -0.005433  0.049541 -0.014536  0.025920
                                -0.018048  0.047512 -0.153170 -0.000000  0.000000  0.000001 -0.000000 -0.000002  0.000000  0.000008
                                -0.000000 -0.000022  0.000001  0.000053 -0.000002 -0.000139  0.000006  0.000419 -0.000024 -0.003089
                                 0.000044 -0.009020  0.000366 -0.006862 -0.000256  0.005546  0.000039  0.010302 -0.000387  0.001295
                                -0.001638 -0.025444 -0.001887  0.000251 -0.000088 -0.000500 -0.000194 -0.002054  0.000003 -0.001550
                                -0.013334 -0.043880 -0.069653 -0.062792 -0.076405 -0.000834  0.000408 -0.000221 -0.002080  0.001470
                                -0.000031  0.000342 -0.000005 -0.000049  0.000014

                                   1 3d2-    1 3d2-    1 3d2-    1 3d2-    1 3d2-    1 3d2-    1 3d2-    1 3d2-    1 3d2-    1 3d2-
                                   1 3d2-    1 3d2-    1 3d2-    1 3d2-    1 3d2-    1 3d2-    1 3d2-    1 3d2-    1 3d2-    1 3d2-
                                   1 3d2-    1 3d2-    1 4f2-    1 4f2-    1 4f2-    1 4f2-    1 4f2-    1 4f2-    1 4f2-    1 4f2-
                                   1 4f2-    1 4f2-    1 4f2-    1 4f2-    1 4f2-    1 4f2-    1 4f2-    1 5g2-    1 5g4-    1 5g2-
                                   1 5g4-    1 5g2-    1 5g4-    2 3d2-    2 3d2-    2 3d2-    2 3d2-    2 4f2-    2 4f2-

   1.4   2    -0.4888   -9.0567  0.000000 -0.000000  0.000000 -0.000002  0.000008 -0.000026  0.000077 -0.000191  0.000481 -0.001051
                                 0.002261  0.005967 -0.068776  0.046244  0.280998  0.415823  0.343273  0.130543  0.008654 -0.006468
                                 0.004568  0.000094  0.000000 -0.000000  0.000000 -0.000001  0.000004 -0.000008  0.000028 -0.000070
                                 0.000526  0.001694  0.002305 -0.000672 -0.001207 -0.002300 -0.001682  0.002543 -0.000014  0.000631
                                -0.000035 -0.003598 -0.000021  0.000140  0.000830  0.000877  0.000015 -0.000055 -0.000425

   2.4   0     0.0540   -2.0762 -0.000000  0.000000 -0.000001  0.000004 -0.000016  0.000052 -0.000148  0.000370 -0.000835  0.001757
                                -0.003676  0.007914 -0.025766 -0.169487  0.089839  0.393444 -0.155829  0.188816 -0.411111  0.155146
                                -0.423038  1.230588 -0.000000  0.000001 -0.000005  0.000018 -0.000052  0.000131 -0.000327  0.000970
                                -0.007182 -0.021609 -0.021147  0.014062  0.025345  0.014753 -0.015226 -0.000236  0.000000  0.000429
                                 0.000002 -0.000960 -0.000004  0.000080  0.001275 -0.000530  0.000023 -0.000037  0.000177

   3.4   0     0.1732   -2.9205  0.000000 -0.000000  0.000002 -0.000011  0.000042 -0.000138  0.000393 -0.000985  0.002204 -0.004622
                                 0.009645 -0.024921  0.100515  0.470030 -0.370851 -1.324643  0.332855 -0.605224  1.857083 -0.444177
                                 1.236784 -0.989807 -0.000000  0.000003 -0.000014  0.000047 -0.000133  0.000334 -0.000837  0.002480
                                -0.018488 -0.056419 -0.057301  0.036262  0.066589  0.040675 -0.056526 -0.000865  0.000001  0.001554
                                 0.000009 -0.004003 -0.000020 -0.000116  0.005872 -0.010765  0.000102  0.000172 -0.001563

 HOMO      2.2    -0.356256 =      -9.6942eV
 LUMO      3.3    -0.105490 =      -2.8705eV
 LUMO-HOMO         0.250766 =       6.8237eV


 **********************************************************************************************************************************
 DATASETS  * FILE   NREC   LENGTH (MB)   RECORD NAMES
              1      19       22.43       500      610      700      900      950      970     1000      129      960     1100
                                          VAR    BASINP    GEOM    SYMINP    ZMAT    AOBASIS   BASIS     P2S    ABASIS      S
                                         1400     1410     1420     1200     1210     1080     1600     1650     1700
                                           T        V       ECP      H0       H01     AOSYM     SMH    MOLCAS    OPER

              2       4        4.45       700     1000      520     2100
                                         GEOM     BASIS   MCVARS     RHF

 PROGRAMS   *        TOTAL       RHF       INT
 CPU TIMES  *       196.31     37.75    158.23
 REAL TIME  *       209.08 SEC
 DISK USED  *         9.09 GB
 SF USED    *         0.23 MB
 GA USED    *         0.00 MB       (max)       0.00 MB       (current)
 **********************************************************************************************************************************
   -->
   <time start="07:32:45" end="07:36:13" cpu="196.31" system="11.74" real="209.08"/>
   <storage units="megabyte" memory="8001.84" sf="0.23" df="388.74" eaf="8698.35" ga="0.0"/>
  </jobstep><!--
 SETTING SCF            =       -92.74990788  AU
 SETTING _CC_NORM_MAX   =         2.00000000
  --><jobstep command="RCCSD(T)" commandset="CCSD">
   <!--


 PROGRAM * CCSD (Restricted open-shell coupled cluster)     Authors: C. Hampel, H.-J. Werner, 1991, M. Deegan, P.J. Knowles, 1992


 Convergence thresholds:  THRVAR = 1.00D-08  THRDEN = 1.00D-06

 CCSD(T)     terms to be evaluated (factor= 1.000)


 Number of closed-shell orbitals:  10 (   5   2   2   1 )
 Number of active  orbitals:        1 (   1   0   0   0 )
 Number of external orbitals:     430 ( 176 103 103  48 )

 Memory could be reduced to 382.54 Mwords without degradation in triples

 Number of N-1 electron functions:              21
 Number of N-2 electron functions:             210
 Number of singly external CSFs:              2867
 Number of doubly external CSFs:           7632564
 Total number of CSFs:                     7635431

 Molecular orbitals read from record     2100.2  Type=RHF/CANONICAL (state 1.1)

 Integral transformation finished. Total CPU:  14.05 sec, npass=  1  Memory used:  33.91 MW

 Starting RMP2 calculation

 Wavefunction is spin-projected

 ITER.      SQ.NORM     CORR.ENERGY   TOTAL ENERGY   ENERGY CHANGE        DEN1      VAR(S)    VAR(P)  DIIS     TIME
   1      1.65494379    -1.05289272   -93.80280060    -1.05289272    -0.01695008  0.96D-05  0.20D-01  1  1    16.11
   2      1.71735821    -1.07343845   -93.82334633    -0.02054573    -0.00020346  0.28D-07  0.25D-03  2  2    17.36
   3      1.72451776    -1.07517517   -93.82508305    -0.00173672    -0.00000100  0.11D-08  0.10D-05  3  3    18.78
   4      1.72469182    -1.07519662   -93.82510450    -0.00002145    -0.00000001  0.67D-11  0.60D-08  4  4    20.52
   5      1.72469501    -1.07519703   -93.82510491    -0.00000041    -0.00000000  0.40D-12  0.42D-10  5  5    22.36

 Norm of t1 vector:      0.02897659      S-energy:    -0.00228749      T1 diagnostic:  0.00013635
 Norm of t2 vector:      0.85079690      P-energy:    -1.07290955
                                         Alpha-Beta:  -0.76562432
                                         Alpha-Alpha: -0.16489803
                                         Beta-Beta:   -0.14238721

 Spin contamination <S**2-Sz**2-Sz>     0.00000000
  Reference energy                    -92.749907878839
   --><property name="energy" method="Reference" stateSymmetry="1" stateNumber="1"
     value="-92.7499078788393"/><!--
  RHF-RMP2 correlation energy          -1.075197034547
   --><property name="energy" method="RHF-RMP2 correlation" stateSymmetry="1" stateNumber="1"
     value="-1.07519703454735"/><!--
 !RHF-RMP2 energy                     -93.825104913387
   --><property name="energy" method="RHF-RMP2" principal="true" stateSymmetry="1"
     stateNumber="1" value="-93.8251049133866"/><!--
 (NB above energy spin projected)

 Starting RCCSD calculation

 ITER.      SQ.NORM     CORR.ENERGY   TOTAL ENERGY   ENERGY CHANGE        DEN1      VAR(S)    VAR(P)  DIIS     TIME
   1      1.51817646    -0.69163009   -93.44153796    -0.69163009    -0.31929888  0.30D+00  0.18D+00  0  0    34.17
   2      1.74633632    -1.02271239   -93.77262027    -0.33108230    -0.57287095  0.54D+00  0.35D+00  0  0    44.10
   3      2.07503495    -0.60503583   -93.35494371     0.41767656    -0.85021736  0.10D+01  0.40D+00  0  0    53.58
   4      2.08728815    -1.00328927   -93.75319715    -0.39825344    -1.52685944  0.19D+01  0.66D+00  0  0    63.23
   5      1.78552894    -0.68133422   -93.43124210     0.32195505    -1.26594602  0.16D+01  0.41D+00  0  0    72.78
   6      1.79352247    -0.97187702   -93.72178490    -0.29054279    -0.81999380  0.99D+00  0.26D+00  0  0    82.33
   7      2.05065996    -0.65980532   -93.40971320     0.31207170    -0.78496807  0.11D+01  0.25D+00  0  0    91.78
   8      2.02955460    -1.00049907   -93.75040695    -0.34069375    -1.09883117  0.14D+01  0.43D+00  0  0   101.32
   9      2.10407539    -0.64281219   -93.39272007     0.35768688    -1.13834886  0.15D+01  0.39D+00  0  0   110.80
  10      2.07211833    -0.98874552   -93.73865340    -0.34593334    -1.16782874  0.16D+01  0.38D+00  0  0   120.19
  11      2.11746443    -0.66477845   -93.41468633     0.32396708    -1.11714274  0.15D+01  0.35D+00  0  0   129.66
  12      2.07503460    -0.98989224   -93.73980012    -0.32511380    -1.00784281  0.13D+01  0.31D+00  0  0   139.90
  13      2.31419937    -0.65585327   -93.40576115     0.33403897    -1.04191772  0.14D+01  0.33D+00  0  0   149.31
  14      2.22097228    -0.99523409   -93.74514196    -0.33938081    -1.15071115  0.15D+01  0.39D+00  0  0   158.96
  15      2.39787272    -0.66090270   -93.41081058     0.33433138    -1.14098292  0.15D+01  0.37D+00  0  0   168.28
  16      2.27681086    -0.99296610   -93.74287398    -0.33206340    -1.08013992  0.14D+01  0.34D+00  0  0   177.65
  17      2.63315754    -0.65886935   -93.40877723     0.33409676    -1.09905426  0.15D+01  0.35D+00  0  0   187.10
  18      2.43591696    -0.99630487   -93.74621275    -0.33743553    -1.15996506  0.15D+01  0.39D+00  0  0   196.55
  19      2.82343984    -0.66080537   -93.41071325     0.33549950    -1.16425534  0.16D+01  0.37D+00  0  0   205.97
  20      2.56781192    -0.99551710   -93.74542497    -0.33471172    -1.14102511  0.15D+01  0.37D+00  0  0   215.41
  21      3.14647724    -0.66001554   -93.40992342     0.33550156    -1.15986032  0.16D+01  0.37D+00  0  0   224.79
  22      2.78068638    -0.99741615   -93.74732403    -0.33740061    -1.19972422  0.16D+01  0.40D+00  0  0   234.31
  23      3.49162676    -0.66077947   -93.41068735     0.33663668    -1.21285124  0.16D+01  0.38D+00  0  0   243.65
  24      3.01429070    -0.99731197   -93.74721985    -0.33653250    -1.21183555  0.16D+01  0.39D+00  0  0   252.98
  25      3.98766176    -0.66011345   -93.41002133     0.33719852    -1.23473682  0.16D+01  0.39D+00  0  0   262.45
  26      3.33990963    -0.99839390   -93.74830178    -0.33828045    -1.27006373  0.16D+01  0.42D+00  0  0   271.85
  27      4.59130723    -0.66015616   -93.41006404     0.33823774    -1.29178020  0.17D+01  0.41D+00  0  0   281.31
  28      3.74192750    -0.99841068   -93.74831856    -0.33825452    -1.30725088  0.17D+01  0.43D+00  0  0   291.03
  29      5.43129575    -0.65910053   -93.40900841     0.33931016    -1.33828963  0.18D+01  0.42D+00  0  0   300.74
  30      4.29485786    -0.99888608   -93.74879396    -0.33978555    -1.38095855  0.17D+01  0.46D+00  0  0   310.33
  31      6.54384026    -0.65831213   -93.40822001     0.34057395    -1.41455590  0.19D+01  0.44D+00  0  0   319.77
  32      5.03632484    -0.99857746   -93.74848534    -0.34026533    -1.44968356  0.18D+01  0.49D+00  0  0   329.27
  33      8.14915661    -0.65626478   -93.40617266     0.34231268    -1.49582707  0.19D+01  0.47D+00  0  0   338.63
  34      6.11229746    -0.99822164   -93.74812952    -0.34195686    -1.56191286  0.19D+01  0.54D+00  0  0   348.04
  35     10.49131974    -0.65395959   -93.40386747     0.34426205    -1.61669771  0.21D+01  0.51D+00  0  0   357.45
  36      7.72014198    -0.99682328   -93.74673116    -0.34286369    -1.69033291  0.20D+01  0.59D+00  0  0   366.95
  37     14.23665659    -0.64944435   -93.39935223     0.34737894    -1.76876434  0.23D+01  0.56D+00  0  0   376.55
  38     10.37935301    -0.99441390   -93.74432178    -0.34496956    -1.90274579  0.21D+01  0.69D+00  0  0   385.95
  39     20.69475514    -0.64307135   -93.39297923     0.35134255    -2.00798513  0.25D+01  0.64D+00  0  0   395.39
  40     15.26351430    -0.98911806   -93.73902594    -0.34604671    -2.20630065  0.23D+01  0.85D+00  0  0   404.82
  41     33.79532195    -0.62999522   -93.37990310     0.35912285    -2.38244610  0.29D+01  0.78D+00  0  0   414.41

 UNREASONABLE NORM: 33.795322 CALCULATION WILL BE STOPPED

 The threshold can be changed using option CC_NORM_MAX (see manual). The current value is CC_NORM_MAX=2.00

 Norm of t1 vector:      3.18144109      S-energy:    -0.00415830      T1 diagnostic:  0.48967220
                                                                       D1 diagnostic:  2.15641566
 Norm of t2 vector:      4.76169660      P-energy:    -0.62583692
                                         Alpha-Beta:  -0.50481840
                                         Alpha-Alpha: -0.06240377
                                         Beta-Beta:   -0.05861475

 Singles amplitudes (print threshold =  0.500E-01):

         I         SYM. A    A   T(IA) [Alpha-Alpha]

         5         1         2      2.25137976
         5         1         3      0.06388173
         5         1         4     -0.15898568
         5         1         6     -0.09697145
         5         1         8     -0.20302395
         5         1        10     -0.12129579
         5         1        11      0.06741532
         5         1        16      0.14922142
         5         1        18      0.08169287
         8         2         1      0.47832465
         8         2         6     -0.07007684
         8         2        11     -0.07097178
        10         3         1      0.48309075
        10         3         6     -0.07049020
        10         3        11     -0.07140110

         I         SYM. A    A   T(IA) [Beta-Beta]

         5         1         2      2.00443839
         5         1         4     -0.13769287
         5         1         6     -0.09050282
         5         1         7     -0.05585864
         5         1         8     -0.16420340
         5         1        10     -0.11689980
         5         1        11      0.05159215
         5         1        16      0.12110935
         5         1        18      0.07097593
         8         2         1      0.35088924
         8         2         6     -0.06427489
         8         2        11     -0.06500334
        10         3         1      0.35522451
        10         3         6     -0.06460181
        10         3        11     -0.06532523

 Doubles amplitudes (print threshold =  0.500E-01):

         I         J         SYM. A    SYM. B    A         B      T(IJ, AB) [Alpha-Alpha]

         8         5         1         2         2         1      0.06037271
         8         5         2         1         1         2     -0.06037271
        10         5         1         3         2         1      0.06072816
        10         5         3         1         1         2     -0.06072816

         I         J         SYM. A    SYM. B    A         B      T(IJ, AB) [Beta-Beta]

         8         5         1         2         2         1      0.06037271
         8         5         2         1         1         2     -0.06037271
        10         5         1         3         2         1      0.06072816
        10         5         3         1         1         2     -0.06072816

         I         J         SYM. A    SYM. B    A         B      T(IJ, AB) [Alpha-Beta]

         2         2         1         1         2         2     -0.06461578
         4         4         1         1         2         2     -0.11369265
         5         4         1         1         2         2      0.11036215
         4         5         1         1         2         2      0.11036215
         5         5         1         1         2         2     -0.66759280
         5         5         1         1         2         3     -0.06504978
         5         5         1         1         2         7     -0.06533959
         5         5         1         1         2         8      0.09476912
         5         5         1         1         2        11     -0.07099406
         5         5         1         1         2        16     -0.07878505
         5         5         1         1         3         2     -0.06504978
         5         5         1         1         7         2     -0.06533959
         5         5         1         1         8         2      0.09476912
         5         5         1         1        11         2     -0.07099406
         5         5         1         1        16         2     -0.07878505
         5         5         2         2         1         1     -0.16700672
         5         5         2         2         1         2      0.06054770
         5         5         2         2         1         3     -0.05988256
         5         5         2         2         2         1      0.06054770
         5         5         2         2         2         2     -0.08986044
         5         5         2         2         2         3      0.08816943
         5         5         2         2         2         5     -0.07544682
         5         5         2         2         3         1     -0.05988256
         5         5         2         2         3         2      0.08816943
         5         5         2         2         3         3     -0.08681575
         5         5         2         2         3         5      0.07514729
         5         5         2         2         5         2     -0.07544682
         5         5         2         2         5         3      0.07514729
         5         5         2         2         5         5     -0.06765730
         5         5         3         3         1         1     -0.16827141
         5         5         3         3         1         2      0.06099203
         5         5         3         3         1         3     -0.06033705
         5         5         3         3         2         1      0.06099203
         5         5         3         3         2         2     -0.09044548
         5         5         3         3         2         3      0.08875797
         5         5         3         3         2         5     -0.07599004
         5         5         3         3         3         1     -0.06033705
         5         5         3         3         3         2      0.08875797
         5         5         3         3         3         3     -0.08740992
         5         5         3         3         3         5      0.07570116
         5         5         3         3         5         2     -0.07599004
         5         5         3         3         5         3      0.07570116
         5         5         3         3         5         5     -0.06818948
         6         5         1         1         2         1     -0.24694137
         8         8         2         2         1         1     -0.19214356
        10        10         3         3         1         1     -0.19498115
        11        11         1         1         2         2     -0.14176601
         8         4         2         1         1         2     -0.06955219
         4         8         1         2         2         1     -0.06955219
         8         5         2         1         1         2     -0.07681171
         5         8         1         2         2         1     -0.07681171
         6         8         2         1         1         1     -0.12743541
        10         4         3         1         1         2     -0.06956092
         4        10         1         3         2         1     -0.06956092
        10         5         3         1         1         2     -0.07723151
         5        10         1         3         2         1     -0.07723151
         6        10         3         1         1         1     -0.12786624
        10         8         2         3         1         1     -0.09105860
        10         8         3         2         1         1     -0.08335466
         8        10         2         3         1         1     -0.08335466
         8        10         3         2         1         1     -0.09105860
        11         5         4         1         2         2      0.05178126
        11         5         4         1         4         2      0.05534628
         5        11         1         4         2         2      0.05178126
         5        11         1         4         2         4      0.05534628

 ?ERROR: NO CONVERGENCE. TRIPLES WILL NOT BE DONE. THIS CAN BE AVOIDED USING THE NOCHECK OPTION.

 Spin contamination <S**2-Sz**2-Sz>     0.00000000


  Correlated core orbitals:             1.1       2.1       1.2       1.3
  Orbital energies:                    -3.8931   -2.2487   -2.2929   -2.2927

  RCCSD core-core energy               -0.179238817415
   --><property name="core-core energy" method="RCCSD" stateSymmetry="1" stateNumber="1"
     value="-0.17923881741456"/><!--
  RCCSD core-valence energy            -0.149426964584
   --><property name="core-valence energy" method="RCCSD" stateSymmetry="1" stateNumber="1"
     value="-0.149426964584339"/><!--
  RCCSD valence correlation energy     -0.301329436578
   --><property name="valence correlation energy" method="RCCSD" stateSymmetry="1"
     stateNumber="1" value="-0.301329436577687"/><!--


 RESULTS
 =======

  Reference energy                    -92.749907878839
   --><property name="energy" method="Reference" stateSymmetry="1" stateNumber="1"
     value="-92.7499078788393"/><!--
  RCCSD singles energy                 -0.004158303030
   --><property name="energy" method="RCCSD singles" stateSymmetry="1" stateNumber="1"
     value="-0.415830302966291E-02"/><!--
  RCCSD pair energy                    -0.625836915547
   --><property name="energy" method="RCCSD pair" stateSymmetry="1" stateNumber="1"
     value="-0.625836915546923"/><!--
  RCCSD correlation energy             -0.629995218577
   --><property name="energy" method="RCCSD correlation" stateSymmetry="1" stateNumber="1"
     value="-0.629995218576586"/><!--

 !RHF-RCCSD energy                    -93.379903097416
   --><property name="energy" method="RHF-RCCSD" principal="true" stateSymmetry="1"
     stateNumber="1" value="-93.3799030974159"/><!--

 Program statistics:

 Available memory in ccsd:               999998822
 Min. memory needed in ccsd:              22094577
 Max. memory used in ccsd:                31518932
 Max. memory used in cckext:              26024904 (41 integral passes)
 Max. memory used in cckint:              33912529 ( 1 integral passes)


 ? Error
 ? No convergence. This error exit can be avoided using the NOCHECK option
 ? The problem occurs in ccsd
   --><error type="Error" location="ccsd"
     message="No convergence. This error exit can be avoided using the NOCHECK option"/><!--
  --></jobstep><!--
  -->
  <input>
  <!--
 --></job><!--
--></molpro>
