<?xml version="1.0"?>
<molpro xmlns="http://www.molpro.net/schema/molpro-output"
  xmlns:xsd="http://www.w3.org/1999/XMLSchema"
  xmlns:cml="http://www.xml-cml.org/schema"
  xmlns:stm="http://www.xml-cml.org/schema"
  xmlns:xhtml="http://www.w3.org/1999/xhtml">
 <!--

 Nodes     nprocs
 nid02152    11
 Number of processes for MPI-2 version of Molpro:   nprocs(total)=   12   nprocs(compute)=   11   nprocs(helper)=    1

 Using customized tuning parameters: mindgm=7; mindgv=16; mindgc=1; mindgr=1; noblas=0; minvec=7
 default implementation of scratch files=sf

 --><job>
  <!--

 Variables initialized (889), CPU time= 0.03 sec
 Commands  initialized (702), CPU time= 0.01 sec, 572 directives.
 Default parameters read. Elapsed time= 0.11 sec

 Checking input...
 Passed
1


                                         ***  PROGRAM SYSTEM MOLPRO  ***
                                       Copyright, TTI GmbH Stuttgart, 2015
                                    Version 2015.1 linked Dec 29 2018 15:55:43


 **********************************************************************************************************************************
 LABEL *   Calculation for GdH3 atom, singlet and triplet
  64 bit mpp version                                                                     DATE: 27-Dec-22          TIME: 13:54:11
 **********************************************************************************************************************************

 SHA1:             19cd028119e0e09f93f0674bd8af7968d9b3eff6
 **********************************************************************************************************************************
  -->
  <!--

 THRESHOLDS:

 ZERO    =  1.00D-12  ONEINT  =  1.00D-12  TWOINT  =  1.00D-15  PREFAC  =  1.00D-14  LOCALI  =  1.00D-09  EORDER  =  1.00D-04
 ENERGY  =  0.00D+00  ETEST   =  0.00D+00  EDENS   =  0.00D+00  THRDEDEF=  1.00D-06  GRADIENT=  1.00D-02  STEP    =  1.00D-03
 ORBITAL =  1.00D-05  CIVEC   =  1.00D-05  COEFF   =  1.00D-04  PRINTCI =  5.00D-02  PUNCHCI =  9.90D+01  OPTGRAD =  3.00D-04
 OPTENERG=  1.00D-06  OPTSTEP =  3.00D-04  THRGRAD =  1.00D-10  COMPRESS=  1.00D-11  VARMIN  =  1.00D-07  VARMAX  =  1.00D-03
 THRDOUB =  0.00D+00  THRDIV  =  1.00D-05  THRRED  =  1.00D-07  THRPSP  =  1.00D+00  THRDC   =  1.00D-10  THRCS   =  1.00D-10
 THRNRM  =  1.00D-08  THREQ   =  0.00D+00  THRDE   =  1.00D+00  THRREF  =  1.00D-05  SPARFAC =  1.00D+00  THRDLP  =  1.00D-07
 THRDIA  =  1.00D-10  THRDLS  =  1.00D-07  THRGPS  =  0.00D+00  THRKEX  =  0.00D+00  THRDIS  =  2.00D-01  THRVAR  =  1.00D-10
 THRLOC  =  1.00D-06  THRGAP  =  1.00D-06  THRLOCT = -1.00D+00  THRGAPT = -1.00D+00  THRORB  =  1.00D-06  THRMLTP =  0.00D+00
 THRCPQCI=  1.00D-10  KEXTA   =  0.00D+00  THRCOARS=  0.00D+00  SYMTOL  =  1.00D-06  GRADTOL =  1.00D-06  THROVL  =  1.00D-08
 THRORTH =  1.00D-08  GRID    =  1.00D-06  GRIDMAX =  1.00D-03  DTMAX   =  0.00D+00  THROCCDE=  1.00D-01  THROCCDE=  1.00D-01



 THRESHOLDS:

 ZERO    =  1.00D-12  ONEINT  =  1.00D-12  TWOINT  =  1.00D-15  PREFAC  =  1.00D-14  LOCALI  =  1.00D-09  EORDER  =  1.00D-04
 ENERGY  =  0.00D+00  ETEST   =  0.00D+00  EDENS   =  0.00D+00  THRDEDEF=  1.00D-06  GRADIENT=  1.00D-02  STEP    =  1.00D-03
 ORBITAL =  1.00D-05  CIVEC   =  1.00D-05  COEFF   =  1.00D-04  PRINTCI =  5.00D-02  PUNCHCI =  9.90D+01  OPTGRAD =  3.00D-04
 OPTENERG=  1.00D-06  OPTSTEP =  3.00D-04  THRGRAD =  1.00D-10  COMPRESS=  1.00D-11  VARMIN  =  1.00D-07  VARMAX  =  1.00D-03
 THRDOUB =  0.00D+00  THRDIV  =  1.00D-05  THRRED  =  1.00D-07  THRPSP  =  1.00D+00  THRDC   =  1.00D-10  THRCS   =  1.00D-10
 THRNRM  =  1.00D-08  THREQ   =  0.00D+00  THRDE   =  1.00D+00  THRREF  =  1.00D-05  SPARFAC =  1.00D+00  THRDLP  =  1.00D-07
 THRDIA  =  1.00D-10  THRDLS  =  1.00D-07  THRGPS  =  0.00D+00  THRKEX  =  0.00D+00  THRDIS  =  2.00D-01  THRVAR  =  1.00D-10
 THRLOC  =  1.00D-06  THRGAP  =  1.00D-06  THRLOCT = -1.00D+00  THRGAPT = -1.00D+00  THRORB  =  1.00D-06  THRMLTP =  0.00D+00
 THRCPQCI=  1.00D-10  KEXTA   =  0.00D+00  THRCOARS=  0.00D+00  SYMTOL  =  1.00D-06  GRADTOL =  1.00D-06  THROVL  =  1.00D-15
 THRORTH =  1.00D-08  GRID    =  1.00D-06  GRIDMAX =  1.00D-03  DTMAX   =  0.00D+00  THROCCDE=  1.00D-01  THROCCDE=  1.00D-01



 Variable memory set to 1000000000 words,  buffer space   230000 words

 SETTING BASIS          =    USERDEF
 SETTING GD_CCSD        =      -108.94859710
 SETTING H_CCSD         =        -0.49982987
 SETTING NE             =        19.00000000
 SETTING SYMM           =         4.00000000
 SETTING SS             =         7.00000000
 SETTING A1             =         6.00000000
 SETTING B1             =         3.00000000
 SETTING B2             =         3.00000000
 SETTING A2             =         1.00000000
 ZUNIT=ANG


Geometry recognized as XYZ

  --><jobstep command="RHF-SCF" commandset="SCFPRO">
   <!--


 Recomputing integrals since basis changed


 Using spherical harmonics



 PROGRAM * SEWARD (Integral evaluation for generally contracted gaussian basis sets)     Author: Roland Lindh, 1990

 Geometry written to block  1 of record 700


 Point group  C2v


   --><cml:molecule>
    <cml:symmetry pointGroup="C2v"/>
    <cml:atomArray>
     <cml:atom id="a1" elementType="Gd" x3="0.0" y3="0.0" z3="0.0"/>
     <cml:atom id="a2" elementType="H" x3="0.0" y3="0.0" z3="2.2"/>
    </cml:atomArray>
    <cml:bondArray>
     <cml:bond atomRefs2="a1 a2"/>
    </cml:bondArray>
   </cml:molecule><!--

 ATOMIC COORDINATES

 NR  ATOM    CHARGE       X              Y              Z

   1  GD     18.00    0.000000000    0.000000000    0.000000000
   2  H       1.00    0.000000000    0.000000000    4.157397474

 Bond lengths in Bohr (Angstrom)

 1-2  4.157397474
     ( 2.200000000)

 NUCLEAR CHARGE:                   19
 NUMBER OF PRIMITIVE AOS:         619
 NUMBER OF SYMMETRY AOS:          469
 NUMBER OF CONTRACTIONS:          469   ( 183A1  + 112B1  + 112B2  +  62A2  )
 NUMBER OF CORE ORBITALS:           0   (   0A1  +   0B1  +   0B2  +   0A2  )
 NUMBER OF VALENCE ORBITALS:       18   (   8A1  +   4B1  +   4B2  +   2A2  )


 NUCLEAR REPULSION ENERGY    4.32963173

 EXTRA SYMMETRY OF AOS IN SYMMETRY 1:   1 1 1 1 1 1 1 1 1 1   1 1 1 1 1 1 1 1 1 1   1 1 1 1 1 1 1 1 1 1   1 1 1 1 1 1 1 1 1 1
                                        1 1 1 1 1 1 1 1 1 1   1 1 1 1 1 1 1 1 1 1   1 1 1 2 1 2 1 2 1 2   1 2 1 2 1 2 1 2 1 2
                                        1 2 1 2 1 2 1 2 1 2   1 2 1 2 1 2 1 2 1 2   1 2 1 2 1 2 1 2 1 2   1 2 1 2 1 2 1 2 1 2
                                        1 2 1 2 1 2 1 2 1 2   1 2 1 2 1 3 2 1 3 2   1 3 2 1 3 2 1 3 2 1   3 2 1 3 2 1 3 2 1 3
                                        2 2 3 1 2 3 1 2 3 1   1 1 1 1 1 1 1 1 1 1   2 1 2
 EXTRA SYMMETRY OF AOS IN SYMMETRY 2:   1 1 1 1 1 1 1 1 1 1   1 1 1 1 1 1 1 1 1 1   1 1 1 1 1 1 1 1 1 1   1 1 1 1 1 1 1 1 1 1
                                        1 1 1 1 1 1 1 1 1 1   1 1 1 2 1 2 1 2 1 2   1 2 1 2 1 2 1 2 1 2   1 2 1 2 1 2 1 2 1 2
                                        1 2 1 2 1 2 1 2 1 2   1 2 1 2 1 2 1 2 1 2   3 1 2 3 1 2 3 1 1 1   1 1
 EXTRA SYMMETRY OF AOS IN SYMMETRY 3:   1 1 1 1 1 1 1 1 1 1   1 1 1 1 1 1 1 1 1 1   1 1 1 1 1 1 1 1 1 1   1 1 1 1 1 1 1 1 1 1
                                        1 1 1 1 1 1 1 1 1 1   1 1 1 2 1 2 1 2 1 2   1 2 1 2 1 2 1 2 1 2   1 2 1 2 1 2 1 2 1 2
                                        1 2 1 2 1 2 1 2 1 2   1 2 1 2 1 2 1 2 1 2   3 1 2 3 1 2 3 1 1 1   1 1
 EXTRA SYMMETRY OF AOS IN SYMMETRY 4:   1 1 1 1 1 1 1 1 1 1   1 1 1 1 1 1 1 1 1 1   1 1 1 1 1 1 1 1 1 1   1 1 1 1 1 1 1 2 1 2
                                        1 2 1 2 1 2 1 2 1 2   1 2 1 2 2 1 2 1 2 1   1 1

 Eigenvalues of metric

         1 0.115E-06 0.306E-06 0.612E-06 0.723E-06 0.727E-06 0.741E-06 0.134E-05 0.432E-05
         2 0.616E-06 0.727E-06 0.439E-05 0.139E-04 0.238E-04 0.448E-04 0.885E-04 0.148E-03
         3 0.616E-06 0.727E-06 0.439E-05 0.139E-04 0.238E-04 0.448E-04 0.885E-04 0.148E-03
         4 0.727E-06 0.238E-04 0.149E-03 0.540E-03 0.826E-03 0.926E-03 0.420E-02 0.882E-02


 Contracted 2-electron integrals neglected if value below      1.0D-15
 AO integral compression algorithm  1   Integral accuracy      1.0D-15

     5609.619 MB (compressed) written to integral file ( 48.1%)

     Node minimum: 318.243 MB, node maximum: 741.343 MB


 NUMBER OF SORTED TWO-ELECTRON INTEGRALS:  140246290.     BUFFER LENGTH:  32768
 NUMBER OF SEGMENTS:   5  SEGMENT LENGTH:   31999404      RECORD LENGTH: 524288

 Memory used in sort:      32.56 MW

 SORT1 READ  1457666564. AND WROTE    54779280. INTEGRALS IN    159 RECORDS. CPU TIME:    23.81 SEC, REAL TIME:    32.84 SEC
 SORT2 READ   605165096. AND WROTE  1542818159. INTEGRALS IN  20922 RECORDS. CPU TIME:     2.04 SEC, REAL TIME:     3.02 SEC

 Node minimum:   140147600.  Node maximum:   140434714. integrals

 OPERATOR DM      FOR CENTER  0  COORDINATES:    0.000000    0.000000    0.000000


 **********************************************************************************************************************************
 DATASETS  * FILE   NREC   LENGTH (MB)   RECORD NAMES
              1      19       22.57       500      610      700      900      950      970     1000      129      960     1100
                                          VAR    BASINP    GEOM    SYMINP    ZMAT    AOBASIS   BASIS     P2S    ABASIS      S
                                         1400     1410     1420     1200     1210     1080     1600     1650     1700
                                           T        V       ECP      H0       H01     AOSYM     SMH    MOLCAS    OPER

 PROGRAMS   *        TOTAL       INT
 CPU TIMES  *       112.67    112.36
 REAL TIME  *       124.29 SEC
 DISK USED  *        12.83 GB
 GA USED    *         0.00 MB       (max)       0.00 MB       (current)
 **********************************************************************************************************************************


 PROGRAM * RHF-SCF (OPEN SHELL)       Authors: W. Meyer, H.-J. Werner


 NUMBER OF ELECTRONS:      13+    6-    SPACE SYMMETRY=4    SPIN SYMMETRY: Octet
 CONVERGENCE THRESHOLDS:    1.00E-05 (Density)    1.00E-07 (Energy)
 MAX. NUMBER OF ITERATIONS:      200
 INTERPOLATION TYPE:            DIIS
 INTERPOLATION STEPS:              2 (START)      1 (STEP)
 LEVEL SHIFTS:                 -0.60 (CLOSED) -0.30 (OPEN)

 Number of closed-shell orbitals:    6 (   4   1   1   0 )
 Number of open-shell orbitals:      7 (   2   2   2   1 )


 Guess basis ATOMIC-GUESS,GD=ECP46_GUESS not found. No density guess!


 Molecular orbital dump at record        3202.2

 ITERATION    DDIFF          GRAD             ENERGY        2-EL.EN.            DIPOLE MOMENTS         DIIS   ORB.
    1      0.000D+00      0.000D+00       -75.34094062    344.819771    0.00000    0.00000    4.02594    0    start
    2      0.000D+00      0.190D+00       -23.82797441     17.905277    0.00000    0.00000  -81.84476    0    diag,B
    3      0.812D+01      0.452D-01       -76.73274140    341.858049    0.00000    0.00000    4.34772    1    diag,B
    4      0.812D+01      0.186D+00       -80.68801257    333.366573    0.00000    0.00000    4.32870    2    diag,B
    5      0.114D-01      0.168D+00       -85.24027832    322.488849    0.00000    0.00000    4.30484    3    diag,B
    6      0.146D-01      0.148D+00       -85.54940201    321.731149    0.00000    0.00000    4.30001    4    diag,B
    7      0.106D-02      0.147D+00       -85.85930884    320.903780    0.00000    0.00000    4.29458    5    diag,B
    8      0.137D-02      0.146D+00       -85.87363311    320.863688    0.00000    0.00000    4.29744    6    diag,B
    9      0.415D-03      0.146D+00       -85.86792668    320.878809    0.00000    0.00000    4.29450    7    diag,B
   10      0.121D-03      0.146D+00       -85.86716619    320.880736    0.00000    0.00000    4.29463    8    orth
   11      0.695D-05      0.146D+00       -85.86811724    320.875840    0.00000    0.00000    4.29475    9    diag,B
   12      0.292D-03      0.146D+00       -86.19154524    320.032078    0.00000    0.00000    4.30385    9    diag,B
   13      0.176D-02      0.145D+00       -86.43848424    319.366486    0.00000    0.00000    4.31584    9    diag,B
   14      0.312D-02      0.144D+00       -86.42438397    319.422467    0.00000    0.00000    4.30320    9    diag,B
   15      0.109D-02      0.144D+00       -86.58184290    318.994966    0.00000    0.00000    4.30333    9    diag,B
   16      0.128D-02      0.143D+00       -85.98152661    320.542840    0.00000    0.00000    4.31241    9    diag,B
   17      0.417D-02      0.146D+00       -87.18532316    317.378170    0.00000    0.00000    4.26731    9    diag,B
   18      0.462D-02      0.141D+00       -87.49832115    316.541634    0.00000    0.00000    4.28148    9    diag,B
   19      0.260D-02      0.139D+00       -87.69674966    316.020551    0.00000    0.00000    4.26264    9    diag,B
   20      0.225D-02      0.138D+00       -87.71829998    315.951785    0.00000    0.00000    4.24927    9    orth
   21      0.116D-02      0.138D+00       -87.56887079    316.345814    0.00000    0.00000    4.25574    9    diag,B
   22      0.174D-02      0.139D+00       -87.82698425    315.658746    0.00000    0.00000    4.26036    9    diag,B
   23      0.351D-02      0.137D+00       -87.71514765    315.960911    0.00000    0.00000    4.27356    9    diag,B
   24      0.765D-03      0.137D+00       -87.75150506    315.853145    0.00000    0.00000    4.26994    9    diag,B
   25      0.250D-03      0.137D+00       -85.21999801    322.545786    0.00000    0.00000    4.30303    9    diag,B
   26      0.122D-01      0.148D+00       -88.02663760    315.128566    0.00000    0.00000    4.25287    9    diag,B
   27      0.133D-01      0.136D+00       -88.07694141    314.983947    0.00000    0.00000    4.26077    9    diag,B
   28      0.624D-03      0.136D+00       -87.21334977    317.328707    0.00000    0.00000    4.27654    9    diag,B
   29      0.407D-02      0.140D+00       -88.11052483    314.903461    0.00000    0.00000    4.24725    9    diag,B
   30      0.408D-02      0.136D+00       -88.09743136    314.946033    0.00000    0.00000    4.25623    9    orth
   31      0.803D-03      0.135D+00       -87.25666365    317.227257    0.00000    0.00000    4.28640    9    diag,B
   32      0.346D-02      0.139D+00       -86.06987151    320.372355    0.00000    0.00000    4.26914    9    diag,B
   33      0.520D-02      0.145D+00       -87.56059148    316.387132    0.00000    0.00000    4.31216    9    diag,B
   34      0.487D-02      0.138D+00       -86.88127669    318.225536    0.00000    0.00000    4.34743    9    diag,B
   35      0.290D-02      0.141D+00       -86.62280860    318.927364    0.00000    0.00000    4.28175    9    diag,B
   36      0.222D-02      0.143D+00       -87.51717881    316.517788    0.00000    0.00000    4.30894    9    diag,B
   37      0.304D-02      0.139D+00       -86.28265980    319.813998    0.00000    0.00000    4.35693    9    diag,B
   38      0.433D-02      0.144D+00       -87.24884107    317.251646    0.00000    0.00000    4.28850    9    diag,B
   39      0.368D-02      0.140D+00       -87.49978959    316.567513    0.00000    0.00000    4.30257    9    diag,B
   40      0.951D-03      0.139D+00       -85.75719576    321.188489    0.00000    0.00000    4.36245    9    orth
   41      0.581D-02      0.147D+00       -87.51167519    316.533425    0.00000    0.00000    4.28962    9    diag,B
   42      0.582D-02      0.139D+00       -87.54578985    316.440565    0.00000    0.00000    4.29344    9    diag,B
   43      0.178D-03      0.139D+00       -85.56795104    321.685469    0.00000    0.00000    4.35651    9    diag,B
   44      0.643D-02      0.147D+00       -87.55860498    316.398566    0.00000    0.00000    4.28992    9    diag,B
   45      0.642D-02      0.139D+00       -87.56047133    316.393827    0.00000    0.00000    4.29327    9    diag,B
   46      0.801D-04      0.138D+00       -85.39638852    322.123608    0.00000    0.00000    4.33717    9    diag,B
   47      0.676D-02      0.148D+00       -87.47888049    316.612412    0.00000    0.00000    4.30323    9    diag,B
   48      0.642D-02      0.139D+00       -87.60702206    316.268450    0.00000    0.00000    4.30167    9    diag,B
   49      0.705D-03      0.138D+00       -85.41975319    322.065934    0.00000    0.00000    4.33992    9    diag,B
   50      0.681D-02      0.148D+00       -87.56037044    316.392333    0.00000    0.00000    4.30204    9    orth
   51      0.662D-02      0.138D+00       -87.58590628    316.323694    0.00000    0.00000    4.30190    9    diag,B
   52      0.148D-03      0.138D+00       -85.38618895    322.157144    0.00000    0.00000    4.34547    9    diag,B
   53      0.685D-02      0.148D+00       -87.63245076    316.193653    0.00000    0.00000    4.29761    9    diag,B
   54      0.699D-02      0.138D+00       -87.62393069    316.216009    0.00000    0.00000    4.29673    9    diag,B
   55      0.879D-04      0.138D+00       -85.24873015    322.510258    0.00000    0.00000    4.34955    9    diag,B
   56      0.738D-02      0.149D+00       -87.66189063    316.111507    0.00000    0.00000    4.29269    9    diag,B
   57      0.751D-02      0.138D+00       -87.66126684    316.112788    0.00000    0.00000    4.29158    9    diag,B
   58      0.902D-04      0.138D+00       -84.93498067    323.302554    0.00000    0.00000    4.33941    9    diag,B
   59      0.823D-02      0.150D+00       -87.72747809    315.932655    0.00000    0.00000    4.28832    9    fixocc
   60      0.838D-02      0.138D+00       -87.74013004    315.899129    0.00000    0.00000    4.29002    9    orth
   61      0.127D-03      0.138D+00       -84.69982322    323.896475    0.00000    0.00000    4.34211    9    diag,B
   62      0.940D-02      0.151D+00       -87.54449980    316.434613    0.00000    0.00000    4.29699    9    diag,B
   63      0.883D-02      0.139D+00       -87.58494757    316.328077    0.00000    0.00000    4.30022    9    diag,B
   64      0.408D-03      0.138D+00       -86.07901923    320.374353    0.00000    0.00000    4.33799    9    diag,B
   65      0.503D-02      0.145D+00       -87.47947281    316.603980    0.00000    0.00000    4.31318    9    diag,B
   66      0.487D-02      0.139D+00       -87.47787534    316.607187    0.00000    0.00000    4.31376    9    diag,B
   67      0.141D-03      0.139D+00       -85.72103505    321.303274    0.00000    0.00000    4.32656    9    diag,B
   68      0.566D-02      0.147D+00       -87.67084570    316.082941    0.00000    0.00000    4.30896    9    diag,B
   69      0.603D-02      0.138D+00       -87.66814925    316.089877    0.00000    0.00000    4.30883    9    diag,B
   70      0.498D-04      0.138D+00       -85.00402163    323.135459    0.00000    0.00000    4.32440    9    orth
   71      0.791D-02      0.150D+00       -87.70038141    316.003346    0.00000    0.00000    4.30217    9    diag,B
   72      0.805D-02      0.138D+00       -87.71450911    315.966327    0.00000    0.00000    4.30257    9    diag,B
   73      0.127D-03      0.138D+00       -85.05369882    323.009106    0.00000    0.00000    4.32978    9    diag,B
   74      0.810D-02      0.150D+00       -87.66358409    316.106033    0.00000    0.00000    4.30347    9    diag,B
   75      0.797D-02      0.138D+00       -87.66967459    316.090070    0.00000    0.00000    4.30371    9    diag,B
   76      0.671D-04      0.138D+00       -85.30149134    322.380093    0.00000    0.00000    4.33286    9    diag,B
   77      0.728D-02      0.148D+00       -87.66446515    316.102236    0.00000    0.00000    4.30486    9    diag,B
   78      0.727D-02      0.138D+00       -87.66123844    316.110380    0.00000    0.00000    4.30459    9    diag,B
   79      0.481D-04      0.138D+00       -85.32350852    322.323065    0.00000    0.00000    4.33938    9    diag,B
   80      0.734D-02      0.148D+00       -87.61233832    316.244361    0.00000    0.00000    4.30463    9    orth
   81      0.721D-02      0.138D+00       -87.61107257    316.249238    0.00000    0.00000    4.30525    9    diag,B
   82      0.115D-03      0.138D+00       -85.31746731    322.334472    0.00000    0.00000    4.32669    9    diag,B
   83      0.744D-02      0.148D+00       -87.59855702    316.285716    0.00000    0.00000    4.30590    9    diag,B
   84      0.739D-02      0.138D+00       -87.66885490    316.095793    0.00000    0.00000    4.30591    9    diag,B
   85      0.611D-03      0.138D+00       -85.10895149    322.863186    0.00000    0.00000    4.32986    9    diag,B
   86      0.829D-02      0.149D+00       -87.55797561    316.398861    0.00000    0.00000    4.30616    9    diag,B
   87      0.797D-02      0.138D+00       -87.62095071    316.229085    0.00000    0.00000    4.30570    9    diag,B
   88      0.474D-03      0.138D+00       -85.46147449    321.965096    0.00000    0.00000    4.33135    9    diag,B
   89      0.713D-02      0.148D+00       -87.56111948    316.389843    0.00000    0.00000    4.30891    9    diag,B
   90      0.694D-02      0.138D+00       -87.58357782    316.329189    0.00000    0.00000    4.30858    9    orth
   91      0.196D-03      0.138D+00       -85.42541124    322.059665    0.00000    0.00000    4.33398    9    diag,B
   92      0.699D-02      0.148D+00       -87.60712830    316.263015    0.00000    0.00000    4.30667    9    diag,B
   93      0.705D-02      0.138D+00       -87.60296081    316.274207    0.00000    0.00000    4.30661    9    diag,B
   94      0.415D-04      0.138D+00       -85.18786539    322.660766    0.00000    0.00000    4.32982    9    diag,B
   95      0.796D-02      0.149D+00       -87.59585106    316.296533    0.00000    0.00000    4.30538    9    diag,B
   96      0.797D-02      0.138D+00       -87.62464163    316.218577    0.00000    0.00000    4.30574    9    diag,B
   97      0.247D-03      0.138D+00       -85.28205867    322.417334    0.00000    0.00000    4.32770    9    diag,B
   98      0.802D-02      0.149D+00       -87.51689571    316.513163    0.00000    0.00000    4.30899    9    diag,B
   99      0.774D-02      0.139D+00       -87.59139001    316.311083    0.00000    0.00000    4.30789    9    diag,B
  100      0.467D-03      0.138D+00       -85.51233952    321.825609    0.00000    0.00000    4.32640    9    orth
  101      0.740D-02      0.148D+00       -87.43480953    316.737225    0.00000    0.00000    4.31322    9    diag,B
  102      0.699D-02      0.139D+00       -87.55037163    316.423662    0.00000    0.00000    4.31051    9    diag,B
  103      0.640D-03      0.138D+00       -85.67418059    321.407811    0.00000    0.00000    4.32582    9    diag,B
  104      0.683D-02      0.147D+00       -87.37410775    316.902612    0.00000    0.00000    4.31614    9    diag,B
  105      0.637D-02      0.139D+00       -87.51579997    316.518442    0.00000    0.00000    4.31224    9    diag,B
  106      0.722D-03      0.139D+00       -85.80011113    321.081978    0.00000    0.00000    4.32554    9    diag,B
  107      0.634D-02      0.146D+00       -87.33965623    316.996457    0.00000    0.00000    4.31803    9    diag,B
  108      0.588D-02      0.139D+00       -87.48580359    316.600413    0.00000    0.00000    4.31364    9    diag,B
  109      0.710D-03      0.139D+00       -85.87593774    320.885451    0.00000    0.00000    4.32572    9    diag,B
  110      0.600D-02      0.146D+00       -87.32906821    317.025445    0.00000    0.00000    4.31888    9    orth
  111      0.561D-02      0.140D+00       -87.46230676    316.664504    0.00000    0.00000    4.31467    9    diag,B
  112      0.634D-03      0.139D+00       -85.91487772    320.784532    0.00000    0.00000    4.32623    9    diag,B
  113      0.581D-02      0.146D+00       -87.33503068    317.009435    0.00000    0.00000    4.31897    9    diag,B
  114      0.549D-02      0.139D+00       -87.44553262    316.710138    0.00000    0.00000    4.31540    9    diag,B
  115      0.528D-03      0.139D+00       -85.92526038    320.757822    0.00000    0.00000    4.32700    9    diag,B
  116      0.574D-02      0.146D+00       -87.35090178    316.966403    0.00000    0.00000    4.31853    9    diag,B
  117      0.551D-02      0.139D+00       -87.43578272    316.736532    0.00000    0.00000    4.31583    9    diag,B
  118      0.420D-03      0.139D+00       -85.91524952    320.784302    0.00000    0.00000    4.32800    9    diag,B
  119      0.575D-02      0.146D+00       -87.37244366    316.907791    0.00000    0.00000    4.31773    9    diag,B
  120      0.560D-02      0.139D+00       -87.43255402    316.745050    0.00000    0.00000    4.31596    9    orth
  121      0.320D-03      0.139D+00       -85.89153674    320.846965    0.00000    0.00000    4.32935    9    diag,B
  122      0.578D-02      0.146D+00       -87.39934605    316.834347    0.00000    0.00000    4.31666    9    diag,B
  123      0.570D-02      0.139D+00       -87.43471142    316.738680    0.00000    0.00000    4.31573    9    diag,B
  124      0.212D-03      0.139D+00       -85.86804804    320.911010    0.00000    0.00000    4.33170    9    diag,B
  125      0.570D-02      0.146D+00       -87.43722851    316.730377    0.00000    0.00000    4.31524    9    diag,B
  126      0.571D-02      0.139D+00       -87.44179243    316.718137    0.00000    0.00000    4.31497    9    diag,B
  127      0.355D-04      0.139D+00       -86.89184828    318.230944    0.00000    0.00000    4.32336    9    diag,B
  128      0.436D-02      0.141D+00       -85.78263143    321.126391    0.00000    0.00000    4.32584    9    diag,B
  129      0.310D-02      0.146D+00       -87.24971372    317.224163    0.00000    0.00000    4.30405    9    diag,B
  130      0.523D-02      0.140D+00       -87.55799312    316.401391    0.00000    0.00000    4.30782    9    orth
  131      0.242D-02      0.138D+00       -85.79198685    321.111404    0.00000    0.00000    4.33630    9    diag,B
  132      0.704D-02      0.146D+00       -87.29945314    317.103111    0.00000    0.00000    4.31468    9    diag,B
  133      0.644D-02      0.140D+00       -87.41321000    316.797514    0.00000    0.00000    4.31729    9    diag,B
  134      0.787D-03      0.139D+00       -86.36855205    319.598248    0.00000    0.00000    4.33007    9    diag,B
  135      0.498D-02      0.144D+00       -87.12540676    317.573250    0.00000    0.00000    4.31881    9    diag,B
  136      0.474D-02      0.140D+00       -87.43132273    316.747339    0.00000    0.00000    4.32094    9    diag,B
  137      0.177D-02      0.139D+00       -86.25548344    319.888798    0.00000    0.00000    4.33119    9    diag,B
  138      0.553D-02      0.144D+00       -87.06091119    317.746002    0.00000    0.00000    4.31625    9    diag,B
  139      0.524D-02      0.141D+00       -87.52634494    316.489238    0.00000    0.00000    4.31843    9    diag,B
  140      0.252D-02      0.139D+00       -86.18726196    320.064149    0.00000    0.00000    4.33204    9    orth
  141      0.619D-02      0.145D+00       -86.97878091    317.964933    0.00000    0.00000    4.31406    9    diag,B
  142      0.559D-02      0.141D+00       -87.59574108    316.299513    0.00000    0.00000    4.31581    9    diag,B
  143      0.325D-02      0.138D+00       -86.16459842    320.121518    0.00000    0.00000    4.33249    9    diag,B
  144      0.656D-02      0.145D+00       -86.90843685    318.151785    0.00000    0.00000    4.31234    9    diag,B
  145      0.574D-02      0.141D+00       -87.64457133    316.165673    0.00000    0.00000    4.31362    9    diag,B
  146      0.386D-02      0.138D+00       -86.14710665    320.165969    0.00000    0.00000    4.33273    9    diag,B
  147      0.681D-02      0.145D+00       -86.86123408    318.276681    0.00000    0.00000    4.31092    9    diag,B
  148      0.584D-02      0.142D+00       -87.67884506    316.071670    0.00000    0.00000    4.31192    9    diag,B
  149      0.430D-02      0.138D+00       -86.12936523    320.211511    0.00000    0.00000    4.33292    9    diag,B
  150      0.699D-02      0.145D+00       -86.83422571    318.347908    0.00000    0.00000    4.30977    9    orth
  151      0.591D-02      0.142D+00       -87.70049114    316.012273    0.00000    0.00000    4.31072    9    diag,B
  152      0.456D-02      0.138D+00       -86.11394885    320.251347    0.00000    0.00000    4.33316    9    diag,B
  153      0.711D-02      0.145D+00       -86.82199237    318.380079    0.00000    0.00000    4.30890    9    diag,B
  154      0.595D-02      0.142D+00       -87.71198424    315.980734    0.00000    0.00000    4.30999    9    diag,B
  155      0.468D-02      0.138D+00       -86.10186725    320.282764    0.00000    0.00000    4.33346    9    diag,B
  156      0.716D-02      0.145D+00       -86.81952988    318.386505    0.00000    0.00000    4.30827    9    diag,B
  157      0.595D-02      0.142D+00       -87.71615885    315.969298    0.00000    0.00000    4.30959    9    diag,B
  158      0.470D-02      0.138D+00       -86.09330077    320.305227    0.00000    0.00000    4.33384    9    diag,B
  159      0.717D-02      0.145D+00       -86.82309460    318.377070    0.00000    0.00000    4.30784    9    diag,B
  160      0.594D-02      0.142D+00       -87.71535585    315.971545    0.00000    0.00000    4.30942    9    orth
  161      0.466D-02      0.138D+00       -86.08791263    320.319564    0.00000    0.00000    4.33426    9    diag,B
  162      0.714D-02      0.145D+00       -86.83037058    318.357862    0.00000    0.00000    4.30756    9    diag,B
  163      0.590D-02      0.142D+00       -87.71131249    315.982701    0.00000    0.00000    4.30940    9    diag,B
  164      0.458D-02      0.138D+00       -86.08489136    320.327839    0.00000    0.00000    4.33470    9    diag,B
  165      0.709D-02      0.145D+00       -86.84001177    318.332408    0.00000    0.00000    4.30740    9    diag,B
  166      0.585D-02      0.142D+00       -87.70530965    315.999242    0.00000    0.00000    4.30948    9    diag,B
  167      0.448D-02      0.138D+00       -86.08332745    320.332377    0.00000    0.00000    4.33515    9    diag,B
  168      0.703D-02      0.145D+00       -86.85112725    318.303045    0.00000    0.00000    4.30731    9    diag,B
  169      0.580D-02      0.142D+00       -87.69827999    316.018601    0.00000    0.00000    4.30961    9    diag,B
  170      0.437D-02      0.138D+00       -86.08251295    320.334983    0.00000    0.00000    4.33557    9    orth
  171      0.696D-02      0.145D+00       -86.86303258    318.271570    0.00000    0.00000    4.30728    9    diag,B
  172      0.575D-02      0.142D+00       -87.69087831    316.038978    0.00000    0.00000    4.30977    9    diag,B
  173      0.425D-02      0.138D+00       -86.08198868    320.336829    0.00000    0.00000    4.33597    9    diag,B
  174      0.689D-02      0.145D+00       -86.87518813    318.239407    0.00000    0.00000    4.30728    9    diag,B
  175      0.570D-02      0.142D+00       -87.68354512    316.059161    0.00000    0.00000    4.30994    9    diag,B
  176      0.414D-02      0.138D+00       -86.08148045    320.338611    0.00000    0.00000    4.33633    9    diag,B
  177      0.683D-02      0.145D+00       -86.88718450    318.207639    0.00000    0.00000    4.30731    9    diag,B
  178      0.566D-02      0.141D+00       -87.67656271    316.078374    0.00000    0.00000    4.31010    9    diag,B
  179      0.404D-02      0.138D+00       -86.08083822    320.340710    0.00000    0.00000    4.33666    9    diag,B
  180      0.677D-02      0.145D+00       -86.89872540    318.177054    0.00000    0.00000    4.30735    9    orth
  181      0.562D-02      0.141D+00       -87.67009912    316.096156    0.00000    0.00000    4.31026    9    diag,B
  182      0.394D-02      0.138D+00       -86.07999653    320.343290    0.00000    0.00000    4.33695    9    diag,B
  183      0.672D-02      0.145D+00       -86.90960737    318.148194    0.00000    0.00000    4.30739    9    diag,B
  184      0.558D-02      0.141D+00       -87.66424129    316.112269    0.00000    0.00000    4.31040    9    diag,B
  185      0.385D-02      0.138D+00       -86.07894608    320.346374    0.00000    0.00000    4.33720    9    diag,B
  186      0.667D-02      0.145D+00       -86.91970102    318.121407    0.00000    0.00000    4.30744    9    diag,B
  187      0.556D-02      0.141D+00       -87.65902017    316.126628    0.00000    0.00000    4.31053    9    diag,B
  188      0.377D-02      0.138D+00       -86.07771194    320.349895    0.00000    0.00000    4.33742    9    diag,B
  189      0.664D-02      0.145D+00       -86.92893464    318.096887    0.00000    0.00000    4.30749    9    diag,B
  190      0.554D-02      0.141D+00       -87.65442944    316.139252    0.00000    0.00000    4.31065    9    orth
  191      0.369D-02      0.138D+00       -86.07633736    320.353744    0.00000    0.00000    4.33762    9    diag,B
  192      0.660D-02      0.145D+00       -86.93728045    318.074712    0.00000    0.00000    4.30754    9    diag,B
  193      0.552D-02      0.141D+00       -87.65043923    316.150223    0.00000    0.00000    4.31075    9    diag,B
  194      0.363D-02      0.138D+00       -86.07487240    320.357792    0.00000    0.00000    4.33778    9    diag,B
  195      0.658D-02      0.145D+00       -86.94474320    318.054874    0.00000    0.00000    4.30758    9    diag,B
  196      0.550D-02      0.141D+00       -87.64700592    316.159663    0.00000    0.00000    4.31083    9    diag,B
  197      0.358D-02      0.138D+00       -86.07336654    320.361913    0.00000    0.00000    4.33793    9    diag,B
  198      0.656D-02      0.145D+00       -86.95135106    318.037301    0.00000    0.00000    4.30762    9    diag,B
     Orbital  1.2 strongly deviates from fixed occupation: 1.74898  (now: 2.00)
     Orbital  2.2 strongly deviates from fixed occupation: 1.25066  (now: 1.00)
     Note:  Use {hf,nitord=N} to fix occupations at iteration N
            Use {gthresh,occdev=1.0} to suppress deviation warnings
  199      0.549D-02      0.141D+00       -87.61815731    316.282693    0.00000    0.00000    4.30989    9    orth
     Orbital  1.1 strongly deviates from fixed occupation: 1.40836  (now: 2.00)
     Orbital  2.1 strongly deviates from fixed occupation: 0.87868  (now: 2.00)
     Orbital  3.1 strongly deviates from fixed occupation: 0.76358  (now: 2.00)
     Orbital  4.1 strongly deviates from fixed occupation: 0.55926  (now: 2.00)
     Orbital  5.1 strongly deviates from fixed occupation: 0.34427  (now: 1.00)
     Orbital  6.1 strongly deviates from fixed occupation: 0.53697  (now: 1.00)
     Orbital  1.2 strongly deviates from fixed occupation: 0.84224  (now: 2.00)
     Orbital  2.2 strongly deviates from fixed occupation: 0.41804  (now: 1.00)
     Orbital  3.2 strongly deviates from fixed occupation: 0.56623  (now: 1.00)
     Orbital  1.3 strongly deviates from fixed occupation: 0.82339  (now: 2.00)
     Orbital  2.3 strongly deviates from fixed occupation: 0.43371  (now: 1.00)
     Orbital  3.3 strongly deviates from fixed occupation: 0.54404  (now: 1.00)
     Orbital  1.4 strongly deviates from fixed occupation: 0.42625  (now: 1.00)
  200      0.315D-02      0.138D+00       -69.49707235    171.194649    0.00000    0.00000    0.37152    0    orth

 Final alpha occupancy:   6   3   3   1
 Final beta  occupancy:   4   1   1   0

 !RHF STATE 1.4 Energy                -69.497072346739
   --><property name="Energy" method="RHF" principal="true" stateSymmetry="4" stateNumber="1"
     value="-69.4970723467392"/><!--
 Nuclear energy                         4.32963173
 One-electron energy                 -159.42402865
 Two-electron energy                   85.59732458
 Virial quotient                       -0.51204476
 !RHF STATE 1.4 Dipole moment           0.00000000     0.00000000     0.37152404
 Dipole moment /Debye                   0.00000000     0.00000000     0.94425808
   --><property name="Dipole moment" method="RHF" principal="true" stateSymmetry="4"
     stateNumber="1" value="0.0 0.0 0.371524044395619"/><!--

 ELECTRON ORBITALS
 =================


   Orb  Occ    Energy  Couls-En    Coefficients

                                   1 1s      1 1s      1 1s      1 1s      1 1s      1 1s      1 1s      1 1s      1 1s      1 1s
                                   1 1s      1 1s      1 1s      1 1s      1 1s      1 1s      1 1s      1 1s      1 1s      1 1s
                                   1 1s      1 1s      1 1s      1 1s      1 1s      1 1s      1 1s      1 1s      1 1s      1 1s
                                   1 1s      1 1s      1 2pz     1 2pz     1 2pz     1 2pz     1 2pz     1 2pz     1 2pz     1 2pz
                                   1 2pz     1 2pz     1 2pz     1 2pz     1 2pz     1 2pz     1 2pz     1 2pz     1 2pz     1 2pz
                                   1 2pz     1 2pz     1 2pz     1 2pz     1 2pz     1 2pz     1 2pz     1 2pz     1 2pz     1 2pz
                                   1 2pz     1 2pz     1 3d0     1 3d2+    1 3d0     1 3d2+    1 3d0     1 3d2+    1 3d0     1 3d2+
                                   1 3d0     1 3d2+    1 3d0     1 3d2+    1 3d0     1 3d2+    1 3d0     1 3d2+    1 3d0     1 3d2+
                                   1 3d0     1 3d2+    1 3d0     1 3d2+    1 3d0     1 3d2+    1 3d0     1 3d2+    1 3d0     1 3d2+
                                   1 3d0     1 3d2+    1 3d0     1 3d2+    1 3d0     1 3d2+    1 3d0     1 3d2+    1 3d0     1 3d2+
                                   1 3d0     1 3d2+    1 3d0     1 3d2+    1 3d0     1 3d2+    1 4f0     1 4f2+    1 4f0     1 4f2+
                                   1 4f0     1 4f2+    1 4f0     1 4f2+    1 4f0     1 4f2+    1 4f0     1 4f2+    1 4f0     1 4f2+
                                   1 4f0     1 4f2+    1 4f0     1 4f2+    1 4f0     1 4f2+    1 4f0     1 4f2+    1 4f0     1 4f2+
                                   1 4f0     1 4f2+    1 4f0     1 4f2+    1 5g0     1 5g4+    1 5g2+    1 5g0     1 5g4+    1 5g2+
                                   1 5g0     1 5g4+    1 5g2+    1 5g0     1 5g4+    1 5g2+    1 5g0     1 5g4+    1 5g2+    1 5g0
                                   1 5g4+    1 5g2+    1 5g0     1 5g4+    1 5g2+    1 5g0     1 5g4+    1 5g2+    1 5g0     1 5g4+
                                   1 5g2+    1 6h2+    1 6h4+    1 6h0     1 6h2+    1 6h4+    1 6h0     1 6h2+    1 6h4+    1 6h0
                                   2 1s      2 1s      2 1s      2 1s      2 1s      2 1s      2 2pz     2 2pz     2 2pz     2 3d0
                                   2 3d2+    2 3d0     2 3d2+

   1.1   2     0.1273  -10.5958 -0.000000  0.000001 -0.000003  0.000056  0.000246  0.000765  0.001623  0.003633 -0.001441  0.002161
                                 0.024307  0.520983 -0.112120 -0.159192  0.488270  0.534075  0.357138  0.223722  0.070919 -0.000098
                                -0.000443 -0.001310 -0.003745 -0.060501 -0.683769  0.036838  0.038013 -0.365555 -0.123110 -0.005754
                                 0.003165 -0.001278  0.000000 -0.000000  0.000000 -0.000000  0.000000 -0.000000  0.000000 -0.000001
                                 0.000005 -0.000046 -0.000450 -0.000082  0.022490 -0.020484  0.042328  0.074433  0.031736  0.016922
                                -0.008734  0.000179  0.000541 -0.013041 -0.014117  0.000286  0.024204  0.003959  0.008989 -0.013794
                                -0.001001  0.000345 -0.000000  0.000000  0.000000 -0.000000 -0.000000  0.000000  0.000002 -0.000000
                                -0.000035  0.000009 -0.000274  0.000085  0.002440 -0.000246 -0.005507  0.000160  0.004646  0.000135
                                 0.038137 -0.000761  0.000079 -0.000022  0.000488 -0.000166 -0.001649  0.000289  0.002025 -0.000075
                                 0.025110 -0.000857  0.007631 -0.000075  0.006172 -0.000098 -0.003181  0.000050  0.000259 -0.000034
                                -0.002416  0.000013  0.000624 -0.000006 -0.000007  0.000002  0.000000 -0.000000 -0.000001  0.000000
                                 0.000015 -0.000000  0.000340 -0.000002  0.000712 -0.000004  0.001105  0.000001  0.002157  0.000010
                                 0.000095 -0.000004 -0.000100 -0.000006  0.004243 -0.000002  0.000323 -0.000003  0.000875 -0.000000
                                -0.001172  0.000000 -0.000085 -0.000000  0.000002 -0.000025 -0.000003  0.000145  0.000011 -0.000018
                                -0.000220 -0.000159  0.000012  0.000455  0.000555  0.000034  0.001681  0.001331  0.000021  0.001776
                                 0.000085  0.000006 -0.001019  0.000113 -0.000001  0.001147 -0.000057  0.000000 -0.000439  0.000023
                                -0.000000 -0.000002  0.000030  0.000032 -0.000003  0.000081  0.000022  0.000003 -0.000013  0.000002
                                 0.000946  0.010309  0.042040  0.099040  0.056935  0.014089 -0.001656 -0.010267 -0.008311  0.000965
                                -0.000000  0.002232  0.000000

   2.1   2     3.5041   -5.5737 -0.000000  0.000000 -0.000001  0.000011  0.000047  0.000146  0.000309  0.000688 -0.000276  0.000974
                                -0.010201 -0.046468 -0.092151  0.200348  0.652317 -0.249068 -0.760179 -0.432822 -0.150980 -0.000019
                                -0.000085 -0.000250 -0.000710  0.015902  0.079914 -0.701190  0.463183  0.777572  0.229342  0.006354
                                -0.002176  0.000463 -0.000000  0.000000 -0.000000  0.000000 -0.000000  0.000000 -0.000000  0.000000
                                -0.000002  0.000014  0.000150  0.000217  0.001618  0.002094 -0.002237 -0.038484  0.079619 -0.072287
                                 0.006785 -0.000056 -0.000217 -0.001225 -0.002207 -0.001239  0.012619 -0.003309 -0.012511  0.008921
                                 0.000842 -0.000144  0.000000 -0.000018 -0.000001  0.000093  0.000006 -0.000391 -0.000032  0.002085
                                 0.000596 -0.038712  0.005480 -0.355329 -0.011617  0.750149  0.004768 -0.305570  0.015376 -1.021071
                                 0.000391 -0.750886 -0.001427  0.092611 -0.010513  0.681250  0.016008 -1.035394 -0.010954  0.713917
                                -0.012408  0.883029  0.034763  0.908859 -0.040204 -0.825260 -0.002476  0.535420 -0.000669 -0.297827
                                 0.000172  0.103379 -0.000064 -0.042741  0.000016  0.012007 -0.000001  0.000130  0.000009 -0.000999
                                -0.000088  0.009708 -0.000475  0.042624  0.001967 -0.246769  0.000590 -0.084208 -0.015807  1.615383
                                -0.001936  0.218121 -0.004484  0.509758  0.027192 -1.848381 -0.016007  1.242468 -0.002301 -0.824168
                                -0.000949  0.411435  0.000345 -0.131222 -0.000025 -0.000000  0.000461  0.000091 -0.000000 -0.000854
                                -0.000290 -0.000000  0.004429  0.000817  0.000005 -0.007379 -0.002766  0.000016  0.040301  0.008635
                                -0.000010  0.000107 -0.002293  0.000001 -0.000100 -0.003468  0.000000 -0.003127 -0.000016 -0.000000
                                 0.001569 -0.000004  0.000034  0.000014 -0.000349  0.000048  0.000016 -0.003542  0.000134  0.000009
                                 0.000039 -0.000280  0.005873 -0.014582  0.047075  0.000364 -0.000640  0.014793 -0.005430  0.001551
                                -0.028011 -0.009837  0.004490

   3.1   2     3.6348   -4.3089  0.000001 -0.000006  0.000033 -0.000606 -0.002656 -0.008250 -0.017436 -0.038796  0.015560 -0.055003
                                 0.576663  2.639069  5.284060-11.667415-39.368304 15.913821 39.556114 19.616419  4.921703  0.001060
                                 0.004777  0.014103  0.040048 -0.899479 -4.552486 41.843606-28.565982-34.591606 -9.132773 -0.275573
                                 0.093734 -0.019864 -0.000001  0.000003 -0.000013  0.000040 -0.000054  0.000071 -0.000154  0.000439
                                -0.001799  0.016540  0.181043  0.251842  1.716552  2.147111  7.388634  7.371949-10.000629  8.950256
                                -2.290016 -0.066812 -0.260529 -1.344090 -2.109621 -2.756773 -8.393130  0.892002  2.897370 -2.616518
                                -0.227463  0.039368 -0.000049 -0.000000  0.000253  0.000000 -0.001060 -0.000000  0.005661  0.000001
                                -0.105135 -0.000025 -0.966210 -0.000224  2.048229  0.000449 -0.840274 -0.000155 -2.763841 -0.000573
                                -0.978775  0.000022  0.251587  0.000059  1.853935  0.000425 -2.822838 -0.000632  1.943931  0.000422
                                 2.321699  0.000093 -2.094190  0.000474  2.916903 -0.000652  0.990090  0.000478 -0.496735 -0.000267
                                 0.006011  0.000088 -0.028007 -0.000034  0.009221  0.000010  0.000124  0.000001 -0.000952 -0.000010
                                 0.009248  0.000093  0.039963  0.000227 -0.241307 -0.003042 -0.095022 -0.001495  1.728909  0.016359
                                 0.208735  0.002223  0.494662  0.005398 -2.718832 -0.018153  1.687087  0.012062  0.176907 -0.008010
                                 0.054667  0.004004 -0.059251 -0.001278  0.001509 -0.000052  0.000008 -0.005273  0.000172 -0.000019
                                 0.017861 -0.000614  0.000077 -0.051624  0.000851 -0.000141  0.195954 -0.004186  0.000680 -0.629157
                                 0.007080 -0.000464  0.100623 -0.005071  0.000335  0.423549  0.002503 -0.000214 -0.051840 -0.000791
                                 0.000071  0.000003 -0.000240  0.000261  0.000007 -0.000199 -0.000880  0.000027 -0.000348 -0.001166
                                -0.002924  0.024461 -0.453625  1.177799 -4.813922  0.942206  0.074158 -1.291537  0.708270 -0.167506
                                -0.000367  0.878158  0.000097

   4.1   2     5.4770   -1.5388 -0.000002  0.000013 -0.000068  0.001255  0.005506  0.017107  0.036170  0.080550 -0.032364  0.115873
                                -1.237229 -5.881749-11.326327 23.690820 61.778734-14.523951-28.997893-15.063774 -4.823774 -0.002196
                                -0.009904 -0.029249 -0.083126  1.941787 10.102333-72.251852 21.943222 22.325235  8.898340  0.304384
                                -0.105874  0.022694  0.000008 -0.000031  0.000123 -0.000373  0.000500 -0.000653  0.001417 -0.004052
                                 0.016620 -0.153042 -1.681669 -2.361578-16.656674-20.829361-62.893387-23.799414 16.826580-14.815984
                                 6.330074  0.619189  2.426807 12.930538 20.763777 26.531760 56.056277 -2.137650 -7.258002  5.867998
                                 0.560442 -0.098562 -0.000007  0.000000  0.000037 -0.000000 -0.000155  0.000001  0.000832 -0.000007
                                -0.015607  0.000122 -0.146752  0.001118  0.325929 -0.002348 -0.146084  0.000960 -0.582964  0.003416
                                -1.031106  0.001215  0.037556 -0.000292  0.284795 -0.002143 -0.442680  0.003252  0.366789 -0.002396
                                 0.660894 -0.002195  2.726058 -0.001329 -4.192604  0.001176 -0.576968 -0.000794  0.462665  0.000444
                                 0.043578 -0.000154  0.006388  0.000063 -0.002767 -0.000018 -0.000102 -0.000001  0.000736  0.000010
                                -0.002235 -0.000029  0.235765  0.003329  1.063834  0.014836  1.102044  0.015176 -1.764119 -0.020546
                                -0.293237 -0.004067 -0.980203 -0.013523  1.864387  0.017339 -1.539610 -0.010602 -0.351830  0.006957
                                 0.143882 -0.003515  0.007841  0.001134 -0.002401  0.000108  0.000048  0.010302 -0.000420 -0.000163
                                -0.030078  0.001198  0.000528  0.094598 -0.003569 -0.001302 -0.338639  0.010518  0.004462  0.394481
                                -0.009110 -0.003957 -0.104135  0.005362  0.002303 -0.432983 -0.002541 -0.001132  0.124374  0.000807
                                 0.000351  0.000012 -0.000234 -0.000138 -0.000014  0.000068  0.000181 -0.000002  0.000013 -0.006615
                                -0.000014  0.001540  0.031228 -0.415580  6.777425 -1.058100 -0.012427  0.426037 -2.051253  0.097297
                                -0.000186 -0.248519  0.000149

   5.1   +     4.9700   -1.2156 -0.000000  0.000000 -0.000000  0.000006  0.000028  0.000087  0.000184  0.000409 -0.000164  0.000589
                                -0.006274 -0.029412 -0.056433  0.118687  0.316537 -0.079533 -0.181662 -0.100353 -0.051243 -0.000011
                                -0.000050 -0.000148 -0.000422  0.009821  0.050374 -0.367071  0.129758  0.145346  0.070222  0.001995
                                -0.000695  0.000149  0.000000 -0.000000  0.000000 -0.000001  0.000002 -0.000003  0.000006 -0.000016
                                 0.000066 -0.000606 -0.006659 -0.009343 -0.065662 -0.081857 -0.249632 -0.100051  0.076770 -0.076057
                                 0.024262  0.002452  0.009607  0.051018  0.081695  0.104126  0.225471 -0.007870 -0.029270  0.019470
                                 0.002112 -0.000375 -0.000000 -0.000011  0.000000  0.000060 -0.000000 -0.000250  0.000002  0.001338
                                -0.000041 -0.024909 -0.000390 -0.229748  0.000822  0.488617 -0.000377 -0.200458 -0.001483 -0.684675
                                -0.004281 -0.269169  0.000099  0.059670  0.000751  0.441698 -0.001138 -0.673836  0.001025  0.483938
                                 0.001594  0.486879  0.014473  0.267205 -0.025763 -0.224148 -0.002904  0.151738  0.001287 -0.085454
                                -0.000968  0.030008  0.000282 -0.012507 -0.000072  0.003531 -0.000001  0.000076  0.000004 -0.000549
                                -0.000014  0.001557  0.001293 -0.181838  0.005887 -0.808413  0.005996 -0.828269 -0.010727  1.136642
                                -0.001636  0.220286 -0.005442  0.733675  0.011614 -0.961788 -0.010479  0.597880 -0.001432 -0.381709
                                 0.000142  0.193092 -0.000100 -0.062434 -0.000036 -0.000048  0.020306  0.000142  0.000185 -0.077592
                                -0.000436 -0.000559  0.235404  0.001203  0.001528 -0.638003 -0.004349 -0.004831  2.006749  0.004968
                                 0.004290 -1.775659 -0.002679 -0.002543  1.057194 -0.001561  0.001206 -0.484984  0.000315 -0.000382
                                 0.155437  0.000397 -0.000024 -0.000006 -0.001292 -0.000048  0.000005  0.012111 -0.000028 -0.000074
                                 0.000002 -0.000077  0.000233 -0.002039  0.043833  0.003802  0.001282  0.001211 -0.013726  0.000016
                                 0.043593 -0.001041 -0.044353

   6.1   +     5.0500   -2.1902  0.000000 -0.000000  0.000000 -0.000000 -0.000002 -0.000006 -0.000013 -0.000028  0.000011 -0.000042
                                 0.000518  0.003526  0.008257 -0.023940 -0.096644  0.042645 -0.116709 -0.121470 -0.159844  0.000001
                                 0.000003  0.000010  0.000029 -0.000866 -0.006588  0.100076 -0.043191  0.273279  0.121762  0.001008
                                -0.000353  0.000076  0.000000 -0.000000  0.000000 -0.000000  0.000000 -0.000000  0.000001 -0.000002
                                 0.000006 -0.000059 -0.000644 -0.000895 -0.006137 -0.006970  0.007602  0.036779 -0.065040  0.074791
                                 0.023434  0.000238  0.000926  0.004807  0.007096  0.003584 -0.021690 -0.001584 -0.040037 -0.012993
                                 0.000678 -0.000133 -0.000000  0.000002  0.000001 -0.000011 -0.000006  0.000046  0.000033 -0.000247
                                -0.000606  0.004591 -0.005562  0.042029  0.011614 -0.087621 -0.004604  0.035134 -0.014291  0.141581
                                 0.002915  0.046744  0.001451 -0.010985  0.010651 -0.080534 -0.016115  0.121889  0.010792 -0.092880
                                 0.007930 -0.083537 -0.028063 -0.057172  0.038808  0.054547  0.018108 -0.034820 -0.018313  0.019103
                                -0.006727 -0.006454  0.000935  0.002606 -0.000177 -0.000733  0.000002 -0.000104 -0.000014  0.000754
                                 0.000049 -0.002352 -0.004129  0.237878 -0.018970  1.070699 -0.019219  1.092034  0.031478 -1.568591
                                 0.005362 -0.296606  0.017632 -0.980559 -0.033727  1.337677  0.021422 -0.816193  0.002910  0.540501
                                -0.003197 -0.272750 -0.001924  0.087829 -0.000235  0.000015  0.015488  0.000856 -0.000059 -0.057301
                                -0.002677  0.000179  0.177565  0.006954 -0.000472 -0.469024 -0.022617  0.001523  1.501190  0.017805
                                -0.001350 -1.327599 -0.014129  0.000797  0.784495  0.013176 -0.000377 -0.368362 -0.004632  0.000120
                                 0.116789  0.000480  0.000031  0.000005 -0.002345  0.000065  0.000004  0.011307  0.000008  0.000069
                                -0.000008 -0.000200 -0.003190  0.012159 -0.075901  0.073412  0.004147 -0.012565  0.020918  0.001505
                                 0.000084  0.004104 -0.005432

   7.1   0    -0.2607   -5.4278  0.000000 -0.000000  0.000001 -0.000018 -0.000080 -0.000248 -0.000525 -0.001176  0.000466 -0.000689
                                -0.008177 -0.171449  0.036186  0.054282 -0.146377 -0.171886 -0.310328 -0.437728 -0.470375  0.000032
                                 0.000143  0.000424  0.001212  0.020160  0.224841 -0.020148 -0.005105  0.385829  0.491352  0.007649
                                -0.004648  0.001747  0.000000 -0.000000  0.000000 -0.000000  0.000000 -0.000000  0.000000 -0.000001
                                 0.000005 -0.000045 -0.000457 -0.000283  0.012814 -0.015204  0.016723  0.035399 -0.017103 -0.051960
                                -0.091305  0.000177  0.000587 -0.007126 -0.006975  0.003082  0.033483  0.025049  0.088858 -0.116146
                                -0.006572  0.001445 -0.000000 -0.000000  0.000000  0.000000 -0.000002 -0.000000  0.000008  0.000000
                                -0.000157 -0.000002 -0.001502 -0.000022  0.004260  0.000066 -0.002267 -0.000038 -0.001773 -0.000044
                                 0.006259  0.000220  0.000378  0.000006  0.002979  0.000044 -0.005161 -0.000077  0.000391  0.000011
                                 0.011691  0.000219 -0.015566  0.000049 -0.018560  0.000035 -0.040143 -0.000001  0.015300  0.000008
                                -0.022270 -0.000003  0.004669  0.000001 -0.001155 -0.000000  0.000000  0.000000 -0.000001 -0.000000
                                 0.000013  0.000000  0.000425  0.000002  0.001159  0.000005  0.001559  0.000009  0.002985  0.000002
                                -0.000055 -0.000002 -0.000545 -0.000007 -0.006122  0.000012 -0.009062  0.000015 -0.013803  0.000002
                                 0.002637  0.000003 -0.004023 -0.000001 -0.000003  0.000005  0.000001 -0.000029 -0.000008  0.000006
                                 0.000020  0.000030 -0.000003 -0.000044 -0.000351 -0.000009 -0.000463 -0.000591 -0.000007 -0.002275
                                -0.000081  0.000005 -0.001804 -0.000060  0.000006 -0.002416  0.000017  0.000001 -0.001647 -0.000009
                                 0.000002 -0.000002  0.000025  0.000013 -0.000005  0.000074  0.000080  0.000002 -0.000004 -0.000230
                                 0.003994  0.043964  0.188183  0.457395  0.529961  0.162364  0.003539  0.025087  0.018923 -0.001004
                                 0.000001  0.002430  0.000017

   8.1   0    -0.0144   -1.9661 -0.000000  0.000000 -0.000000  0.000004  0.000020  0.000061  0.000129  0.000288 -0.000115  0.000270
                                -0.000654  0.015991 -0.019961  0.022702  0.114269 -0.022007 -0.955428 -1.368928 -5.136253 -0.000008
                                -0.000035 -0.000104 -0.000297 -0.000030 -0.017935 -0.098892  0.171426  2.125261  2.903450  0.297324
                                 0.300670  0.085697 -0.000000  0.000000 -0.000000  0.000001 -0.000001  0.000001 -0.000002  0.000006
                                -0.000024  0.000219  0.002351  0.002866  0.003187  0.037372  0.040136 -0.000644 -0.092627  0.262960
                                 0.148298 -0.000879 -0.003300 -0.005699 -0.013166 -0.027566 -0.090125  0.339723 -0.899043 -0.867325
                                 0.251207  0.117078  0.000000  0.000000 -0.000000 -0.000000  0.000001  0.000000 -0.000004 -0.000000
                                 0.000074  0.000001  0.000712  0.000005 -0.002152 -0.000015  0.001486  0.000009  0.000655  0.000009
                                -0.006973 -0.000060 -0.000179 -0.000001 -0.001412 -0.000010  0.002511  0.000018 -0.000493 -0.000003
                                -0.006689 -0.000052 -0.000892 -0.000021  0.071003 -0.000013  0.193004  0.000002 -0.407735  0.000015
                                -0.189320  0.000029  0.237881  0.000018  0.040441  0.000007 -0.000000 -0.000000  0.000000  0.000000
                                -0.000009 -0.000000 -0.000229 -0.000002 -0.000540 -0.000004 -0.000836 -0.000010 -0.001765 -0.000008
                                -0.000024  0.000002  0.000153  0.000006  0.001516 -0.000008  0.017039 -0.000014  0.067924  0.000011
                                -0.125879  0.000008  0.066853  0.000030  0.000005  0.000000 -0.000000 -0.000012  0.000004 -0.000001
                                 0.000045  0.000001 -0.000000 -0.000091  0.000100  0.000001  0.000236  0.000145  0.000001  0.000180
                                 0.000019 -0.000003  0.002656 -0.000003 -0.000001  0.009753 -0.000017 -0.000004  0.001098 -0.000016
                                 0.000016  0.000002 -0.000023 -0.000017  0.000003 -0.000065 -0.000046 -0.000002 -0.000001  0.000119
                                -0.000731 -0.007908 -0.037580 -0.094857 -0.483508  3.028990  0.001442  0.013189  0.240797  0.000440
                                -0.000000 -0.004400 -0.000003

                                   1 2px     1 2px     1 2px     1 2px     1 2px     1 2px     1 2px     1 2px     1 2px     1 2px
                                   1 2px     1 2px     1 2px     1 2px     1 2px     1 2px     1 2px     1 2px     1 2px     1 2px
                                   1 2px     1 2px     1 2px     1 2px     1 2px     1 2px     1 2px     1 2px     1 2px     1 2px
                                   1 3d1+    1 3d1+    1 3d1+    1 3d1+    1 3d1+    1 3d1+    1 3d1+    1 3d1+    1 3d1+    1 3d1+
                                   1 3d1+    1 3d1+    1 3d1+    1 3d1+    1 3d1+    1 3d1+    1 3d1+    1 3d1+    1 3d1+    1 3d1+
                                   1 3d1+    1 3d1+    1 4f1+    1 4f3+    1 4f1+    1 4f3+    1 4f1+    1 4f3+    1 4f1+    1 4f3+
                                   1 4f1+    1 4f3+    1 4f1+    1 4f3+    1 4f1+    1 4f3+    1 4f1+    1 4f3+    1 4f1+    1 4f3+
                                   1 4f1+    1 4f3+    1 4f1+    1 4f3+    1 4f1+    1 4f3+    1 4f1+    1 4f3+    1 4f1+    1 4f3+
                                   1 5g1+    1 5g3+    1 5g1+    1 5g3+    1 5g1+    1 5g3+    1 5g1+    1 5g3+    1 5g1+    1 5g3+
                                   1 5g1+    1 5g3+    1 5g1+    1 5g3+    1 5g1+    1 5g3+    1 5g1+    1 5g3+    1 6h1+    1 6h3+
                                   1 6h5+    1 6h1+    1 6h3+    1 6h5+    1 6h1+    1 6h3+    1 6h5+    2 2px     2 2px     2 2px
                                   2 3d1+    2 3d1+

   1.2   2     3.5037   -5.4790 -0.000000  0.000001 -0.000003  0.000008 -0.000011  0.000015 -0.000032  0.000092 -0.000376  0.003454
                                 0.037791  0.052540  0.355488  0.446636  1.438702  0.833913 -0.591678  0.359887 -0.398614 -0.013950
                                -0.054375 -0.278781 -0.436931 -0.565535 -1.488029  0.115177  0.440674 -0.309854 -0.029911  0.005219
                                -0.000007  0.000037 -0.000157  0.000838 -0.015562 -0.142778  0.301024 -0.121985 -0.402442 -0.260226
                                 0.037225  0.273669 -0.415695  0.283765  0.337784  0.293632 -0.349672  0.194314 -0.126900  0.045657
                                -0.019039  0.005362  0.000040  0.000122 -0.000310 -0.000942  0.003040  0.009104  0.014584  0.037581
                                -0.072556 -0.239958 -0.023501 -0.083695  0.488071  1.559157  0.066672  0.206661  0.155603  0.484269
                                -0.559705 -1.795228  0.312624  1.207511 -0.242545 -0.799883  0.108887  0.399143 -0.034771 -0.127256
                                 0.000099  0.000308 -0.000019 -0.000535  0.000824  0.002932 -0.000560 -0.004540  0.009082  0.027025
                                 0.021032 -0.004712 -0.055724  0.000993  0.015293 -0.002057 -0.012086  0.001145 -0.000199  0.000123
                                 0.000139 -0.000382  0.000033  0.000193 -0.000939 -0.002491  0.000163 -0.003433  0.021860  0.100905
                                 0.028956 -0.078708

   2.2   +     3.2422   -5.4549 -0.000001  0.000002 -0.000009  0.000028 -0.000037  0.000048 -0.000105  0.000300 -0.001228  0.011290
                                 0.123607  0.172171  1.178853  1.477032  4.539836  2.166803 -1.494954  1.327106 -1.166395 -0.045608
                                -0.177940 -0.921703 -1.455346 -1.842132 -4.434362  0.411023  1.486643 -1.083611 -0.107995  0.018957
                                 0.000028 -0.000145  0.000607 -0.003239  0.060122  0.551841 -1.164807  0.472979  1.563525  0.996510
                                -0.143830 -1.058047  1.608007 -1.099615 -1.315376 -1.111003  1.263934 -0.707378  0.455657 -0.163781
                                 0.068357 -0.019260 -0.000122  0.000039  0.000941 -0.000296 -0.008960  0.002761 -0.030380  0.006667
                                 0.263602 -0.091363  0.109312 -0.039245 -1.573963  0.527055 -0.211281  0.068165 -0.501359  0.162593
                                 1.782228 -0.600576 -0.992321  0.402301  0.774355 -0.266364 -0.345885  0.132949  0.110420 -0.042401
                                -0.000313  0.000097  0.000192 -0.000178 -0.002792  0.000942  0.002654 -0.001597 -0.031383  0.008962
                                -0.067896 -0.001403  0.173855  0.000215 -0.044799 -0.000618  0.038712  0.000357  0.000053  0.000025
                                 0.000067  0.000856 -0.000049  0.000183  0.003656 -0.001703  0.000670  0.010196 -0.063374 -0.331902
                                -0.104574  0.251821

   3.2   +     5.0403   -2.2296  0.000002 -0.000006  0.000025 -0.000076  0.000102 -0.000133  0.000289 -0.000827  0.003393 -0.031235
                                -0.342978 -0.481003 -3.381480 -4.193909-12.405306 -4.327404  2.564615 -1.834516  1.803087  0.126336
                                 0.494721  2.627096  4.193882  5.272367 10.923041 -0.573297 -2.126156  1.522918  0.150286 -0.026385
                                 0.000003 -0.000013  0.000055 -0.000293  0.005471  0.050659 -0.109183  0.047082  0.181154  0.047678
                                -0.013122 -0.097683  0.149955 -0.120547 -0.129928  0.009772 -0.107674  0.100642 -0.051451  0.017116
                                -0.007012  0.001953 -0.000061 -0.000083  0.000443  0.000600 -0.001338 -0.001796  0.142320  0.193256
                                 0.639014  0.865587  0.655449  0.887287 -0.933812 -1.257867 -0.175864 -0.238366 -0.584734 -0.790136
                                 0.816162  1.072091 -0.548482 -0.655442  0.357370  0.432526 -0.170334 -0.218248  0.054044  0.070303
                                -0.011138  0.009354  0.042849 -0.034572 -0.129852  0.107200  0.355665 -0.282997 -1.135714  0.909498
                                 1.049513 -0.805824 -0.639039  0.475658  0.288961 -0.224830 -0.082683  0.071192 -0.000431  0.000350
                                 0.000041  0.000566 -0.000965  0.000142 -0.009701  0.006132  0.000171 -0.084540  0.088004 -0.008286
                                 0.184720 -0.080686

   4.2   0     0.0021   -1.1919 -0.000000  0.000000 -0.000000  0.000000 -0.000001  0.000001 -0.000002  0.000005 -0.000020  0.000188
                                 0.002054  0.002960  0.025461  0.017349  0.072105  0.058671 -0.055853  0.118068 -0.449068 -0.000758
                                -0.002967 -0.018927 -0.026391 -0.025819 -0.054343  1.488765  1.141426 -1.546638 -1.098391  1.222030
                                -0.000000  0.000001 -0.000005  0.000027 -0.000497 -0.004513  0.009350 -0.003636 -0.010565 -0.009187
                                 0.001186  0.008606 -0.012969  0.007761  0.008848  0.027986 -0.057938  0.049842 -0.067016  0.238800
                                -0.134606  0.537613 -0.000000 -0.000000  0.000001  0.000000 -0.000011 -0.000001  0.000014  0.000072
                                 0.000449  0.000357  0.000039  0.000515 -0.002554  0.000886 -0.000298 -0.000091 -0.000610 -0.000359
                                 0.004256  0.000046 -0.014630  0.000258  0.007675 -0.000148 -0.010186  0.000122  0.143896 -0.000035
                                 0.000025  0.000000 -0.000098  0.000000  0.000267  0.000001 -0.000658  0.000006  0.001603  0.000010
                                -0.003768  0.000002  0.008747  0.000003 -0.025030 -0.000003  0.037876  0.000006 -0.000000  0.000000
                                -0.000000  0.000002 -0.000009  0.000006  0.000056 -0.000026  0.000062  0.001217  0.007969  0.077821
                                 0.000239  0.001384

   5.2   0     0.0101   -1.1936 -0.000000  0.000000 -0.000001  0.000002 -0.000003  0.000003 -0.000007  0.000020 -0.000083  0.000764
                                 0.008294  0.011240  0.067307  0.096999  0.232090  0.149688 -0.258301  0.441948 -1.276457 -0.003075
                                -0.011858 -0.054431 -0.085362 -0.103030 -0.256987  4.771463  3.566823 -5.232621 -4.356764  2.431047
                                -0.000000  0.000000 -0.000001  0.000006 -0.000111 -0.000999  0.001925 -0.000651 -0.002446 -0.002783
                                 0.000265  0.001889 -0.002763  0.001883  0.001343  0.003706 -0.003285  0.087694 -0.123852 -0.047226
                                -0.306360 -0.075433  0.000000  0.000000 -0.000001 -0.000000  0.000012  0.000001  0.000025 -0.000103
                                -0.000317 -0.000512  0.000192 -0.000738  0.003080 -0.001269  0.000287  0.000130  0.000503  0.000513
                                -0.004538 -0.000067  0.016034 -0.000379 -0.000560  0.000216 -0.007831 -0.000194 -0.172485  0.000070
                                -0.000033 -0.000000  0.000129 -0.000001 -0.000351 -0.000001  0.000867 -0.000008 -0.002118 -0.000015
                                 0.005005 -0.000003 -0.011773 -0.000005  0.033789  0.000004 -0.051715 -0.000008  0.000001 -0.000000
                                 0.000000 -0.000002  0.000013 -0.000009 -0.000081  0.000037 -0.000089 -0.001692 -0.011269 -0.108783
                                -0.000338 -0.002100

                                   1 2py     1 2py     1 2py     1 2py     1 2py     1 2py     1 2py     1 2py     1 2py     1 2py
                                   1 2py     1 2py     1 2py     1 2py     1 2py     1 2py     1 2py     1 2py     1 2py     1 2py
                                   1 2py     1 2py     1 2py     1 2py     1 2py     1 2py     1 2py     1 2py     1 2py     1 2py
                                   1 3d1-    1 3d1-    1 3d1-    1 3d1-    1 3d1-    1 3d1-    1 3d1-    1 3d1-    1 3d1-    1 3d1-
                                   1 3d1-    1 3d1-    1 3d1-    1 3d1-    1 3d1-    1 3d1-    1 3d1-    1 3d1-    1 3d1-    1 3d1-
                                   1 3d1-    1 3d1-    1 4f1-    1 4f3-    1 4f1-    1 4f3-    1 4f1-    1 4f3-    1 4f1-    1 4f3-
                                   1 4f1-    1 4f3-    1 4f1-    1 4f3-    1 4f1-    1 4f3-    1 4f1-    1 4f3-    1 4f1-    1 4f3-
                                   1 4f1-    1 4f3-    1 4f1-    1 4f3-    1 4f1-    1 4f3-    1 4f1-    1 4f3-    1 4f1-    1 4f3-
                                   1 5g1-    1 5g3-    1 5g1-    1 5g3-    1 5g1-    1 5g3-    1 5g1-    1 5g3-    1 5g1-    1 5g3-
                                   1 5g1-    1 5g3-    1 5g1-    1 5g3-    1 5g1-    1 5g3-    1 5g1-    1 5g3-    1 6h1-    1 6h3-
                                   1 6h5-    1 6h1-    1 6h3-    1 6h5-    1 6h1-    1 6h3-    1 6h5-    2 2py     2 2py     2 2py
                                   2 3d1-    2 3d1-

   1.3   2     3.5071   -5.4621 -0.000000  0.000001 -0.000003  0.000009 -0.000012  0.000015 -0.000033  0.000095 -0.000390  0.003587
                                 0.039250  0.054563  0.368958  0.463842  1.496620  0.873074 -0.619701  0.369973 -0.414754 -0.014489
                                -0.056474 -0.289389 -0.453484 -0.587536 -1.551666  0.118632  0.455278 -0.319499 -0.030791  0.005371
                                -0.000008  0.000043 -0.000179  0.000956 -0.017751 -0.162861  0.343382 -0.139155 -0.459086 -0.295862
                                 0.042461  0.312167 -0.474183  0.323695  0.385118  0.333452 -0.397476  0.220613 -0.144219  0.051901
                                -0.021646  0.006097  0.000046 -0.000120 -0.000352  0.000927  0.003446 -0.008949  0.016105 -0.036339
                                -0.083830  0.238258 -0.028035  0.084153  0.557028 -1.538452  0.075882 -0.203813  0.177534 -0.478068
                                -0.638178  1.769199  0.356287 -1.189501 -0.276538  0.787911  0.124110 -0.393176 -0.039633  0.125358
                                 0.000112 -0.000305 -0.000028  0.000543  0.000943 -0.002920 -0.000677  0.004593  0.010439 -0.026926
                                 0.023905  0.005223 -0.063435 -0.001412  0.017338  0.002240 -0.013779 -0.001194 -0.000145 -0.000165
                                 0.000157 -0.000325 -0.000063  0.000219 -0.001010  0.002557 -0.000034 -0.003918  0.024856  0.115310
                                 0.033273 -0.089840

   2.3   +     3.2400   -5.4641  0.000001 -0.000002  0.000009 -0.000028  0.000037 -0.000049  0.000105 -0.000301  0.001233 -0.011337
                                -0.124123 -0.172863 -1.183396 -1.483162 -4.561567 -2.182973  1.507151 -1.332376  1.174195  0.045800
                                 0.178671  0.925335  1.460961  1.850307  4.458966 -0.412841 -1.494123  1.088641  0.108459 -0.019037
                                -0.000027  0.000142 -0.000596  0.003182 -0.059060 -0.542092  1.144203 -0.464587 -1.535730 -0.979076
                                 0.141290  1.039348 -1.579572  1.080093  1.291961  1.091900 -1.242526  0.695516 -0.448014  0.161032
                                -0.067209  0.018936  0.000121  0.000044 -0.000927 -0.000336  0.008837  0.003147  0.030363  0.008046
                                -0.258299 -0.102444 -0.106449 -0.043287  1.548191  0.596174  0.207807  0.077298  0.492867  0.184032
                                -1.754657 -0.679697  0.977465  0.455390 -0.762522 -0.301517  0.340666  0.150490 -0.108752 -0.047994
                                 0.000302  0.000111 -0.000163 -0.000199  0.002678  0.001072 -0.002420 -0.001785  0.030347  0.010172
                                 0.067827 -0.001597 -0.171856  0.000237  0.044536 -0.000695 -0.038204  0.000403 -0.000082  0.000042
                                -0.000048 -0.000899 -0.000014 -0.000160 -0.003614 -0.001656 -0.000562 -0.009974  0.062358  0.326266
                                 0.102581 -0.247605

   3.3   +     5.0432   -2.0660  0.000002 -0.000006  0.000026 -0.000077  0.000104 -0.000136  0.000294 -0.000842  0.003453 -0.031785
                                -0.349020 -0.489466 -3.440971 -4.266352-12.609090 -4.398237  2.612123 -1.881218  1.853195  0.128562
                                 0.503433  2.673335  4.267094  5.360036 11.099481 -0.588883 -2.184699  1.564569  0.154353 -0.027097
                                 0.000003 -0.000013  0.000057 -0.000303  0.005657  0.052415 -0.113170  0.048957  0.188620  0.047933
                                -0.013569 -0.101116  0.155355 -0.125511 -0.134761  0.015291 -0.127973  0.118521 -0.060977  0.020336
                                -0.008336  0.002324 -0.000065  0.000076  0.000473 -0.000552 -0.001416  0.001653  0.152255 -0.177934
                                 0.683114 -0.797068  0.701021 -0.817395 -0.996605  1.155691 -0.187913  0.219479 -0.624885  0.727672
                                 0.871652 -0.984546 -0.591361  0.601863  0.385227 -0.397182 -0.183068  0.200424  0.058024 -0.064565
                                -0.012833 -0.008044  0.049309  0.029686 -0.149544 -0.092129  0.409286  0.242769 -1.306463 -0.781443
                                 1.206002  0.692509 -0.735976 -0.408710  0.333410  0.193148 -0.095519 -0.061151 -0.000447 -0.000328
                                 0.000048  0.000775  0.000860  0.000107 -0.010981 -0.005395  0.000263 -0.095561  0.101013 -0.008538
                                 0.207551 -0.093582

   4.3   0     0.0021   -1.1916 -0.000000  0.000000 -0.000000  0.000000 -0.000001  0.000001 -0.000002  0.000005 -0.000021  0.000188
                                 0.002056  0.002963  0.025494  0.017346  0.072181  0.058806 -0.055871  0.118218 -0.449382 -0.000759
                                -0.002970 -0.018951 -0.026405 -0.025879 -0.054353  1.489943  1.142321 -1.548035 -1.099650  1.222782
                                -0.000000  0.000001 -0.000005  0.000027 -0.000497 -0.004515  0.009354 -0.003638 -0.010569 -0.009191
                                 0.001186  0.008609 -0.012974  0.007765  0.008851  0.028003 -0.057967  0.049917 -0.067159  0.238822
                                -0.134889  0.537843 -0.000000  0.000000  0.000001 -0.000000 -0.000010 -0.000000  0.000025 -0.000096
                                 0.000466 -0.000403  0.000059 -0.000568 -0.002547 -0.000931 -0.000293  0.000083 -0.000607  0.000359
                                 0.004255 -0.000036 -0.014625 -0.000264  0.007678  0.000184 -0.010221 -0.000131  0.143859  0.000112
                                 0.000025 -0.000000 -0.000098 -0.000001  0.000266 -0.000001 -0.000658 -0.000006  0.001602 -0.000009
                                -0.003765 -0.000003  0.008743  0.000005 -0.025019  0.000001  0.037857  0.000023 -0.000000 -0.000000
                                -0.000000  0.000002  0.000011  0.000008  0.000057  0.000029  0.000063  0.001216  0.007966  0.077778
                                 0.000239  0.001380

   5.3   0     0.0101   -1.1939 -0.000000  0.000000 -0.000001  0.000002 -0.000003  0.000003 -0.000007  0.000020 -0.000083  0.000764
                                 0.008295  0.011241  0.067292  0.097054  0.232091  0.149562 -0.258408  0.441949 -1.276656 -0.003076
                                -0.011860 -0.054422 -0.085384 -0.102996 -0.257101  4.772195  3.567345 -5.233280 -4.357076  2.430893
                                -0.000000  0.000000 -0.000001  0.000006 -0.000110 -0.000991  0.001910 -0.000645 -0.002428 -0.002767
                                 0.000263  0.001875 -0.002741  0.001869  0.001329  0.003652 -0.003182  0.087506 -0.123544 -0.047510
                                -0.305697 -0.076366  0.000000 -0.000000 -0.000001  0.000000  0.000011  0.000000  0.000010  0.000138
                                -0.000341  0.000577  0.000164  0.000815  0.003072  0.001333  0.000280 -0.000119  0.000499 -0.000514
                                -0.004539  0.000054  0.016036  0.000383 -0.000571 -0.000253 -0.007775  0.000181 -0.172526 -0.000126
                                -0.000033  0.000000  0.000129  0.000001 -0.000351  0.000001  0.000867  0.000009 -0.002118  0.000014
                                 0.005003  0.000004 -0.011773 -0.000005  0.033789 -0.000002 -0.051713 -0.000029  0.000000  0.000000
                                 0.000000 -0.000003 -0.000015 -0.000011 -0.000082 -0.000042 -0.000091 -0.001692 -0.011272 -0.108778
                                -0.000338 -0.002095

                                   1 3d2-    1 3d2-    1 3d2-    1 3d2-    1 3d2-    1 3d2-    1 3d2-    1 3d2-    1 3d2-    1 3d2-
                                   1 3d2-    1 3d2-    1 3d2-    1 3d2-    1 3d2-    1 3d2-    1 3d2-    1 3d2-    1 3d2-    1 3d2-
                                   1 3d2-    1 3d2-    1 4f2-    1 4f2-    1 4f2-    1 4f2-    1 4f2-    1 4f2-    1 4f2-    1 4f2-
                                   1 4f2-    1 4f2-    1 4f2-    1 4f2-    1 4f2-    1 4f2-    1 5g2-    1 5g4-    1 5g2-    1 5g4-
                                   1 5g2-    1 5g4-    1 5g2-    1 5g4-    1 5g2-    1 5g4-    1 5g2-    1 5g4-    1 5g2-    1 5g4-
                                   1 5g2-    1 5g4-    1 5g2-    1 5g4-    1 6h4-    1 6h2-    1 6h4-    1 6h2-    1 6h4-    1 6h2-
                                   2 3d2-    2 3d2-

   1.4   +     5.1162   -3.6770  0.000004 -0.000022  0.000091 -0.000488  0.009083  0.083446 -0.175818  0.071780  0.265910  0.089659
                                -0.021746 -0.160172  0.243468 -0.182857 -0.164542 -0.099802  0.089593 -0.060023  0.033458 -0.011516
                                 0.004720 -0.001330 -0.000125  0.000901 -0.002773  0.286758  1.290330  1.327139 -1.807761 -0.354300
                                -1.179690  1.529026 -0.934916  0.614984 -0.310622  0.100139  0.007819  0.000005 -0.028096 -0.000020
                                 0.088870  0.000061 -0.229315 -0.000159  0.745366  0.000519 -0.658411 -0.000460  0.386546  0.000271
                                -0.184925 -0.000128  0.058130  0.000041  0.000044  0.000656  0.000111 -0.001556  0.000005  0.005559
                                -0.012484  0.008385

   2.4   0     0.0118   -0.8228 -0.000001  0.000004 -0.000018  0.000096 -0.001769 -0.016040  0.032956 -0.012625 -0.037968 -0.034721
                                 0.004219  0.030563 -0.045895  0.028036  0.030365  0.095942 -0.189368  0.358269 -0.494777  0.681911
                                -1.165247  1.635065 -0.000000  0.000001 -0.000008  0.000094  0.000678  0.000516 -0.001198 -0.000289
                                -0.000768  0.003214 -0.009784  0.024645 -0.048834  0.088264  0.000005  0.000000 -0.000020 -0.000000
                                 0.000055  0.000000 -0.000136 -0.000000  0.000318  0.000000 -0.000730 -0.000001  0.001586  0.000002
                                -0.003673 -0.000003  0.007562  0.000007  0.000000 -0.000000  0.000000  0.000000  0.000000 -0.000001
                                -0.000018  0.000630

   3.4   0     0.0329   -1.1867 -0.000002  0.000009 -0.000038  0.000201 -0.003703 -0.033579  0.068979 -0.026430 -0.079786 -0.073191
                                 0.008832  0.063982 -0.096071  0.058868  0.063749  0.201858 -0.396997  0.768678 -1.075940  1.581679
                                -2.890234  1.447756  0.000000 -0.000003  0.000024 -0.000298 -0.002130 -0.001625  0.003761  0.000905
                                 0.002407 -0.010210  0.031947 -0.081632  0.165663 -0.374997 -0.000026 -0.000000  0.000101  0.000000
                                -0.000278 -0.000000  0.000686  0.000001 -0.001609 -0.000001  0.003702  0.000003 -0.008021 -0.000007
                                 0.018541  0.000011 -0.039925 -0.000030 -0.000000  0.000000 -0.000000 -0.000001 -0.000000  0.000005
                                 0.000133 -0.003216

 HOMO      1.4     5.116241 =     139.2200eV
 LUMO      7.1    -0.260696 =      -7.0939eV
 LUMO-HOMO        -5.376937 =    -146.3139eV

 No convergence



 **********************************************************************************************************************************
 DATASETS  * FILE   NREC   LENGTH (MB)   RECORD NAMES
[...]
                                 0.000050  0.000075 -0.000933  0.000128  0.000018 -0.000651  0.000161  0.000167  0.001574  0.002701
                                -0.000116 -0.000593

   3.2   +    -0.3299  -13.4401  0.000000 -0.000000  0.000000 -0.000000  0.000000 -0.000000  0.000000 -0.000001  0.000005 -0.000050
                                -0.000597 -0.000962  0.000859  0.001423 -0.012089 -0.008681 -0.007538 -0.013816  0.005432  0.000209
                                 0.000946  0.000791 -0.008450  0.018945  0.031180  0.000556  0.000197  0.002048 -0.000103 -0.000011
                                -0.000000  0.000001 -0.000002  0.000011 -0.000209 -0.001900  0.003849 -0.001380 -0.008214 -0.013395
                                 0.000500  0.003679 -0.005549  0.004119  0.004459  0.004188 -0.005019  0.005433 -0.002994 -0.000849
                                 0.000411 -0.000116 -0.000094  0.000003  0.000753 -0.000027 -0.010569  0.000373 -0.205834  0.007223
                                -0.344100  0.011936 -0.386453  0.013116 -0.255144  0.008407 -0.080354  0.002889 -0.034764  0.001389
                                -0.027203  0.000881 -0.091762  0.003465  0.034392 -0.001025 -0.030347  0.001338  0.008760 -0.000277
                                -0.000121  0.000002 -0.000183 -0.000004 -0.000855  0.000002 -0.001349 -0.000011 -0.002584  0.000071
                                -0.005718 -0.000057  0.002366  0.000326 -0.002173  0.000022  0.002385  0.000014  0.000376  0.000106
                                -0.000042  0.001040  0.000293 -0.000142  0.000356  0.000285 -0.000209 -0.001010 -0.014858 -0.028000
                                 0.002108  0.010760

   4.2   0    -0.0336   -3.6566 -0.000000  0.000000 -0.000000  0.000000 -0.000000  0.000000 -0.000001  0.000003 -0.000011  0.000102
                                 0.001125  0.001070 -0.022430  0.011047 -0.027026 -0.086822 -0.019004  0.022259  0.172030 -0.000415
                                -0.001562  0.010725  0.031735 -0.029578 -0.060800  0.123120  0.200951  0.160571  0.039472  0.002560
                                -0.000000  0.000000 -0.000001  0.000004 -0.000077 -0.000847  0.006109 -0.008731  0.008102  0.063616
                                 0.000190  0.001792 -0.005012  0.001224  0.037814  0.059968  0.051793  0.048758  0.182994  0.118613
                                 0.025619  0.004473 -0.000007 -0.000004  0.000053  0.000031 -0.000736 -0.000435 -0.013968 -0.008455
                                -0.022473 -0.014049 -0.024907 -0.015625 -0.016114 -0.010097 -0.005906 -0.003352 -0.003608 -0.001559
                                 0.006674 -0.000588  0.002739 -0.003978  0.009473  0.005286  0.069349 -0.001963  0.031752  0.001744
                                 0.000023 -0.000008 -0.000090  0.000007  0.000229 -0.000085 -0.000577  0.000015  0.001441 -0.000267
                                -0.001992  0.000721  0.010337 -0.001531 -0.012730  0.003467  0.030656 -0.003301  0.000030  0.000022
                                -0.000005  0.000002  0.000078  0.000027  0.000066  0.000067  0.000097  0.005975  0.058915  0.258279
                                -0.000537 -0.007121

   5.2   0     0.0044   -0.8999  0.000000 -0.000000  0.000000 -0.000001  0.000001 -0.000002  0.000004 -0.000010  0.000042 -0.000389
                                -0.004247 -0.005940 -0.043904 -0.046824 -0.136725 -0.104717  0.132386 -0.236442  0.764176  0.001570
                                 0.006106  0.033565  0.052918  0.051709  0.124961 -2.615259 -1.968340  2.875119  2.252122 -1.902008
                                 0.000000 -0.000001  0.000005 -0.000027  0.000495  0.004465 -0.008019  0.001323  0.013512  0.028276
                                -0.001180 -0.008471  0.012112 -0.007954  0.001381 -0.012589  0.074544 -0.095985  0.190985 -0.182458
                                 0.316148 -0.571834 -0.000001 -0.000000  0.000010  0.000002 -0.000145 -0.000025 -0.002846 -0.000481
                                -0.004789 -0.000794 -0.005190 -0.000880 -0.002489 -0.000582 -0.001067 -0.000193 -0.000417 -0.000096
                                 0.000462 -0.000022  0.007535 -0.000375 -0.008541  0.000432  0.041235 -0.000212 -0.040024 -0.000499
                                 0.000001 -0.000001 -0.000006 -0.000001  0.000009 -0.000008 -0.000036 -0.000009  0.000087 -0.000005
                                 0.000174  0.000072  0.001646 -0.000065 -0.000219  0.000249  0.002563  0.000478  0.000007  0.000002
                                -0.000001  0.000001  0.000009  0.000003  0.000034  0.000009  0.000012  0.001233  0.012617  0.053542
                                -0.000219 -0.001615

                                   1 2py     1 2py     1 2py     1 2py     1 2py     1 2py     1 2py     1 2py     1 2py     1 2py
                                   1 2py     1 2py     1 2py     1 2py     1 2py     1 2py     1 2py     1 2py     1 2py     1 2py
                                   1 2py     1 2py     1 2py     1 2py     1 2py     1 2py     1 2py     1 2py     1 2py     1 2py
                                   1 3d1-    1 3d1-    1 3d1-    1 3d1-    1 3d1-    1 3d1-    1 3d1-    1 3d1-    1 3d1-    1 3d1-
                                   1 3d1-    1 3d1-    1 3d1-    1 3d1-    1 3d1-    1 3d1-    1 3d1-    1 3d1-    1 3d1-    1 3d1-
                                   1 3d1-    1 3d1-    1 4f1-    1 4f3-    1 4f1-    1 4f3-    1 4f1-    1 4f3-    1 4f1-    1 4f3-
                                   1 4f1-    1 4f3-    1 4f1-    1 4f3-    1 4f1-    1 4f3-    1 4f1-    1 4f3-    1 4f1-    1 4f3-
                                   1 4f1-    1 4f3-    1 4f1-    1 4f3-    1 4f1-    1 4f3-    1 4f1-    1 4f3-    1 4f1-    1 4f3-
                                   1 5g1-    1 5g3-    1 5g1-    1 5g3-    1 5g1-    1 5g3-    1 5g1-    1 5g3-    1 5g1-    1 5g3-
                                   1 5g1-    1 5g3-    1 5g1-    1 5g3-    1 5g1-    1 5g3-    1 5g1-    1 5g3-    1 6h1-    1 6h3-
                                   1 6h5-    1 6h1-    1 6h3-    1 6h5-    1 6h1-    1 6h3-    1 6h5-    2 2py     2 2py     2 2py
                                   2 3d1-    2 3d1-

   1.3   2    -1.0698  -11.6238  0.000000 -0.000000  0.000000 -0.000001  0.000002 -0.000002  0.000005 -0.000014  0.000060 -0.000549
                                -0.005918 -0.004732  0.156159 -0.091666  0.160432  0.371224  0.112460  0.015090 -0.000777  0.002216
                                 0.008015 -0.080654 -0.182589  0.162619  0.365308  0.001277  0.004538 -0.002857 -0.000365  0.000079
                                 0.000000 -0.000000  0.000000 -0.000001  0.000020  0.000169  0.000172 -0.000883  0.001625  0.009451
                                -0.000048 -0.000301  0.000175 -0.000317  0.004328  0.003043 -0.000914  0.000377 -0.000276  0.000209
                                -0.000075  0.000019  0.000001 -0.000001 -0.000004  0.000007  0.000052 -0.000095  0.000859 -0.001799
                                 0.001128 -0.002928  0.000614 -0.003092  0.000927 -0.002200  0.000523 -0.000786  0.000598 -0.000533
                                 0.004423 -0.000702  0.000749 -0.001109 -0.000232  0.000288  0.000192 -0.000276 -0.000031  0.000101
                                -0.000013  0.000000 -0.000016 -0.000007 -0.000093  0.000024 -0.000206  0.000088 -0.000399  0.000027
                                 0.001550  0.000131 -0.000362 -0.000011  0.000197 -0.000063 -0.000134  0.000033 -0.000055 -0.000041
                                 0.000007 -0.000266 -0.000188 -0.000092 -0.000397 -0.000525 -0.000410  0.000272  0.001942  0.001377
                                -0.000435 -0.001055

   2.3   +    -0.3678  -13.6266 -0.000000  0.000000 -0.000000  0.000000 -0.000000  0.000000 -0.000000  0.000001 -0.000003  0.000026
                                 0.000319  0.000502 -0.004037 -0.002613 -0.003145 -0.005680  0.009212  0.017074  0.013347 -0.000108
                                -0.000525  0.001630  0.010709 -0.012495 -0.015603 -0.000265  0.000332  0.002916 -0.000393  0.000373
                                 0.000000 -0.000000  0.000000 -0.000001  0.000012  0.000115 -0.000366  0.000399  0.000009 -0.001969
                                -0.000030 -0.000220  0.000397 -0.000414 -0.001758 -0.001429  0.000719 -0.001251  0.000465 -0.000070
                                 0.000124 -0.000120  0.000002 -0.000095 -0.000018  0.000767  0.000257 -0.010753  0.005057 -0.209226
                                 0.008572 -0.348641  0.009817 -0.389448  0.006396 -0.250401  0.001956 -0.082461  0.000795 -0.037331
                                 0.000493 -0.016477  0.002705 -0.086264 -0.001437  0.036318  0.000674 -0.027621 -0.000268  0.009705
                                 0.000006 -0.000069  0.000015 -0.000126  0.000059 -0.000557  0.000068 -0.000948  0.000075 -0.001551
                                 0.000052 -0.001528  0.000298 -0.001299 -0.000084 -0.000321 -0.000095  0.000027  0.000048  0.000364
                                -0.000047  0.000097  0.000940 -0.000095  0.000044  0.000652 -0.000103  0.000113  0.000876  0.001852
                                -0.000074 -0.000400

   3.3   +    -0.3196  -13.3423 -0.000000  0.000000 -0.000000  0.000000 -0.000000  0.000000 -0.000001  0.000002 -0.000007  0.000067
                                 0.000781  0.001146 -0.004303 -0.000334  0.008289 -0.001269  0.008851  0.038191  0.016619 -0.000276
                                -0.001205  0.000776  0.014148 -0.024738 -0.042494 -0.000163  0.009871  0.003503  0.000162  0.000067
                                 0.000000 -0.000000  0.000002 -0.000009  0.000176  0.001598 -0.003188  0.001093  0.007683  0.013521
                                -0.000420 -0.003098  0.004656 -0.003869 -0.003862 -0.004407  0.015829 -0.013211  0.009793 -0.000884
                                 0.000404 -0.000140  0.000093  0.000003 -0.000748 -0.000022  0.010497  0.000312  0.204513  0.006017
                                 0.342164  0.009924  0.384683  0.010895  0.254911  0.006983  0.079682  0.002380  0.034142  0.001110
                                 0.028246  0.000579  0.095031  0.002427 -0.032962 -0.000834  0.029988  0.000747 -0.008655 -0.000250
                                 0.000116  0.000005  0.000155  0.000019  0.000773  0.000041  0.001261  0.000080  0.002613  0.000010
                                 0.005627  0.000156 -0.001386 -0.000285  0.002724 -0.000244 -0.002531  0.000012 -0.000349  0.000165
                                 0.000041 -0.000986  0.000425  0.000147 -0.000304  0.000432  0.000227  0.001274  0.016165  0.030431
                                -0.002206 -0.010927

   4.3   0    -0.0335   -3.7873 -0.000000  0.000000 -0.000000  0.000000 -0.000000  0.000000 -0.000001  0.000002 -0.000008  0.000076
                                 0.000835  0.000677 -0.024094  0.008861 -0.029844 -0.082384 -0.042995  0.083640  0.073124 -0.000308
                                -0.001145  0.012254  0.032947 -0.026251 -0.056963  0.143884  0.291233  0.081042  0.029281  0.004035
                                -0.000000  0.000001 -0.000003  0.000015 -0.000276 -0.002654  0.010110 -0.010707  0.005068  0.066132
                                 0.000664  0.005241 -0.010342  0.004152  0.043221  0.054112  0.104942 -0.001602  0.224418  0.111067
                                 0.032356  0.002306 -0.000011  0.000002  0.000090 -0.000015 -0.001254  0.000213 -0.024100  0.004154
                                -0.039506  0.006944 -0.044010  0.007650 -0.028213  0.004854 -0.009795  0.001624 -0.005170  0.000701
                                 0.003759  0.000919  0.017823  0.001710  0.004282  0.000726  0.080570  0.002362  0.032822  0.000513
                                 0.000024 -0.000001 -0.000118  0.000019  0.000259 -0.000007 -0.000778  0.000153  0.001818 -0.000126
                                -0.003548  0.000371  0.017434 -0.000742 -0.017053 -0.001933  0.033889 -0.001836  0.000047 -0.000030
                                -0.000004  0.000047 -0.000085  0.000025  0.000087 -0.000105  0.000092  0.006399  0.056537  0.258671
                                -0.000678 -0.004862

   5.3   0     0.0044   -0.9133 -0.000000  0.000000 -0.000000  0.000001 -0.000001  0.000002 -0.000004  0.000010 -0.000041  0.000381
                                 0.004158  0.005815  0.042994  0.045687  0.132797  0.100650 -0.122136  0.214025 -0.724592 -0.001537
                                -0.005979 -0.032867 -0.051742 -0.050325 -0.120763  2.554355  1.898886 -2.791734 -2.195633  1.870653
                                -0.000000  0.000001 -0.000005  0.000027 -0.000502 -0.004528  0.008076 -0.001233 -0.013971 -0.029983
                                 0.001197  0.008590 -0.012253  0.008128 -0.001797  0.015333 -0.088385  0.106906 -0.200082  0.191888
                                -0.313339  0.581072  0.000002 -0.000000 -0.000013  0.000001  0.000177 -0.000010  0.003506 -0.000198
                                 0.005953 -0.000322  0.006468 -0.000351  0.003085 -0.000241  0.001285 -0.000083  0.000435 -0.000046
                                 0.000201 -0.000024 -0.012167 -0.000174  0.009947  0.000388 -0.044068 -0.000498  0.046993  0.001810
                                -0.000001 -0.000001  0.000006 -0.000001 -0.000009 -0.000009  0.000033 -0.000013 -0.000111 -0.000028
                                -0.000118  0.000061 -0.002578 -0.000149 -0.000143  0.001083 -0.002084 -0.000613 -0.000008  0.000004
                                 0.000001 -0.000004  0.000009 -0.000003 -0.000038  0.000012 -0.000011 -0.001334 -0.012176 -0.052713
                                 0.000282  0.001325

                                   1 3d2-    1 3d2-    1 3d2-    1 3d2-    1 3d2-    1 3d2-    1 3d2-    1 3d2-    1 3d2-    1 3d2-
                                   1 3d2-    1 3d2-    1 3d2-    1 3d2-    1 3d2-    1 3d2-    1 3d2-    1 3d2-    1 3d2-    1 3d2-
                                   1 3d2-    1 3d2-    1 4f2-    1 4f2-    1 4f2-    1 4f2-    1 4f2-    1 4f2-    1 4f2-    1 4f2-
                                   1 4f2-    1 4f2-    1 4f2-    1 4f2-    1 4f2-    1 4f2-    1 5g2-    1 5g4-    1 5g2-    1 5g4-
                                   1 5g2-    1 5g4-    1 5g2-    1 5g4-    1 5g2-    1 5g4-    1 5g2-    1 5g4-    1 5g2-    1 5g4-
                                   1 5g2-    1 5g4-    1 5g2-    1 5g4-    1 6h4-    1 6h2-    1 6h4-    1 6h2-    1 6h4-    1 6h2-
                                   2 3d2-    2 3d2-

   1.4   +    -0.3443  -13.5608 -0.000000  0.000000 -0.000000  0.000002 -0.000041 -0.000375  0.000433  0.000198  0.000347 -0.002151
                                 0.000098  0.000650 -0.000746  0.000923 -0.001709 -0.004557 -0.000059 -0.003919  0.001426 -0.000349
                                 0.000141 -0.000038  0.000095 -0.000762  0.010690  0.208166  0.347632  0.389302  0.253398  0.081468
                                 0.035749  0.021560  0.092611 -0.036316  0.029921 -0.010075  0.000080  0.000005  0.000139  0.000022
                                 0.000589  0.000065  0.001021  0.000069  0.001865  0.000000  0.002887  0.000014  0.002346 -0.000066
                                 0.000310  0.000021  0.000172 -0.000026  0.000046 -0.000194  0.000104 -0.000562  0.000124 -0.000208
                                 0.000344  0.002030

   2.4   0     0.0112   -0.8629 -0.000001  0.000004 -0.000017  0.000090 -0.001663 -0.015149  0.031729 -0.012919 -0.035239 -0.025849
                                 0.003971  0.028923 -0.043764  0.026819  0.033073  0.096307 -0.171050  0.346633 -0.447589  0.661572
                                -1.070596  1.574810 -0.000000  0.000002 -0.000022 -0.000192  0.000192  0.000019 -0.001306 -0.000388
                                -0.000803  0.003472 -0.007782  0.026415 -0.037294  0.087443  0.000004  0.000000 -0.000015 -0.000001
                                 0.000037  0.000005 -0.000108 -0.000005  0.000231  0.000028 -0.000479 -0.000038  0.001505  0.000147
                                -0.002486 -0.000169  0.008946  0.000641 -0.000000  0.000001  0.000000 -0.000001  0.000001  0.000004
                                -0.000010  0.001999

   3.4   0     0.0278   -1.6198  0.000001 -0.000006  0.000027 -0.000143  0.002648  0.024026 -0.046866  0.013897  0.064331  0.097395
                                -0.006321 -0.045746  0.067396 -0.042481 -0.023032 -0.120904  0.346677 -0.525541  0.899032 -1.043697
                                 2.323711 -1.306403 -0.000001  0.000008 -0.000100 -0.001312 -0.000791 -0.001305 -0.003733 -0.001351
                                -0.002322  0.010182 -0.015350  0.079317 -0.072644  0.297000  0.000015  0.000002 -0.000062 -0.000003
                                 0.000147  0.000018 -0.000465 -0.000008  0.000959  0.000109 -0.001924 -0.000100  0.006905  0.000550
                                -0.009663 -0.000364  0.043009  0.002382 -0.000001  0.000003  0.000001 -0.000006  0.000005  0.000025
                                -0.000069  0.010517

 HOMO      6.1     0.275415 =       7.4944eV
 LUMO      7.1    -0.380203 =     -10.3459eV
 LUMO-HOMO        -0.655619 =     -17.8403eV

 No convergence



 **********************************************************************************************************************************
 DATASETS  * FILE   NREC   LENGTH (MB)   RECORD NAMES
              1      19       22.63       500      610      700      900      950      970     1000      129      960     1100
                                          VAR    BASINP    GEOM    SYMINP    ZMAT    AOBASIS   BASIS     P2S    ABASIS      S
                                         1400     1410     1420     1200     1210     1080     1600     1650     1700
                                           T        V       ECP      H0       H01     AOSYM     SMH    MOLCAS    OPER

              2       5        9.61       700     1000      520     3202     2101
                                         GEOM     BASIS   MCVARS     RHF      RHF

 PROGRAMS   *        TOTAL       RHF       RHF       INT
 CPU TIMES  *       326.87     87.17    126.99    112.36
 REAL TIME  *       355.38 SEC
 DISK USED  *        13.29 GB
 SF USED    *         0.25 MB
 GA USED    *         0.00 MB       (max)       0.00 MB       (current)
 **********************************************************************************************************************************
   -->
   <time start="13:58:32" end="14:00:06" cpu="87.19" system="6.67" real="93.92"/>
   <storage units="megabyte" memory="8001.84" sf="0.25" df="455.52" eaf="12830.09" ga="0.0"/>
  </jobstep><!--
 SETTING SCF            =      -107.38590381  AU
 SETTING _CC_NORM_MAX   =         2.00000000
  --><jobstep command="RCCSD(T)" commandset="CCSD">
   <!--


 PROGRAM * CCSD (Restricted open-shell coupled cluster)     Authors: C. Hampel, H.-J. Werner, 1991, M. Deegan, P.J. Knowles, 1992


 Convergence thresholds:  THRVAR = 1.00D-08  THRDEN = 1.00D-06

 CCSD(T)     terms to be evaluated (factor= 1.000)


 Number of closed-shell orbitals:   6 (   4   1   1   0 )
 Number of active  orbitals:        7 (   2   2   2   1 )
 Number of external orbitals:     456 ( 177 109 109  61 )

 Memory could be reduced to 500.27 Mwords without degradation in triples

 Number of N-1 electron functions:              19
 Number of N-2 electron functions:             171
 Number of singly external CSFs:              2740
 Number of doubly external CSFs:           6840384
 Total number of CSFs:                     6843124

 Molecular orbitals read from record     2101.2  Type=RHF/CANONICAL (state 1.4)

 ?Error: RHF not converged. This error exit can be avoided using the IGNORE_ERROR option on the ORBITAL directive
   --><error/><!--
  --></jobstep><!--
  -->
  <input>
  <!--
 --></job><!--
--></molpro>
