<?xml version="1.0"?>
<molpro xmlns="http://www.molpro.net/schema/molpro-output"
  xmlns:xsd="http://www.w3.org/1999/XMLSchema"
  xmlns:cml="http://www.xml-cml.org/schema"
  xmlns:stm="http://www.xml-cml.org/schema"
  xmlns:xhtml="http://www.w3.org/1999/xhtml">
 <!--

 Nodes     nprocs
 nid01056    11
 Number of processes for MPI-2 version of Molpro:   nprocs(total)=   12   nprocs(compute)=   11   nprocs(helper)=    1

 Using customized tuning parameters: mindgm=7; mindgv=16; mindgc=1; mindgr=1; noblas=0; minvec=7
 default implementation of scratch files=sf

 --><job>
  <!--

 Variables initialized (889), CPU time= 0.04 sec
 Commands  initialized (702), CPU time= 0.01 sec, 572 directives.
 Default parameters read. Elapsed time= 0.14 sec

 Checking input...
 Passed
1


                                         ***  PROGRAM SYSTEM MOLPRO  ***
                                       Copyright, TTI GmbH Stuttgart, 2015
                                    Version 2015.1 linked Dec 29 2018 15:55:43


 **********************************************************************************************************************************
 LABEL *   Calculation for GdO, singlet and triplet
  64 bit mpp version                                                                     DATE: 24-Nov-22          TIME: 05:11:16
 **********************************************************************************************************************************

 SHA1:             19cd028119e0e09f93f0674bd8af7968d9b3eff6
 **********************************************************************************************************************************
  -->
  <!--

 THRESHOLDS:

 ZERO    =  1.00D-12  ONEINT  =  1.00D-12  TWOINT  =  1.00D-15  PREFAC  =  1.00D-14  LOCALI  =  1.00D-09  EORDER  =  1.00D-04
 ENERGY  =  0.00D+00  ETEST   =  0.00D+00  EDENS   =  0.00D+00  THRDEDEF=  1.00D-06  GRADIENT=  1.00D-02  STEP    =  1.00D-03
 ORBITAL =  1.00D-05  CIVEC   =  1.00D-05  COEFF   =  1.00D-04  PRINTCI =  5.00D-02  PUNCHCI =  9.90D+01  OPTGRAD =  3.00D-04
 OPTENERG=  1.00D-06  OPTSTEP =  3.00D-04  THRGRAD =  1.00D-10  COMPRESS=  1.00D-11  VARMIN  =  1.00D-07  VARMAX  =  1.00D-03
 THRDOUB =  0.00D+00  THRDIV  =  1.00D-05  THRRED  =  1.00D-07  THRPSP  =  1.00D+00  THRDC   =  1.00D-10  THRCS   =  1.00D-10
 THRNRM  =  1.00D-08  THREQ   =  0.00D+00  THRDE   =  1.00D+00  THRREF  =  1.00D-05  SPARFAC =  1.00D+00  THRDLP  =  1.00D-07
 THRDIA  =  1.00D-10  THRDLS  =  1.00D-07  THRGPS  =  0.00D+00  THRKEX  =  0.00D+00  THRDIS  =  2.00D-01  THRVAR  =  1.00D-10
 THRLOC  =  1.00D-06  THRGAP  =  1.00D-06  THRLOCT = -1.00D+00  THRGAPT = -1.00D+00  THRORB  =  1.00D-06  THRMLTP =  0.00D+00
 THRCPQCI=  1.00D-10  KEXTA   =  0.00D+00  THRCOARS=  0.00D+00  SYMTOL  =  1.00D-06  GRADTOL =  1.00D-06  THROVL  =  1.00D-08
 THRORTH =  1.00D-08  GRID    =  1.00D-06  GRIDMAX =  1.00D-03  DTMAX   =  0.00D+00  THROCCDE=  1.00D-01  THROCCDE=  1.00D-01



 THRESHOLDS:

 ZERO    =  1.00D-12  ONEINT  =  1.00D-12  TWOINT  =  1.00D-15  PREFAC  =  1.00D-14  LOCALI  =  1.00D-09  EORDER  =  1.00D-04
 ENERGY  =  0.00D+00  ETEST   =  0.00D+00  EDENS   =  0.00D+00  THRDEDEF=  1.00D-06  GRADIENT=  1.00D-02  STEP    =  1.00D-03
 ORBITAL =  1.00D-05  CIVEC   =  1.00D-05  COEFF   =  1.00D-04  PRINTCI =  5.00D-02  PUNCHCI =  9.90D+01  OPTGRAD =  3.00D-04
 OPTENERG=  1.00D-06  OPTSTEP =  3.00D-04  THRGRAD =  1.00D-10  COMPRESS=  1.00D-11  VARMIN  =  1.00D-07  VARMAX  =  1.00D-03
 THRDOUB =  0.00D+00  THRDIV  =  1.00D-05  THRRED  =  1.00D-07  THRPSP  =  1.00D+00  THRDC   =  1.00D-10  THRCS   =  1.00D-10
 THRNRM  =  1.00D-08  THREQ   =  0.00D+00  THRDE   =  1.00D+00  THRREF  =  1.00D-05  SPARFAC =  1.00D+00  THRDLP  =  1.00D-07
 THRDIA  =  1.00D-10  THRDLS  =  1.00D-07  THRGPS  =  0.00D+00  THRKEX  =  0.00D+00  THRDIS  =  2.00D-01  THRVAR  =  1.00D-10
 THRLOC  =  1.00D-06  THRGAP  =  1.00D-06  THRLOCT = -1.00D+00  THRGAPT = -1.00D+00  THRORB  =  1.00D-06  THRMLTP =  0.00D+00
 THRCPQCI=  1.00D-10  KEXTA   =  0.00D+00  THRCOARS=  0.00D+00  SYMTOL  =  1.00D-06  GRADTOL =  1.00D-06  THROVL  =  1.00D-15
 THRORTH =  1.00D-08  GRID    =  1.00D-06  GRIDMAX =  1.00D-03  DTMAX   =  0.00D+00  THROCCDE=  1.00D-01  THROCCDE=  1.00D-01



 Variable memory set to 1000000000 words,  buffer space   230000 words

 SETTING BASIS          =    USERDEF
 SETTING GD_CCSD        =      -109.29937150
 SETTING O_CCSD         =       -15.86622096
 SETTING NE             =        24.00000000
 SETTING SYMM           =         4.00000000
 SETTING SS             =         8.00000000
 SETTING A1             =         7.00000000
 SETTING B1             =         4.00000000
 SETTING B2             =         4.00000000
 SETTING A2             =         1.00000000

Geometry recognized as XYZ

  --><jobstep command="RKS-SCF" commandset="SCFPRO">
   <!--


 Recomputing integrals since basis changed


 Using spherical harmonics



 PROGRAM * SEWARD (Integral evaluation for generally contracted gaussian basis sets)     Author: Roland Lindh, 1990

 Geometry written to block  1 of record 700


 Point group  C2v


   --><cml:molecule>
    <cml:symmetry pointGroup="C2v"/>
    <cml:atomArray>
     <cml:atom id="a1" elementType="Gd" x3="0.0" y3="0.0" z3="0.0"/>
     <cml:atom id="a2" elementType="O" x3="0.0" y3="0.0" z3="1.4"/>
    </cml:atomArray>
    <cml:bondArray>
     <cml:bond atomRefs2="a1 a2"/>
    </cml:bondArray>
   </cml:molecule><!--

 ATOMIC COORDINATES

 NR  ATOM    CHARGE       X              Y              Z

   1  GD     18.00    0.000000000    0.000000000    0.000000000
   2  O       6.00    0.000000000    0.000000000    2.645616574

 Bond lengths in Bohr (Angstrom)

 1-2  2.645616574
     ( 1.400000000)

 NUCLEAR CHARGE:                   24
 NUMBER OF PRIMITIVE AOS:         673
 NUMBER OF SYMMETRY AOS:          515
 NUMBER OF CONTRACTIONS:          515   ( 203A1  + 123B1  + 123B2  +  66A2  )
 NUMBER OF CORE ORBITALS:           0   (   0A1  +   0B1  +   0B2  +   0A2  )
 NUMBER OF VALENCE ORBITALS:       21   (   9A1  +   5B1  +   5B2  +   2A2  )


 NUCLEAR REPULSION ENERGY   40.82224199

 EXTRA SYMMETRY OF AOS IN SYMMETRY 1:   1 1 1 1 1 1 1 1 1 1   1 1 1 1 1 1 1 1 1 1   1 1 1 1 1 1 1 1 1 1   1 1 1 1 1 1 1 1 1 1
                                        1 1 1 1 1 1 1 1 1 1   1 1 1 1 1 1 1 1 1 1   1 1 1 2 1 2 1 2 1 2   1 2 1 2 1 2 1 2 1 2
                                        1 2 1 2 1 2 1 2 1 2   1 2 1 2 1 2 1 2 1 2   1 2 1 2 1 2 1 2 1 2   1 2 1 2 1 2 1 2 1 2
                                        1 2 1 2 1 2 1 2 1 2   1 2 1 2 1 3 2 1 3 2   1 3 2 1 3 2 1 3 2 1   3 2 1 3 2 1 3 2 1 3
                                        2 2 3 1 2 3 1 2 3 1   1 1 1 1 1 1 1 1 1 1   1 1 1 1 1 1 1 1 1 1   1 1 2 1 2 1 2 1 2 1
                                        2 1 2
 EXTRA SYMMETRY OF AOS IN SYMMETRY 2:   1 1 1 1 1 1 1 1 1 1   1 1 1 1 1 1 1 1 1 1   1 1 1 1 1 1 1 1 1 1   1 1 1 1 1 1 1 1 1 1
                                        1 1 1 1 1 1 1 1 1 1   1 1 1 2 1 2 1 2 1 2   1 2 1 2 1 2 1 2 1 2   1 2 1 2 1 2 1 2 1 2
                                        1 2 1 2 1 2 1 2 1 2   1 2 1 2 1 2 1 2 1 2   3 1 2 3 1 2 3 1 1 1   1 1 1 1 1 1 1 1 1 1
                                        2 1 2
 EXTRA SYMMETRY OF AOS IN SYMMETRY 3:   1 1 1 1 1 1 1 1 1 1   1 1 1 1 1 1 1 1 1 1   1 1 1 1 1 1 1 1 1 1   1 1 1 1 1 1 1 1 1 1
                                        1 1 1 1 1 1 1 1 1 1   1 1 1 2 1 2 1 2 1 2   1 2 1 2 1 2 1 2 1 2   1 2 1 2 1 2 1 2 1 2
                                        1 2 1 2 1 2 1 2 1 2   1 2 1 2 1 2 1 2 1 2   3 1 2 3 1 2 3 1 1 1   1 1 1 1 1 1 1 1 1 1
                                        2 1 2
 EXTRA SYMMETRY OF AOS IN SYMMETRY 4:   1 1 1 1 1 1 1 1 1 1   1 1 1 1 1 1 1 1 1 1   1 1 1 1 1 1 1 1 1 1   1 1 1 1 1 1 1 2 1 2
                                        1 2 1 2 1 2 1 2 1 2   1 2 1 2 2 1 2 1 2 1   1 1 1 1 1 1

 Eigenvalues of metric

         1 0.109E-06 0.267E-06 0.581E-06 0.681E-06 0.727E-06 0.733E-06 0.118E-05 0.251E-05
         2 0.615E-06 0.724E-06 0.438E-05 0.138E-04 0.237E-04 0.413E-04 0.841E-04 0.142E-03
         3 0.615E-06 0.724E-06 0.438E-05 0.138E-04 0.237E-04 0.413E-04 0.841E-04 0.142E-03
         4 0.727E-06 0.238E-04 0.148E-03 0.539E-03 0.824E-03 0.926E-03 0.418E-02 0.880E-02


 Contracted 2-electron integrals neglected if value below      1.0D-15
 AO integral compression algorithm  1   Integral accuracy      1.0D-15

     8355.578 MB (compressed) written to integral file ( 45.0%)

     Node minimum: 619.971 MB, node maximum: 977.797 MB


 NUMBER OF SORTED TWO-ELECTRON INTEGRALS:  203908241.     BUFFER LENGTH:  32768
 NUMBER OF SEGMENTS:   7  SEGMENT LENGTH:   31990770      RECORD LENGTH: 524288

 Memory used in sort:      32.55 MW

 SORT1 READ  2319806290. AND WROTE    90829705. INTEGRALS IN    264 RECORDS. CPU TIME:    44.52 SEC, REAL TIME:    64.10 SEC
 SORT2 READ  1000084485. AND WROTE  2243484243. INTEGRALS IN  36553 RECORDS. CPU TIME:     2.95 SEC, REAL TIME:     4.88 SEC

 Node minimum:   203897834.  Node maximum:   204073967. integrals

 OPERATOR DM      FOR CENTER  0  COORDINATES:    0.000000    0.000000    0.000000


 **********************************************************************************************************************************
 DATASETS  * FILE   NREC   LENGTH (MB)   RECORD NAMES
              1      19       23.11       500      610      700      900      950      970     1000      129      960     1100
                                          VAR    BASINP    GEOM    SYMINP    ZMAT    AOBASIS   BASIS     P2S    ABASIS      S
                                         1400     1410     1420     1200     1210     1080     1600     1650     1700
                                           T        V       ECP      H0       H01     AOSYM     SMH    MOLCAS    OPER

 PROGRAMS   *        TOTAL       INT
 CPU TIMES  *       159.86    159.49
 REAL TIME  *       183.54 SEC
 DISK USED  *        20.23 GB
 GA USED    *         0.00 MB       (max)       0.00 MB       (current)
 **********************************************************************************************************************************

 Density functional group PBE0=PBEX+PBEC
 Functional: PBEX(Automatically generated (new) PBEX)                          Gradient terms: 1
 Functional: PBEC(Automatically generated (new) PBEC)                          Gradient terms: 1
 Use grid at  1800.2


 Exact exchange will be calculated, factor:  0.2500

 Functional: PBEX                      Factor:  0.7500
 Functional: PBEC                      Factor:  1.0000

 Generated new metagrid on record  1800.2 with target accuracy 1.0D-06 and 6126 points in CPU time    0.1
 Computed new grid on record 1800.1 in CPU time    0.1
  410982 words reserved for DFT integration

 PROGRAM * RKS-SCF (Restricted open shell Kohn-Sham)     Authors: W. Meyer, H.-J. Werner, P.J. Knowles, 1993

 NUMBER OF ELECTRONS:      16+    8-    SPACE SYMMETRY=4    SPIN SYMMETRY: Nonet
 CONVERGENCE THRESHOLDS:    1.00E-05 (Density)    1.00E-06 (Energy)
 MAX. NUMBER OF ITERATIONS:      200
 INTERPOLATION TYPE:            DIIS
 INTERPOLATION STEPS:              2 (START)      1 (STEP)
 LEVEL SHIFTS:                 -0.60 (CLOSED) -0.30 (OPEN)

 Number of closed-shell orbitals:    8 (   4   2   2   0 )
 Number of open-shell orbitals:      8 (   3   2   2   1 )


 Use fine grid record 1800.2 for energy threshold  1.0D-06
 Guess basis ATOMIC-GUESS,GD=ECP46_GUESS,O=ECP2_GUESS not found. No density guess!


 Molecular orbital dump at record        2202.2

 ITERATION    DDIFF          GRAD             ENERGY        2-EL.EN.            DIPOLE MOMENTS         DIIS   ORB.
    1      0.000D+00      0.000D+00       -67.15093669    550.689298    0.00000    0.00000   10.23058    0    start
    2      0.000D+00      0.214D+00       -34.79550568    146.699769    0.00000    0.00000 -124.19752    0    diag,B
    3      0.542D+01      0.874D-01       -56.81224057    560.270281    0.00000    0.00000   17.43358    1    diag,B
    4      0.540D+01      0.218D+00       -72.06551115    527.631774    0.00000    0.00000   16.36414    2    diag,B
    5      0.734D-01      0.181D+00       -82.76058053    502.024667    0.00000    0.00000   15.25757    3    diag,B
    6      0.112D+00      0.157D+00       -86.22489841    493.555550    0.00000    0.00000   14.64667    4    diag,B
    7      0.283D-01      0.149D+00       -86.99082139    491.280316    0.00000    0.00000   14.62965    5    fixocc
    8      0.705D-02      0.147D+00       -87.20020753    490.862470    0.00000    0.00000   14.56102    6    diag,B
    9      0.298D-02      0.146D+00       -87.19396255    490.878515    0.00000    0.00000   14.56235    7    diag,B
   10      0.538D-04      0.146D+00       -90.23923849    481.729060    0.00000    0.00000   14.20308    8    orth
   11      0.186D-01      0.140D+00       -90.27922591    481.766764    0.00000    0.00000   14.13751    9    diag,B
   12      0.108D-02      0.140D+00       -90.95700217    479.846884    0.00000    0.00000   14.04356    9    diag,B
   13      0.412D-02      0.138D+00       -93.21629206    472.812924    0.00000    0.00000   13.76947    9    diag,B
   14      0.961D-02      0.133D+00       -93.13788172    473.042545    0.00000    0.00000   13.78351    9    diag,B
   15      0.426D-03      0.133D+00       -93.81666120    470.531944    0.00000    0.00000   13.83295    9    diag,B
   16      0.496D-02      0.132D+00       -94.83749107    467.541453    0.00000    0.00000   13.60942    9    diag,B
   17      0.454D-02      0.129D+00       -96.31721709    463.535200    0.00000    0.00000   13.13631    9    diag,B
   18      0.824D-02      0.126D+00       -95.96076541    464.630347    0.00000    0.00000   13.18105    9    diag,B
   19      0.742D-02      0.127D+00       -95.68060519    465.530022    0.00000    0.00000   13.22288    9    diag,B
   20      0.298D-02      0.128D+00       -96.10789278    463.930873    0.00000    0.00000   13.21454    9    orth
   21      0.369D-02      0.127D+00       -95.77343469    464.959249    0.00000    0.00000   13.25296    9    diag,B
   22      0.457D-02      0.128D+00       -95.61863298    465.233131    0.00000    0.00000   13.35134    9    diag,B
   23      0.163D-02      0.128D+00       -95.10458217    466.425564    0.00000    0.00000   13.59414    9    diag,B
   24      0.486D-02      0.128D+00       -93.41828665    470.944749    0.00000    0.00000   14.12848    9    diag,B
   25      0.801D-02      0.131D+00       -93.29767059    471.283387    0.00000    0.00000   14.12160    9    diag,B
   26      0.203D-02      0.132D+00       -93.52653291    470.408680    0.00000    0.00000   14.15312    9    diag,B
   27      0.112D-01      0.132D+00       -91.74764169    476.537441    0.00000    0.00000   14.13296    9    diag,B
   28      0.951D-02      0.137D+00       -95.41034076    465.738195    0.00000    0.00000   13.48388    9    diag,B
   29      0.154D-01      0.128D+00       -95.31304753    466.031775    0.00000    0.00000   13.49950    9    diag,B
   30      0.565D-03      0.128D+00       -92.70284434    474.155417    0.00000    0.00000   14.00202    9    orth
   31      0.118D-01      0.134D+00       -95.11409537    467.262892    0.00000    0.00000   13.36519    9    diag,B
   32      0.102D-01      0.128D+00       -93.36027119    473.223568    0.00000    0.00000   13.43949    9    diag,B
   33      0.115D-01      0.132D+00       -90.93248974    480.059358    0.00000    0.00000   14.02482    9    diag,B
   34      0.101D-01      0.138D+00       -94.34593621    470.242179    0.00000    0.00000   13.29889    9    diag,B
   35      0.143D-01      0.131D+00       -96.88425702    463.212463    0.00000    0.00000   12.52034    9    diag,B
   36      0.108D-01      0.125D+00       -96.30348378    464.207864    0.00000    0.00000   12.86588    9    diag,B
     Orbital  7.1 strongly deviates from fixed occupation: 0.85360  (now: 1.00)
     Note:  Use {hf,nitord=N} to fix occupations at iteration N
            Use {gthresh,occdev=1.0} to suppress deviation warnings
   37      0.750D-02      0.126D+00       -90.48361328    478.516613    0.00000    0.00000   14.80667    9    diag,B
   38      0.253D-01      0.138D+00       -91.09767154    477.108590    0.00000    0.00000   14.63143    9    diag,B
   39      0.411D-02      0.137D+00       -90.95085179    477.725674    0.00000    0.00000   14.58940    9    diag,B
   40      0.260D-02      0.137D+00       -91.84385678    475.261972    0.00000    0.00000   14.43257    9    orth
   41      0.755D-02      0.135D+00       -91.28919633    476.919616    0.00000    0.00000   14.48762    9    diag,B
   42      0.646D-02      0.137D+00       -91.41291600    476.612419    0.00000    0.00000   14.45764    9    diag,B
   43      0.108D-02      0.136D+00       -91.79727345    475.779588    0.00000    0.00000   14.30336    9    diag,B
   44      0.170D-02      0.136D+00       -91.65634184    475.888854    0.00000    0.00000   14.42839    9    diag,B
   45      0.205D-02      0.136D+00       -91.71463391    475.791773    0.00000    0.00000   14.39657    9    diag,B
   46      0.501D-03      0.136D+00       -91.86780792    475.453433    0.00000    0.00000   14.34419    9    diag,B
   47      0.175D-02      0.136D+00       -92.26852296    474.369312    0.00000    0.00000   14.22687    9    diag,B
   48      0.249D-02      0.135D+00       -91.87692399    475.472988    0.00000    0.00000   14.31924    9    diag,B
   49      0.188D-02      0.136D+00       -91.98849752    475.335939    0.00000    0.00000   14.24657    9    diag,B
   50      0.115D-02      0.136D+00       -96.51113185    461.808969    0.00000    0.00000   13.35052    9    orth
   51      0.208D-01      0.126D+00       -92.18644396    474.530414    0.00000    0.00000   14.28334    9    diag,B
   52      0.188D-01      0.135D+00       -92.48899362    474.104129    0.00000    0.00000   14.08042    9    diag,B
   53      0.234D-02      0.135D+00       -96.34908371    461.903075    0.00000    0.00000   13.55997    9    diag,B
   54      0.162D-01      0.126D+00       -94.39409684    468.130481    0.00000    0.00000   13.85508    9    diag,B
   55      0.843D-02      0.130D+00       -96.13535778    463.127812    0.00000    0.00000   13.40159    9    diag,B
   56      0.711D-02      0.126D+00       -95.22557768    465.767251    0.00000    0.00000   13.62411    9    diag,B
   57      0.627D-02      0.129D+00       -97.07074696    459.453575    0.00000    0.00000   13.46117    9    diag,B
   58      0.787D-02      0.124D+00       -96.67907818    461.180171    0.00000    0.00000   13.46282    9    diag,B
     Orbital  7.1 strongly deviates from fixed occupation: 0.86879  (now: 1.00)
   59      0.538D-02      0.124D+00       -92.57929315    472.259838    0.00000    0.00000   14.62114    9    diag,B
   60      0.132D-01      0.133D+00       -92.82757147    472.089413    0.00000    0.00000   14.32302    9    orth
   61      0.253D-01      0.132D+00       -91.81087835    476.539501    0.00000    0.00000   14.11787    9    diag,B
   62      0.107D-01      0.135D+00       -92.97106942    471.798000    0.00000    0.00000   14.27617    9    diag,B
   63      0.932D-02      0.132D+00       -92.54930050    473.651117    0.00000    0.00000   14.18328    9    diag,B
   64      0.582D-02      0.134D+00       -94.05277753    468.953288    0.00000    0.00000   13.94238    9    diag,B
   65      0.643D-02      0.131D+00       -93.50523433    470.935099    0.00000    0.00000   13.95753    9    diag,B
   66      0.390D-02      0.132D+00       -94.21834481    468.231251    0.00000    0.00000   13.97996    9    diag,B
   67      0.548D-02      0.131D+00       -93.75595585    470.011074    0.00000    0.00000   13.96825    9    diag,B
   68      0.397D-02      0.132D+00       -94.19083300    468.753182    0.00000    0.00000   13.84509    9    diag,B
   69      0.322D-02      0.131D+00       -94.25052861    468.266372    0.00000    0.00000   13.92300    9    diag,B
   70      0.245D-02      0.130D+00       -92.65364722    473.524720    0.00000    0.00000   14.13451    9    orth
   71      0.698D-02      0.134D+00       -93.10278996    472.002294    0.00000    0.00000   14.07407    9    diag,B
   72      0.369D-02      0.133D+00       -93.67333381    470.111189    0.00000    0.00000   14.01336    9    diag,B
   73      0.283D-02      0.132D+00       -93.57947919    470.405769    0.00000    0.00000   14.02278    9    diag,B
   74      0.117D-02      0.132D+00       -93.16439390    472.004455    0.00000    0.00000   14.01643    9    diag,B
   75      0.446D-02      0.133D+00       -94.02661018    468.965882    0.00000    0.00000   13.96532    9    diag,B
   76      0.530D-02      0.131D+00       -93.98474003    469.065281    0.00000    0.00000   13.97883    9    diag,B
   77      0.331D-03      0.131D+00       -92.59097485    473.830029    0.00000    0.00000   14.10160    9    diag,B
   78      0.759D-02      0.134D+00       -93.68397089    470.106050    0.00000    0.00000   14.00429    9    diag,B
   79      0.668D-02      0.131D+00       -93.65773587    470.065305    0.00000    0.00000   14.03709    9    diag,B
   80      0.200D-02      0.131D+00       -92.70827121    473.329073    0.00000    0.00000   14.11546    9    orth
   81      0.688D-02      0.134D+00       -93.91059385    469.275286    0.00000    0.00000   14.00219    9    diag,B
   82      0.833D-02      0.130D+00       -93.65669682    470.143640    0.00000    0.00000   14.01772    9    diag,B
   83      0.170D-02      0.131D+00       -92.94250761    472.700516    0.00000    0.00000   14.06223    9    diag,B
   84      0.738D-02      0.134D+00       -93.10167293    472.016789    0.00000    0.00000   14.07257    9    diag,B
   85      0.356D-02      0.133D+00       -93.90607357    469.268068    0.00000    0.00000   14.00246    9    diag,B
   86      0.556D-02      0.131D+00       -92.99492978    472.403787    0.00000    0.00000   14.08607    9    diag,B
   87      0.648D-02      0.133D+00       -92.45460512    474.014208    0.00000    0.00000   14.17854    9    diag,B
   88      0.313D-02      0.134D+00       -93.31727509    471.131409    0.00000    0.00000   14.08889    9    diag,B
   89      0.568D-02      0.132D+00       -92.42247791    474.305241    0.00000    0.00000   14.14059    9    diag,B
   90      0.747D-02      0.134D+00       -92.95717263    472.504739    0.00000    0.00000   14.08257    9    orth
   91      0.345D-02      0.133D+00       -93.67227216    470.147782    0.00000    0.00000   14.00354    9    diag,B
   92      0.335D-02      0.131D+00       -93.28375219    471.545810    0.00000    0.00000   14.02315    9    diag,B
   93      0.453D-02      0.133D+00       -93.77672188    469.792735    0.00000    0.00000   13.99139    9    diag,B
   94      0.370D-02      0.131D+00       -93.87232217    469.509612    0.00000    0.00000   13.97137    9    diag,B
   95      0.828D-03      0.131D+00       -93.05554466    472.337870    0.00000    0.00000   14.04133    9    diag,B
   96      0.583D-02      0.134D+00       -93.75537839    469.911927    0.00000    0.00000   13.98813    9    diag,B
   97      0.455D-02      0.131D+00       -93.92246070    469.192820    0.00000    0.00000   14.00413    9    diag,B
   98      0.391D-02      0.131D+00       -92.44788181    474.068364    0.00000    0.00000   14.17379    9    diag,B
   99      0.761D-02      0.134D+00       -92.87459347    472.676443    0.00000    0.00000   14.13341    9    diag,B
  100      0.373D-02      0.133D+00       -93.10650268    471.808888    0.00000    0.00000   14.11784    9    orth
  101      0.407D-02      0.132D+00       -92.18400795    474.977599    0.00000    0.00000   14.18776    9    diag,B
  102      0.681D-02      0.135D+00       -92.96819458    472.494844    0.00000    0.00000   14.07960    9    diag,B
  103      0.348D-02      0.133D+00       -93.39633233    471.035521    0.00000    0.00000   14.03888    9    diag,B
  104      0.229D-02      0.132D+00       -93.24319188    471.618300    0.00000    0.00000   14.04059    9    diag,B
  105      0.334D-02      0.133D+00       -93.67404461    470.210175    0.00000    0.00000   13.99211    9    diag,B
  106      0.184D-02      0.132D+00       -93.69176667    470.120178    0.00000    0.00000   13.99063    9    diag,B
  107      0.640D-03      0.132D+00       -93.25247603    471.596192    0.00000    0.00000   14.04937    9    diag,B
  108      0.322D-02      0.133D+00       -93.44156678    470.929391    0.00000    0.00000   14.02601    9    diag,B
  109      0.168D-02      0.132D+00       -93.87612618    469.560846    0.00000    0.00000   13.95761    9    diag,B
  110      0.192D-02      0.131D+00       -93.78171844    469.830550    0.00000    0.00000   13.97686    9    orth
  111      0.718D-03      0.132D+00       -93.41378222    471.046365    0.00000    0.00000   14.02755    9    diag,B
  112      0.234D-02      0.132D+00       -93.65832335    470.243560    0.00000    0.00000   13.99585    9    diag,B
  113      0.123D-02      0.132D+00       -93.52028738    470.535048    0.00000    0.00000   14.04987    9    diag,B
  114      0.312D-02      0.132D+00       -93.33678344    471.176272    0.00000    0.00000   14.05991    9    diag,B
  115      0.162D-02      0.132D+00       -93.20214882    471.619929    0.00000    0.00000   14.09145    9    diag,B
  116      0.156D-02      0.132D+00       -93.10850854    471.902214    0.00000    0.00000   14.09428    9    diag,B
  117      0.110D-02      0.133D+00       -93.64111428    470.425431    0.00000    0.00000   13.96145    9    diag,B
  118      0.367D-02      0.132D+00       -93.34224866    471.212369    0.00000    0.00000   14.04678    9    diag,B
  119      0.251D-02      0.132D+00       -93.74585839    469.946079    0.00000    0.00000   13.98784    9    diag,B
  120      0.215D-02      0.132D+00       -93.16024607    471.772749    0.00000    0.00000   14.08830    9    orth
  121      0.304D-02      0.133D+00       -93.24607145    471.495139    0.00000    0.00000   14.06654    9    diag,B
  122      0.880D-03      0.133D+00       -93.60807111    470.407317    0.00000    0.00000   14.00540    9    diag,B
  123      0.250D-02      0.132D+00       -93.34918111    471.160518    0.00000    0.00000   14.05601    9    diag,B
  124      0.198D-02      0.132D+00       -93.01475522    472.189307    0.00000    0.00000   14.11543    9    diag,B
  125      0.213D-02      0.133D+00       -93.14849742    471.821465    0.00000    0.00000   14.08142    9    diag,B
  126      0.105D-02      0.133D+00       -92.89200421    472.559420    0.00000    0.00000   14.13897    9    diag,B
  127      0.228D-02      0.133D+00       -92.97796179    472.326080    0.00000    0.00000   14.10871    9    diag,B
  128      0.106D-02      0.133D+00       -93.44557696    470.983818    0.00000    0.00000   14.01600    9    diag,B
  129      0.347D-02      0.132D+00       -93.30839849    471.362339    0.00000    0.00000   14.04315    9    diag,B
  130      0.127D-02      0.132D+00       -93.34451497    471.185942    0.00000    0.00000   14.05360    9    orth
  131      0.776D-03      0.132D+00       -93.44618234    470.914417    0.00000    0.00000   14.02667    9    diag,B
  132      0.106D-02      0.132D+00       -93.30715026    471.312048    0.00000    0.00000   14.06126    9    diag,B
  133      0.105D-02      0.132D+00       -93.40899407    471.012915    0.00000    0.00000   14.03489    9    diag,B
  134      0.837D-03      0.132D+00       -93.77556381    469.926192    0.00000    0.00000   13.95780    9    diag,B
  135      0.249D-02      0.132D+00       -93.62838832    470.347852    0.00000    0.00000   13.99834    9    diag,B
  136      0.116D-02      0.132D+00       -93.85484651    469.589871    0.00000    0.00000   13.97574    9    diag,B
  137      0.121D-02      0.131D+00       -93.14643946    471.740327    0.00000    0.00000   14.10281    9    diag,B
  138      0.418D-02      0.133D+00       -93.03274131    472.108238    0.00000    0.00000   14.11710    9    diag,B
  139      0.838D-03      0.133D+00       -92.62849673    473.381518    0.00000    0.00000   14.18704    9    diag,B
  140      0.295D-02      0.133D+00       -92.52683020    473.712083    0.00000    0.00000   14.18136    9    orth
  141      0.155D-02      0.134D+00       -92.78273065    473.059598    0.00000    0.00000   14.11804    9    diag,B
  142      0.235D-02      0.133D+00       -92.94080815    472.547273    0.00000    0.00000   14.08909    9    diag,B
  143      0.104D-02      0.133D+00       -93.55274090    470.678382    0.00000    0.00000   13.98319    9    diag,B
  144      0.386D-02      0.132D+00       -93.61812507    470.435580    0.00000    0.00000   13.98261    9    diag,B
  145      0.419D-03      0.132D+00       -93.95577612    469.363319    0.00000    0.00000   13.93425    9    diag,B
  146      0.201D-02      0.131D+00       -93.81141166    469.766245    0.00000    0.00000   13.96838    9    diag,B
  147      0.789D-03      0.132D+00       -93.76201245    469.870146    0.00000    0.00000   13.98871    9    diag,B
  148      0.477D-03      0.132D+00       -93.27173644    471.357438    0.00000    0.00000   14.09667    9    diag,B
  149      0.306D-02      0.132D+00       -92.98529462    472.236208    0.00000    0.00000   14.12944    9    diag,B
  150      0.202D-02      0.133D+00       -92.48584405    473.855549    0.00000    0.00000   14.19422    9    orth
  151      0.333D-02      0.134D+00       -92.70623242    473.216862    0.00000    0.00000   14.14070    9    diag,B
  152      0.163D-02      0.133D+00       -93.20988329    471.700242    0.00000    0.00000   14.04797    9    diag,B
  153      0.331D-02      0.133D+00       -93.22793495    471.637485    0.00000    0.00000   14.05009    9    diag,B
  154      0.459D-03      0.133D+00       -93.47681924    470.828657    0.00000    0.00000   14.02238    9    diag,B
  155      0.146D-02      0.132D+00       -93.46829447    470.861398    0.00000    0.00000   14.01599    9    diag,B
  156      0.474D-03      0.132D+00       -93.48168111    470.792786    0.00000    0.00000   14.03525    9    diag,B
  157      0.101D-02      0.132D+00       -93.47196257    470.800382    0.00000    0.00000   14.03224    9    diag,B
  158      0.674D-03      0.132D+00       -93.14854254    471.766718    0.00000    0.00000   14.09303    9    diag,B
  159      0.196D-02      0.133D+00       -93.23596171    471.514413    0.00000    0.00000   14.06992    9    diag,B
  160      0.826D-03      0.133D+00       -93.68843419    470.241693    0.00000    0.00000   13.96337    9    orth
  161      0.314D-02      0.132D+00       -93.54472919    470.607407    0.00000    0.00000   14.01337    9    diag,B
  162      0.145D-02      0.132D+00       -93.60858687    470.342754    0.00000    0.00000   14.01594    9    diag,B
  163      0.700D-03      0.132D+00       -93.02036890    472.169850    0.00000    0.00000   14.12198    9    diag,B
  164      0.310D-02      0.133D+00       -92.93152480    472.457879    0.00000    0.00000   14.13236    9    diag,B
  165      0.956D-03      0.133D+00       -92.36392938    474.166188    0.00000    0.00000   14.22395    9    diag,B
  166      0.448D-02      0.134D+00       -92.45945601    473.946507    0.00000    0.00000   14.18710    9    diag,B
  167      0.141D-02      0.134D+00       -92.70834410    473.272761    0.00000    0.00000   14.13264    9    diag,B
  168      0.193D-02      0.133D+00       -92.83550913    472.858192    0.00000    0.00000   14.10785    9    diag,B
  169      0.992D-03      0.133D+00       -93.29298775    471.486089    0.00000    0.00000   14.03177    9    diag,B
  170      0.325D-02      0.132D+00       -93.39390229    471.147657    0.00000    0.00000   14.01503    9    orth
  171      0.647D-03      0.132D+00       -93.82178351    469.806322    0.00000    0.00000   13.94722    9    diag,B
  172      0.258D-02      0.132D+00       -93.89386454    469.565889    0.00000    0.00000   13.93900    9    diag,B
  173      0.455D-03      0.131D+00       -94.08534055    468.941725    0.00000    0.00000   13.91466    9    diag,B
  174      0.127D-02      0.131D+00       -94.01932716    469.113009    0.00000    0.00000   13.93264    9    diag,B
  175      0.370D-03      0.131D+00       -93.94660272    469.312310    0.00000    0.00000   13.95118    9    diag,B
  176      0.403D-03      0.131D+00       -93.65319299    470.206541    0.00000    0.00000   14.01589    9    diag,B
  177      0.175D-02      0.132D+00       -93.35964339    471.096142    0.00000    0.00000   14.06394    9    diag,B
  178      0.181D-02      0.132D+00       -92.56852349    473.512778    0.00000    0.00000   14.20014    9    diag,B
  179      0.541D-02      0.133D+00       -92.72817821    473.096966    0.00000    0.00000   14.15143    9    diag,B
  180      0.151D-02      0.133D+00       -92.74343879    473.095903    0.00000    0.00000   14.13905    9    orth
  181      0.748D-03      0.133D+00       -92.91834971    472.575098    0.00000    0.00000   14.10242    9    diag,B
  182      0.122D-02      0.133D+00       -93.55593341    470.670154    0.00000    0.00000   13.97966    9    diag,B
  183      0.405D-02      0.132D+00       -93.62344307    470.417033    0.00000    0.00000   13.98540    9    diag,B
  184      0.559D-03      0.132D+00       -93.94496928    469.379766    0.00000    0.00000   13.93903    9    diag,B
  185      0.172D-02      0.131D+00       -93.83197626    469.724107    0.00000    0.00000   13.95841    9    diag,B
  186      0.880D-03      0.132D+00       -93.85872916    469.623981    0.00000    0.00000   13.95676    9    diag,B
  187      0.352D-03      0.131D+00       -93.78872734    469.797623    0.00000    0.00000   13.98507    9    diag,B
  188      0.849D-03      0.131D+00       -93.71163728    470.027053    0.00000    0.00000   13.99641    9    diag,B
  189      0.582D-03      0.132D+00       -93.21660206    471.593959    0.00000    0.00000   14.07019    9    diag,B
  190      0.253D-02      0.133D+00       -93.30127642    471.316122    0.00000    0.00000   14.05702    9    orth
  191      0.599D-03      0.133D+00       -93.46258334    470.844867    0.00000    0.00000   14.02956    9    diag,B
  192      0.991D-03      0.132D+00       -93.41152650    470.989918    0.00000    0.00000   14.03833    9    diag,B
  193      0.580D-03      0.132D+00       -93.20286994    471.648397    0.00000    0.00000   14.06863    9    diag,B
  194      0.122D-02      0.133D+00       -93.36341002    471.163988    0.00000    0.00000   14.03811    9    diag,B
  195      0.969D-03      0.132D+00       -93.67047847    470.232644    0.00000    0.00000   13.98124    9    diag,B
  196      0.170D-02      0.132D+00       -93.65009209    470.280404    0.00000    0.00000   13.99332    9    diag,B
  197      0.425D-03      0.132D+00       -93.46582374    470.823501    0.00000    0.00000   14.03346    9    diag,B
  198      0.108D-02      0.132D+00       -93.29752547    471.298687    0.00000    0.00000   14.06749    9    diag,B
  199      0.142D-02      0.132D+00       -92.60235853    473.246763    0.00000    0.00000   14.24250    9    orth
     Orbital  1.1 strongly deviates from fixed occupation: 0.59833  (now: 2.00)
     Orbital  2.1 strongly deviates from fixed occupation: 0.53069  (now: 2.00)
     Orbital  3.1 strongly deviates from fixed occupation: 1.08362  (now: 2.00)
     Orbital  4.1 strongly deviates from fixed occupation: 0.72351  (now: 2.00)
     Orbital  5.1 strongly deviates from fixed occupation: 0.44448  (now: 1.00)
     Orbital  6.1 strongly deviates from fixed occupation: 0.36398  (now: 1.00)
     Orbital  7.1 strongly deviates from fixed occupation: 0.38557  (now: 1.00)
     Orbital  1.2 strongly deviates from fixed occupation: 0.69981  (now: 2.00)
     Orbital  2.2 strongly deviates from fixed occupation: 1.12369  (now: 2.00)
     Orbital  3.2 strongly deviates from fixed occupation: 0.51342  (now: 1.00)
     Orbital  4.2 strongly deviates from fixed occupation: 0.39283  (now: 1.00)
     Orbital  1.3 strongly deviates from fixed occupation: 0.70441  (now: 2.00)
     Orbital  2.3 strongly deviates from fixed occupation: 1.12787  (now: 2.00)
     Orbital  3.3 strongly deviates from fixed occupation: 0.51299  (now: 1.00)
     Orbital  4.3 strongly deviates from fixed occupation: 0.38492  (now: 1.00)
     Orbital  1.4 strongly deviates from fixed occupation: 0.56226  (now: 1.00)
  200      0.222D-02      0.133D+00       -69.86400705    281.167153    0.00000    0.00000    1.28740    0    orth

 Final alpha occupancy:   7   4   4   1
 Final beta  occupancy:   4   2   2   0

 !RKS STATE 1.4 Energy                -69.864007045101
   --><property name="Energy" method="RKS" principal="true" stateSymmetry="4" stateNumber="1"
     value="-69.8640070451012"/><!--
 Nuclear energy                        40.82224199
 One-electron energy                 -239.51669901
 Two-electron energy                  140.58357650
 Density functional                   -11.75312653     PBEX=-14.60031307 PBEC= -0.80289173
 Virial quotient                       -0.34302366
 !RKS STATE 1.4 Dipole moment           0.00000000     0.00000000     1.28739905
 Dipole moment /Debye                   0.00000000     0.00000000     3.27202768
   --><property name="Dipole moment" method="RKS" principal="true" stateSymmetry="4"
     stateNumber="1" value="0.0 0.0 1.2873990502975"/><!--

 ELECTRON ORBITALS
 =================


   Orb  Occ    Energy  Couls-En    Coefficients

                                   1 1s      1 1s      1 1s      1 1s      1 1s      1 1s      1 1s      1 1s      1 1s      1 1s
                                   1 1s      1 1s      1 1s      1 1s      1 1s      1 1s      1 1s      1 1s      1 1s      1 1s
                                   1 1s      1 1s      1 1s      1 1s      1 1s      1 1s      1 1s      1 1s      1 1s      1 1s
                                   1 1s      1 1s      1 2pz     1 2pz     1 2pz     1 2pz     1 2pz     1 2pz     1 2pz     1 2pz
                                   1 2pz     1 2pz     1 2pz     1 2pz     1 2pz     1 2pz     1 2pz     1 2pz     1 2pz     1 2pz
                                   1 2pz     1 2pz     1 2pz     1 2pz     1 2pz     1 2pz     1 2pz     1 2pz     1 2pz     1 2pz
                                   1 2pz     1 2pz     1 3d0     1 3d2+    1 3d0     1 3d2+    1 3d0     1 3d2+    1 3d0     1 3d2+
                                   1 3d0     1 3d2+    1 3d0     1 3d2+    1 3d0     1 3d2+    1 3d0     1 3d2+    1 3d0     1 3d2+
                                   1 3d0     1 3d2+    1 3d0     1 3d2+    1 3d0     1 3d2+    1 3d0     1 3d2+    1 3d0     1 3d2+
                                   1 3d0     1 3d2+    1 3d0     1 3d2+    1 3d0     1 3d2+    1 3d0     1 3d2+    1 3d0     1 3d2+
                                   1 3d0     1 3d2+    1 3d0     1 3d2+    1 3d0     1 3d2+    1 4f0     1 4f2+    1 4f0     1 4f2+
                                   1 4f0     1 4f2+    1 4f0     1 4f2+    1 4f0     1 4f2+    1 4f0     1 4f2+    1 4f0     1 4f2+
                                   1 4f0     1 4f2+    1 4f0     1 4f2+    1 4f0     1 4f2+    1 4f0     1 4f2+    1 4f0     1 4f2+
                                   1 4f0     1 4f2+    1 4f0     1 4f2+    1 5g0     1 5g4+    1 5g2+    1 5g0     1 5g4+    1 5g2+
                                   1 5g0     1 5g4+    1 5g2+    1 5g0     1 5g4+    1 5g2+    1 5g0     1 5g4+    1 5g2+    1 5g0
                                   1 5g4+    1 5g2+    1 5g0     1 5g4+    1 5g2+    1 5g0     1 5g4+    1 5g2+    1 5g0     1 5g4+
                                   1 5g2+    1 6h2+    1 6h4+    1 6h0     1 6h2+    1 6h4+    1 6h0     1 6h2+    1 6h4+    1 6h0
                                   2 1s      2 1s      2 1s      2 1s      2 1s      2 1s      2 1s      2 1s      2 1s      2 1s
                                   2 1s      2 1s      2 1s      2 2pz     2 2pz     2 2pz     2 2pz     2 2pz     2 2pz     2 2pz
                                   2 2pz     2 3d0     2 3d2+    2 3d0     2 3d2+    2 3d0     2 3d2+    2 3d0     2 3d2+    2 4f0
                                   2 4f2+    2 4f0     2 4f2+

   1.1   2    -2.4850  -13.9772 -0.000000  0.000000 -0.000000  0.000001  0.000006  0.000017  0.000037  0.000083 -0.000034  0.000126
                                -0.001389 -0.011013 -0.003438  0.012614  0.108771 -0.016566  0.302795  0.033526 -0.015935 -0.000002
                                -0.000010 -0.000030 -0.000085  0.002642  0.011195 -0.071440 -0.323593 -0.278838  0.023676  0.000767
                                -0.000360  0.000110  0.000000 -0.000000  0.000000 -0.000000  0.000000 -0.000001  0.000001 -0.000004
                                 0.000016 -0.000139 -0.001449 -0.001937 -0.015754 -0.000960 -0.032364 -0.057002 -0.113049  0.030418
                                -0.075386  0.000548  0.002044  0.011709  0.010070  0.008410  0.041365  0.017539  0.078377 -0.050033
                                -0.004467  0.000791 -0.000000 -0.000000  0.000000  0.000000 -0.000000 -0.000000  0.000000  0.000000
                                 0.000005 -0.000003  0.000266 -0.000026 -0.002903  0.000065  0.001506 -0.000061 -0.009575  0.000023
                                -0.027804 -0.000177 -0.000024  0.000007 -0.000838  0.000050  0.002702 -0.000080  0.006308  0.000099
                                 0.003641  0.000018 -0.051431 -0.000044  0.027655  0.000013 -0.021587 -0.000006  0.012032  0.000003
                                -0.002986 -0.000001  0.001160  0.000000 -0.000310 -0.000000  0.000000 -0.000000 -0.000004  0.000000
                                 0.000036 -0.000000  0.000122 -0.000001 -0.001538  0.000006 -0.002939  0.000003 -0.004339  0.000046
                                 0.000659 -0.000002  0.002571 -0.000011 -0.017548  0.000022 -0.004017  0.000014  0.003653 -0.000005
                                -0.000860  0.000002  0.000566 -0.000001 -0.000045  0.000001 -0.000001  0.000091 -0.000021  0.000002
                                -0.000304 -0.000058 -0.000015 -0.000512  0.000156 -0.000023 -0.000886 -0.000034  0.000012 -0.002031
                                -0.000035 -0.000004 -0.001970 -0.000004  0.000009  0.001154  0.000000 -0.000000  0.000400 -0.000000
                                 0.000000  0.000001  0.000010  0.000004 -0.000008 -0.000093 -0.000072 -0.000021  0.000072 -0.000198
                                 0.000001 -0.000008  0.000059 -0.000348  0.002600 -0.083685  0.091834 -0.433800 -0.692677  0.083730
                                 0.102838  0.133920  0.142838 -0.000830 -0.000979 -0.048977 -0.092233 -0.090182 -0.024025 -0.008386
                                 0.000186  0.004222  0.000050  0.003287  0.000025  0.017048 -0.000013 -0.000321  0.000012 -0.000018
                                 0.000008  0.000524 -0.000001

   2.1   2    -1.7935  -13.6158  0.000000 -0.000000  0.000001 -0.000024 -0.000103 -0.000321 -0.000675 -0.001490  0.000590 -0.002047
                                 0.022360  0.055016  0.111581 -0.058171 -0.142390  0.185193 -0.591807 -0.068137  0.012817  0.000041
                                 0.000186  0.000547  0.001542 -0.033551 -0.090775  0.040206  0.717047  0.314663 -0.015953 -0.000713
                                 0.000196 -0.000021 -0.000000  0.000000 -0.000001  0.000002 -0.000003  0.000004 -0.000009  0.000025
                                -0.000103  0.000956  0.010667  0.015189  0.097944  0.143523  0.043574  0.249377  0.299642 -0.170537
                                 0.091127 -0.003895 -0.015500 -0.078623 -0.128922 -0.082748 -0.053273 -0.023217 -0.098423  0.065231
                                 0.005879 -0.001014  0.000001 -0.000000 -0.000008  0.000000  0.000033 -0.000000 -0.000173  0.000000
                                 0.003154 -0.000004  0.027982 -0.000039 -0.055046  0.000106  0.013507 -0.000083 -0.045041  0.000006
                                 0.125300 -0.000062 -0.007483  0.000010 -0.052628  0.000077  0.077440 -0.000129  0.010822  0.000107
                                 0.039640  0.000089  0.110617 -0.000041 -0.088411  0.000020  0.021590 -0.000011 -0.012040  0.000006
                                 0.003390 -0.000002 -0.001310  0.000001  0.000355 -0.000000  0.000001  0.000000 -0.000005 -0.000000
                                 0.000014  0.000000 -0.001740  0.000005 -0.009551  0.000015 -0.012002  0.000000  0.041003  0.000001
                                 0.002605 -0.000000  0.010216 -0.000009  0.044830  0.000021 -0.008873  0.000010 -0.009488 -0.000001
                                 0.002990  0.000000 -0.001026 -0.000000 -0.000110  0.000003 -0.000002  0.000145 -0.000034  0.000003
                                -0.000147 -0.000063 -0.000021 -0.002858  0.000220 -0.000027  0.018531  0.000026 -0.000012  0.009012
                                 0.000011 -0.000005 -0.000887 -0.000009  0.000008 -0.003944  0.000005  0.000000 -0.000051 -0.000002
                                 0.000000  0.000001  0.000020  0.000167 -0.000009 -0.000111 -0.000702 -0.000024  0.000098  0.002442
                                -0.000000  0.000003 -0.000019  0.000098 -0.000381 -0.003343  0.047434 -0.003261 -0.139315 -0.482746
                                -0.020995 -0.036310  0.003419  0.015886  0.148266  0.483903  0.577453  0.321182  0.013448  0.004384
                                -0.004184  0.030524 -0.000011  0.008276  0.000006 -0.062105 -0.000022  0.000904 -0.000004 -0.000487
                                -0.000028  0.005889  0.000008

   3.1   2     6.2125   -5.6018 -0.000000  0.000000 -0.000002  0.000036  0.000160  0.000496  0.001048  0.002327 -0.000933  0.003327
                                -0.035215 -0.169548 -0.322249  0.653428  1.549990 -0.348668 -1.290980 -0.743221 -0.258640 -0.000064
                                -0.000287 -0.000848 -0.002404  0.055241  0.291115 -1.869660  0.663900  1.542198  0.389860  0.011341
                                -0.003931  0.000841 -0.000000  0.000000 -0.000001  0.000002 -0.000003  0.000004 -0.000009  0.000024
                                -0.000100  0.000924  0.010153  0.014285  0.100811  0.126887  0.406961  0.161365 -0.055841  0.065453
                                 0.017044 -0.003737 -0.014665 -0.078246 -0.126069 -0.164360 -0.382977  0.001166 -0.007454  0.000107
                                -0.000488  0.000102  0.000000  0.000066 -0.000002 -0.000345  0.000007  0.001449 -0.000036 -0.007748
                                 0.000683  0.144375  0.006364  1.334413 -0.013862 -2.845926  0.006104  1.178555  0.028744  4.149243
                                 0.021453  1.334825 -0.001639 -0.346057 -0.012302 -2.568019  0.018962  3.923268 -0.016641 -2.941419
                                -0.030997 -2.700776  0.003791 -1.192269  0.002142  1.047828  0.018008 -0.660479 -0.008705  0.367395
                                 0.002172 -0.128738 -0.000818  0.053684  0.000221 -0.015163  0.000000 -0.000138 -0.000001  0.000998
                                -0.000002 -0.002101 -0.000506  0.336215 -0.002039  1.521135 -0.001888  1.571210 -0.002504 -1.627456
                                 0.000568 -0.459818  0.001759 -1.468398  0.007521  1.338626 -0.001130 -0.743251  0.004322  0.507065
                                -0.001744 -0.257597  0.000362  0.083304  0.000009 -0.000005  0.002958 -0.000049  0.000024 -0.002839
                                 0.000128 -0.000062  0.021367 -0.000205  0.000299  0.024193 -0.001769 -0.000638  0.199932  0.003525
                                 0.000480 -0.197700 -0.001626 -0.000274  0.155975  0.001276  0.000129 -0.054924 -0.000362 -0.000041
                                 0.017245  0.001088  0.000006 -0.000015 -0.003701  0.000034  0.000100  0.039472  0.000037 -0.000501
                                 0.000000 -0.000000  0.000001 -0.000004  0.000027 -0.000491 -0.002053 -0.004063  0.000239 -0.030179
                                -0.110905  0.002815  0.001071  0.000005  0.000041  0.001003 -0.004924  0.019887  0.019059  0.000088
                                -0.000000 -0.001149  0.040062  0.007902 -0.014686 -0.003998 -0.087270  0.000002  0.001436 -0.001411
                                -0.135774 -0.002379  0.071997

   4.1   2     6.7960   -2.6351 -0.000002  0.000014 -0.000071  0.001312  0.005750  0.017847  0.037651  0.083516 -0.033353  0.117435
                                -1.221673 -5.289177 -9.147796 20.181294 70.168638-19.025158-40.437376-17.803864 -6.866426 -0.002295
                                -0.010341 -0.030486 -0.086295  1.892027  8.701300-75.543499 27.353622 44.038020 10.354433  0.301155
                                -0.104444  0.022357 -0.000002  0.000006 -0.000026  0.000077 -0.000104  0.000136 -0.000294  0.000843
                                -0.003461  0.031956  0.354322  0.511541  3.981455  6.089848 19.594005  0.270930  2.871743  1.217803
                                 3.171467 -0.129683 -0.515773 -3.009359 -5.700046 -9.516609-12.310047 -0.202712 -1.558174  0.750163
                                 0.041455 -0.006226 -0.000016 -0.000000  0.000085  0.000000 -0.000355 -0.000001  0.001869  0.000006
                                -0.033268 -0.000103 -0.274657 -0.000963  0.409931  0.002077 -0.010915 -0.000807 -0.101265 -0.002597
                                -3.015345 -0.000935  0.077652  0.000247  0.491102  0.001861 -0.639191 -0.002859 -0.213444  0.001812
                                 1.759307  0.002065  4.004213  0.000804 -2.016727 -0.000593  2.453102  0.000364 -0.761897 -0.000203
                                 0.226137  0.000073 -0.089689 -0.000031  0.024797  0.000009 -0.000129 -0.000000  0.000933  0.000002
                                -0.001860 -0.000010  0.321065  0.000390  1.468169  0.002128  1.510065  0.002114 -1.652212 -0.002089
                                -0.443127 -0.000735 -1.430951 -0.002283  0.772044  0.001587  0.048860 -0.000910  0.343894  0.000619
                                 0.041083 -0.000316 -0.012754  0.000103 -0.006414 -0.000000 -0.000000  0.034085  0.000016  0.000009
                                -0.098021  0.000001 -0.000018  0.345064  0.000178  0.000173 -0.688055 -0.000587 -0.000008  0.045070
                                 0.000475 -0.000089  0.154841 -0.000266  0.000080 -0.077271  0.000126 -0.000016  0.088981 -0.000040
                                 0.000004  0.000005 -0.000124  0.003815  0.000007 -0.000168 -0.017815 -0.000001  0.001657  0.134221
                                -0.000002  0.000019 -0.000137  0.000805 -0.005184  0.091985  0.358384  0.181674  1.900845 -4.370548
                                -6.481040 -0.437521 -0.198032 -0.007531 -0.089948 -0.282666 -0.483786  1.880446 -0.106494  0.014492
                                 0.002084  0.308099  0.000008 -0.873026  0.000039  0.113558 -0.000068 -0.009325  0.000004  0.717129
                                -0.000118  0.101914  0.000005

   5.1   +     0.3540   -6.3773  0.000000 -0.000000  0.000001 -0.000022 -0.000096 -0.000296 -0.000618 -0.001339  0.000506 -0.001577
                                 0.022677 -0.101643  0.181055 -0.458457 -2.656963  0.675831-34.344661-43.690001-60.940684  0.000038
                                 0.000172  0.000504  0.001395 -0.030719  0.121345  2.497293 13.674334 33.785818 73.362667  7.781353
                                -3.888624  0.945230 -0.000000  0.000001 -0.000002  0.000007 -0.000009  0.000012 -0.000025  0.000073
                                -0.000298  0.002732  0.029758  0.040852  0.249236  0.363081  1.362799  2.053903  1.841877 -8.772076
                                -2.364282 -0.011015 -0.042663 -0.201952 -0.319963 -0.453089 -1.751573  4.343660  7.470124 -7.592276
                                -1.241398  0.175146  0.000002 -0.000000 -0.000011  0.000000  0.000045 -0.000001 -0.000241  0.000003
                                 0.004465 -0.000060  0.040800 -0.000554 -0.086513  0.001219  0.035476 -0.000538  0.161184 -0.001341
                                 0.512915 -0.000206 -0.010666  0.000143 -0.078184  0.001066  0.119080 -0.001646 -0.089872  0.001032
                                -0.177540  0.001245  0.442717  0.004141 -3.101454 -0.003883  1.035558  0.007268  0.324735 -0.011377
                                 1.008816  0.019917 -1.260005 -0.021149  0.527071  0.008050  0.000002 -0.000000 -0.000016  0.000000
                                 0.000128 -0.000000 -0.000679  0.000011 -0.007251  0.000055 -0.002151  0.000029  0.003693 -0.000121
                                 0.003630 -0.000019  0.008398 -0.000053  0.085506  0.000382 -0.679694  0.001533  0.203054 -0.002254
                                 0.851253  0.002948 -0.404523  0.000772  0.000138  0.000009 -0.000003 -0.000601 -0.000072  0.000000
                                 0.001511 -0.000053 -0.000028 -0.002153  0.000717 -0.000019 -0.002698 -0.001211  0.000055  0.005539
                                -0.000276 -0.000171 -0.096144 -0.000474  0.001100 -0.036003  0.000116 -0.001410  0.241710 -0.000063
                                 0.001587  0.000000 -0.000034 -0.000111 -0.000002 -0.000010  0.000501  0.000002 -0.000048 -0.002766
                                 0.000000 -0.000002  0.000012 -0.000066  0.000324  0.001123 -0.050841  0.017473  0.299444 -0.640087
                                14.648529  0.032489  0.001124 -0.003093 -0.030483 -0.117333 -0.070089  2.619924 -6.197481 -0.001946
                                 0.000781 -0.057959 -0.000207 -0.231434 -0.000732 -1.336318 -0.002775 -0.003485 -0.000011 -0.020502
                                -0.000058 -0.091185 -0.000649

   6.1   +     2.2259   -4.4679  0.000001 -0.000004  0.000023 -0.000427 -0.001873 -0.005811 -0.012252 -0.027154  0.010836 -0.038193
                                 0.398130  1.845654  3.286445 -6.347556-18.452492 13.454572 64.142729 40.712497 15.022072  0.000748
                                 0.003368  0.009924  0.028064 -0.620490 -3.104148 19.710681-27.511207-95.058951-22.344660 -0.674895
                                 0.233610 -0.049839  0.000000 -0.000002  0.000006 -0.000019  0.000025 -0.000033  0.000072 -0.000205
                                 0.000837 -0.007679 -0.083866 -0.116690 -0.809451 -0.991123 -4.709944 -1.890695  1.754747-10.090668
                                -4.380925  0.030983  0.120624  0.630381  0.990886  1.482230  5.625414  0.251661  2.611784 -1.108151
                                -0.042268  0.005315 -0.000003  0.000095  0.000017 -0.000493 -0.000071  0.002066  0.000380 -0.011012
                                -0.007141  0.203856 -0.067422  1.862247  0.151969 -3.872314 -0.076253  1.525123 -0.546780  5.055796
                                 0.027728  6.080803  0.017200 -0.487092  0.131372 -3.561526 -0.205683  5.378115  0.261024 -3.604653
                                 0.752821 -4.324624 -1.617441 -9.131069 -1.925103  8.911325 -2.530065 -5.890394  0.964447  3.287615
                                -0.217420 -1.142782  0.078559  0.472175 -0.020834 -0.132008  0.000000  0.000049 -0.000000 -0.000366
                                -0.000014  0.002763 -0.000838 -0.027517 -0.005393 -0.224906 -0.015323 -0.182016  0.274223  0.557890
                                 0.001041  0.097754  0.007773  0.267769 -0.571423 -0.802467 -0.980668  0.950431 -0.530826 -0.629299
                                 0.118256  0.323817 -0.016213 -0.104642 -0.000040 -0.000009  0.002992  0.000098  0.000045 -0.011590
                                -0.000184 -0.000108  0.034038 -0.004799  0.000329 -0.094253  0.088650 -0.000114  0.275635 -0.163206
                                 0.001591 -0.443499 -0.190583 -0.001735  0.508797 -0.173551  0.000947 -0.226142  0.014406 -0.000301
                                 0.080114  0.000650 -0.000000  0.000304 -0.002609 -0.000011 -0.001320  0.013530  0.000049  0.009174
                                -0.000000  0.000004 -0.000028  0.000163 -0.001022  0.016762  0.070032  0.105244  0.224615  2.953932
                                18.071038 -0.090089 -0.035781  0.001477  0.018748 -0.009500  0.050257  1.626655 -2.368596 -0.010710
                                -0.000517 -0.012662  0.006309 -0.429882  0.060934 -1.216808 -0.322937 -0.001904  0.000368  0.005680
                                -0.016413  0.424592  0.219318

   7.1   +     4.9406   -1.6320  0.000006 -0.000035  0.000184 -0.003377 -0.014809 -0.045973 -0.097059 -0.215699  0.086535 -0.309852
                                 3.312409 16.329367 34.605054-85.668951********** 37.353298 33.718640 27.979778  7.411489  0.005909
                                 0.026632  0.078553  0.222723 -5.218485-28.700864299.671521 -2.949994-69.724689-10.690998 -0.367613
                                 0.131249 -0.028474 -0.000001  0.000002 -0.000009  0.000026 -0.000035  0.000046 -0.000099  0.000284
                                -0.001165  0.010755  0.119795  0.176111  1.485359  2.585552 42.630230 25.204634  9.437525-12.957201
                                -1.690700 -0.043695 -0.175341 -1.098125 -2.296166-10.031406-53.589050  0.489238  3.188947 -1.680883
                                -0.106856  0.016823  0.000131  0.000000 -0.000684 -0.000000  0.002875  0.000001 -0.015399 -0.000006
                                 0.288426  0.000110  2.703969  0.001011 -6.004381 -0.002102  2.816878  0.000756 15.272942  0.002280
                                11.405916 -0.000748 -0.693510 -0.000263 -5.248145 -0.001939  8.161557  0.002929 -8.392173 -0.001730
                               -16.548911 -0.000926  3.780953 -0.000279 -5.274754  0.002212  0.129789 -0.001301  0.815107  0.000710
                                -0.136577 -0.000247  0.043578  0.000103 -0.010961 -0.000029  0.000038 -0.000000 -0.000302  0.000000
                                 0.004298 -0.000002  0.073646  0.000052  0.184764  0.000281  0.460384  0.000264 -2.514247  0.000059
                                 0.005575 -0.000104 -0.137067 -0.000298  5.755385 -0.002406 -2.093151  0.002744  0.380067 -0.000866
                                 0.205739  0.000354 -0.020707 -0.000105  0.001332 -0.000204 -0.000036 -0.001862  0.000771  0.000142
                                 0.003194 -0.002487 -0.000433  0.156207  0.006276  0.001125 -1.537344 -0.019712 -0.002819  2.680764
                                 0.018011 -0.000537 -0.920548 -0.010695  0.000412  0.047101  0.005063  0.000852  0.122291 -0.001603
                                -0.000279 -0.000003 -0.000219 -0.006267  0.000022  0.000081  0.027167 -0.000097 -0.000623 -0.181377
                                -0.000003  0.000032 -0.000231  0.001350 -0.008592  0.156890  0.456071  0.765684 -4.085495-12.311979
                                17.218129 -0.629536 -0.325343 -0.006540 -0.094104  0.119653 -1.314901  7.297872 -5.394927  0.046176
                                 0.002163 -0.490412 -0.005236  3.965615  0.006261 -1.304831 -0.003456 -0.011613 -0.000067 -0.777544
                                -0.000632 -1.218101 -0.001247

   8.1   0    -0.6213   -6.6236 -0.000000  0.000000 -0.000001  0.000023  0.000103  0.000319  0.000672  0.001486 -0.000591  0.002069
                                -0.021958 -0.083733 -0.154490  0.233737  0.721831 -0.409548  1.781798 -0.072328  0.393561 -0.000041
                                -0.000185 -0.000544 -0.001537  0.033777  0.139989 -0.685968 -1.043314 -1.611906 -0.570928 -0.020032
                                 0.007479 -0.001690  0.000000 -0.000000  0.000001 -0.000003  0.000004 -0.000005  0.000011 -0.000033
                                 0.000134 -0.001227 -0.013436 -0.018746 -0.127098 -0.157872 -0.296838 -0.515758 -0.137480  0.050833
                                -0.938139  0.004957  0.019351  0.099842  0.155603  0.156424  0.319274  0.113947  0.507685 -0.317340
                                -0.029757  0.005287 -0.000001  0.000000  0.000006 -0.000000 -0.000024  0.000000  0.000125 -0.000000
                                -0.002300  0.000001 -0.020548  0.000011  0.040112 -0.000029 -0.011950  0.000019  0.001463  0.000019
                                -0.192567 -0.000082  0.005467 -0.000003  0.038759 -0.000021 -0.056902  0.000036  0.013954 -0.000025
                                -0.017461 -0.000036 -0.073554  0.000029  0.113255  0.000007 -0.335555 -0.000024  0.005621  0.000015
                                -0.002947 -0.000006  0.001582  0.000002 -0.000477 -0.000001 -0.000000 -0.000000  0.000002  0.000000
                                -0.000019 -0.000000  0.000189 -0.000000  0.002180  0.000004  0.003285  0.000004 -0.040753 -0.000015
                                -0.000772 -0.000003 -0.003010 -0.000006 -0.061230 -0.000010  0.033878  0.000061 -0.062904 -0.000048
                                -0.033025  0.000025  0.008429 -0.000008  0.000010 -0.000000  0.000000  0.000000  0.000005 -0.000000
                                -0.000112  0.000010  0.000003  0.001111 -0.000059  0.000001 -0.015995  0.000090 -0.000003 -0.009128
                                 0.000024 -0.000023 -0.005344  0.000021  0.000054  0.008942 -0.000006 -0.000034 -0.016123  0.000003
                                 0.000010 -0.000000  0.000003 -0.000099  0.000001  0.000007  0.000389 -0.000000  0.000002 -0.002168
                                 0.000001 -0.000006  0.000045 -0.000264  0.001755 -0.044334 -0.021045 -0.291386 -0.459734  1.045770
                                 1.597924  0.126119  0.083510 -0.004854 -0.044426 -0.181245 -0.222907  0.168143  0.288462 -0.004727
                                 0.001247  0.005381  0.000022  0.133039  0.000006  0.301334 -0.000105  0.000899  0.000007  0.000537
                                 0.000012  0.005991 -0.000019

   9.1   0    -0.2718   -6.9229 -0.000000  0.000001 -0.000003  0.000059  0.000260  0.000807  0.001701  0.003766 -0.001501  0.005273
                                -0.054875 -0.241327 -0.396294  0.723078  2.566019 -1.835592  8.761584  2.395940  4.459315 -0.000104
                                -0.000468 -0.001378 -0.003893  0.085246  0.393821 -2.493912 -3.446727 -2.166719 -6.676613 -0.211692
                                 0.077845 -0.017319  0.000000 -0.000001  0.000002 -0.000007  0.000010 -0.000013  0.000027 -0.000078
                                 0.000319 -0.002928 -0.032002 -0.044421 -0.299002 -0.356054 -0.847173 -1.592600  0.207691  2.426778
                                -2.289423  0.011820  0.046010  0.235129  0.357491  0.373146  0.978551  0.016329 -0.159417  0.055531
                                -0.012141  0.003246 -0.000002 -0.000000  0.000009  0.000000 -0.000038 -0.000000  0.000202  0.000000
                                -0.003703 -0.000007 -0.032995 -0.000064  0.065247  0.000145 -0.019715 -0.000076 -0.006829 -0.000175
                                -0.350823  0.000188  0.008794  0.000016  0.062192  0.000123 -0.091718 -0.000192  0.017208  0.000143
                                 0.009872  0.000166  0.331464 -0.000177  0.613377  0.000076 -1.242058  0.000130 -0.371371 -0.000017
                                 0.077280  0.000007 -0.025464 -0.000002  0.007069  0.000001 -0.000002  0.000000  0.000016 -0.000000
                                -0.000060  0.000000  0.003966 -0.000001  0.019231 -0.000022  0.017789 -0.000008 -0.065991  0.000097
                                -0.006158  0.000011 -0.018848  0.000029  0.019513 -0.000051  0.282115 -0.000152 -0.500436  0.000230
                                -0.175070 -0.000055  0.038179  0.000022 -0.000047 -0.000001 -0.000000  0.000420 -0.000001  0.000000
                                -0.001353 -0.000039 -0.000003  0.005227  0.000152 -0.000001 -0.022430 -0.000482  0.000042  0.014937
                                -0.000182  0.000021  0.031235 -0.000153 -0.000105 -0.023962  0.000045  0.000097 -0.105968 -0.000018
                                 0.000023  0.000000 -0.000025 -0.000049 -0.000000  0.000007  0.000207  0.000003 -0.000067 -0.000384
                                -0.000000  0.000001 -0.000010  0.000064 -0.000539  0.021691 -0.024439  0.149130  0.285874 -0.128305
                                -2.013299 -0.035009 -0.039240 -0.003426 -0.036149 -0.095777 -0.105425 -1.021229  3.406074  0.004252
                                 0.000937  0.041702  0.000120  0.312670  0.000552  1.152780  0.000939  0.003549  0.000006  0.013421
                                 0.000014  0.071051  0.000121

                                   1 2px     1 2px     1 2px     1 2px     1 2px     1 2px     1 2px     1 2px     1 2px     1 2px
                                   1 2px     1 2px     1 2px     1 2px     1 2px     1 2px     1 2px     1 2px     1 2px     1 2px
                                   1 2px     1 2px     1 2px     1 2px     1 2px     1 2px     1 2px     1 2px     1 2px     1 2px
                                   1 3d1+    1 3d1+    1 3d1+    1 3d1+    1 3d1+    1 3d1+    1 3d1+    1 3d1+    1 3d1+    1 3d1+
                                   1 3d1+    1 3d1+    1 3d1+    1 3d1+    1 3d1+    1 3d1+    1 3d1+    1 3d1+    1 3d1+    1 3d1+
                                   1 3d1+    1 3d1+    1 4f1+    1 4f3+    1 4f1+    1 4f3+    1 4f1+    1 4f3+    1 4f1+    1 4f3+
                                   1 4f1+    1 4f3+    1 4f1+    1 4f3+    1 4f1+    1 4f3+    1 4f1+    1 4f3+    1 4f1+    1 4f3+
                                   1 4f1+    1 4f3+    1 4f1+    1 4f3+    1 4f1+    1 4f3+    1 4f1+    1 4f3+    1 4f1+    1 4f3+
                                   1 5g1+    1 5g3+    1 5g1+    1 5g3+    1 5g1+    1 5g3+    1 5g1+    1 5g3+    1 5g1+    1 5g3+
                                   1 5g1+    1 5g3+    1 5g1+    1 5g3+    1 5g1+    1 5g3+    1 5g1+    1 5g3+    1 6h1+    1 6h3+
                                   1 6h5+    1 6h1+    1 6h3+    1 6h5+    1 6h1+    1 6h3+    1 6h5+    2 2px     2 2px     2 2px
                                   2 2px     2 2px     2 2px     2 2px     2 2px     2 3d1+    2 3d1+    2 3d1+    2 3d1+    2 4f1+
                                   2 4f3+    2 4f1+    2 4f3+

   1.2   2     6.2451   -3.2203 -0.000003  0.000013 -0.000055  0.000165 -0.000221  0.000289 -0.000626  0.001790 -0.007338  0.067492
                                 0.741014  1.040748  7.336137  9.177307 26.575658  8.804480 -6.101227  3.339019 -1.819193 -0.272910
                                -1.069444 -5.695045 -9.141238-11.533125-22.910289  0.888204  3.098898 -2.311696 -0.235420  0.041569
                                -0.000030  0.000154 -0.000645  0.003442 -0.063921 -0.585905  1.219790 -0.474105 -1.519359 -0.357119
                                 0.152935  1.122418 -1.697353  1.168139  0.672438 -0.849469 -0.223749  0.840682 -0.077606  0.029544
                                -0.012559  0.003583  0.000079  0.000027 -0.000562 -0.000192  0.000004  0.000247 -0.244122 -0.072286
                                -1.031986 -0.317107 -1.077475 -0.329243  0.969373  0.349487  0.295993  0.093690  0.954369  0.300302
                                -1.200770 -0.281460 -0.043973  0.168723  0.108875 -0.111444  0.143351  0.056419 -0.041968 -0.018227
                                -0.012886 -0.000780  0.043333  0.001659 -0.146604 -0.007219  0.367436  0.007616 -1.311598 -0.058889
                                 0.976202  0.051736 -0.870536 -0.030167  0.349562  0.013581 -0.041536 -0.004175 -0.001480 -0.000143
                                -0.000164  0.006914  0.000230 -0.000182 -0.039712 -0.002632 -0.001316  0.001175  0.016699 -0.052306
                                 0.143897  1.674398 -1.277125 -0.015341 -0.000499 -0.059816 -0.325097 -0.322714 -0.004800  0.555518
                                -0.004244 -0.191155  0.003406

   2.2   2     6.2829   -5.6146 -0.000001  0.000003 -0.000012  0.000037 -0.000050  0.000065 -0.000142  0.000406 -0.001663  0.015271
                                 0.166848  0.234324  1.655052  2.079619  6.123920  1.964185 -1.328084  0.737673 -0.353187 -0.061588
                                -0.240651 -1.284340 -2.066672 -2.653128 -5.257839  0.193497  0.666214 -0.501437 -0.051401  0.009086
                                -0.000006  0.000030 -0.000127  0.000676 -0.012533 -0.114438  0.235467 -0.087847 -0.254987 -0.097802
                                 0.029960  0.218730 -0.329090  0.208382  0.089114 -0.146740 -0.074786  0.222092 -0.020796  0.007685
                                -0.003237  0.000919  0.000015 -0.000124 -0.000106  0.000898 -0.000077 -0.001280 -0.049285  0.330385
                                -0.204709  1.458653 -0.214270  1.517511  0.154307 -1.578193  0.058042 -0.433127  0.186914 -1.387533
                                -0.232937  1.269206 -0.019526 -0.760530  0.037192  0.502495  0.032307 -0.254464 -0.009245  0.082230
                                -0.003013  0.003044  0.010354 -0.005442 -0.034872  0.026972  0.091150 -0.015758 -0.325500  0.220610
                                 0.229266 -0.197056 -0.193506  0.115659  0.076726 -0.051597 -0.006544  0.015756 -0.000606  0.000054
                                 0.000005  0.001500 -0.000885 -0.000078 -0.009385  0.012986  0.000232  0.000163  0.002754 -0.018454
                                 0.059228  0.355851 -0.332953 -0.003516 -0.000086 -0.010360 -0.111904 -0.056919 -0.001212  0.141127
                                 0.020567 -0.034020 -0.016685

   3.2   +     3.7154   -5.3046  0.000000 -0.000001  0.000003 -0.000008  0.000010 -0.000013  0.000029 -0.000082  0.000336 -0.003099
                                -0.034316 -0.047810 -0.327833 -0.403611 -1.226628 -0.793615  0.514073 -0.370957  0.047978  0.012601
                                 0.049438  0.256266  0.401458  0.492880  1.254907 -0.087709 -0.283879  0.223745  0.023400 -0.004138
                                 0.000006 -0.000033  0.000138 -0.000737  0.013690  0.125900 -0.267555  0.110122  0.377102  0.100813
                                -0.032763 -0.241732  0.368498 -0.257987 -0.318581 -0.164045  0.192432 -0.271805  0.056635 -0.020176
                                 0.008444 -0.002383 -0.000003  0.000153  0.000026 -0.001170 -0.000237  0.010225  0.000383 -0.025724
                                 0.011672 -0.531009  0.009426 -0.386021 -0.083879  1.971366 -0.006084  0.275214 -0.016793  0.734310
                                 0.004810 -2.000313  0.037584  1.285062 -0.063018 -0.846420 -0.012511  0.423589  0.002702 -0.135650
                                 0.000233  0.004406 -0.001004 -0.015068  0.002692  0.048897 -0.007271 -0.124694  0.005876  0.459395
                                -0.081398 -0.429374  0.074431  0.280352 -0.029586 -0.142332 -0.006164  0.046792 -0.000195  0.000915
                                 0.000017  0.000046 -0.004562  0.000022 -0.001586  0.026072 -0.000013  0.000353  0.005946 -0.036675
                                 0.106335 -0.023736  0.304775 -0.007813 -0.000193 -0.012355 -0.062316 -0.048482 -0.000627 -0.020035
                                 0.041205  0.057532 -0.008376

   4.2   +     4.3044   -3.1612 -0.000001  0.000005 -0.000022  0.000065 -0.000087  0.000114 -0.000247  0.000705 -0.002889  0.026506
                                 0.289195  0.401019  2.691862  3.252480  8.026391  2.885034  0.856503  1.642474 -1.328402 -0.106902
                                -0.415620 -2.118121 -3.234088 -3.548508 -7.511479  0.538747  1.943510 -1.423174 -0.141076  0.024711
                                -0.000200  0.001040 -0.004369  0.023337 -0.433891 -3.999239  8.524688 -3.509105-11.920600 -7.365812
                                 1.039009  7.687191-11.735769  8.228318 10.102603 10.128392 -6.461178  4.033106 -2.060987  0.716444
                                -0.298078  0.083916 -0.000102 -0.000000  0.000781  0.000001 -0.007095 -0.000023  0.005119 -0.000613
                                 0.319112 -0.001634  0.221122 -0.001854 -1.392434 -0.000173 -0.176379  0.000108 -0.467536  0.000913
