
 Primary working directories    : /global/cscratch1/sd/haihan
 Secondary working directories  : /global/cscratch1/sd/haihan
 Wavefunction directory         : /global/homes/h/haihan/wfu/
 Main file repository           : /global/cscratch1/sd/haihan/

 SHA1      : 19cd028119e0e09f93f0674bd8af7968d9b3eff6
 NAME      : 2015.1.36
 ARCHNAME  : linux/x86_64
 FC        : /opt/cray/pe/craype/2.5.14/bin/ftn
 BLASLIB   : -L/opt/intel/compilers_and_libraries_2018.1.163/linux/mkl/lib/intel64 -Wl,-_start-group -lmkl_intel_ilp64 -lmkl_intel_thread -lmkl_core -Wl,-_end-group -liomp5
 id        : lbl

 Nodes     nprocs
 nid00247     5
 Number of processes for MPI-2 version of Molpro:   nprocs(total)=    6   nprocs(compute)=    5   nprocs(helper)=    1

 Using customized tuning parameters: mindgm=7; mindgv=16; mindgc=1; mindgr=1; noblas=0; minvec=7
 default implementation of scratch files=sf  

 ***,Calculation for Gd atom, singlet and triplet
 memory,2,g
 
 gthresh,twoint=1.e-15
 gthresh,oneint=1.e-15
 
 set,dkroll=1,dkho=10,dkhp=4
 
 geometry={
 1
 Gd
 Gd  0.0 0.0 0.0
 }
 
 basis={
 Including file /global/u2/h/haihan/Research/ECP/f_group_element_ecps/Gd/Molpro/atom/AE/dkh/test_small_basis_1/./aug-cc-pwCVTZ.basis
 }
 
 
 
 Including file /global/u2/h/haihan/Research/ECP/f_group_element_ecps/Gd/Molpro/atom/AE/dkh/test_small_basis_1/../Gd_states_ae.proc
 
 
 do i=1,1
     if (i.eq.1) then
         Id1f7s2
     else if (i.eq.2) then
         Id2f7s1
     else if (i.eq.3) then
 Ip1f7s2
     else if (i.eq.4) then
         EAd2f7s2
     else if (i.eq.5) then
         IId1f7s1
     else if (i.eq.6) then
         IIdf7s2
     else if (i.eq.7) then
         IIId1f7
     else if (i.eq.8) then
 IIIp1f7
     else if (i.eq.9) then
         IVdf7
     else if (i.eq.10) then
         Vdf6
     else if (i.eq.11) then
         VIdf5
     else if (i.eq.12) then
         VIIdf4
     endif
     scf(i)=energy
     _CC_NORM_MAX=2.0
     {rccsd(t),shifts=0.5,shiftp=0.5,thrdis=1.0;diis,1,1,15,1;maxit,100;core}
     ccsd(i)=energy
 enddo
 
 table,scf,ccsd
 type,csv
 save

 Variables initialized (889), CPU time= 0.01 sec
 Commands  initialized (702), CPU time= 0.01 sec, 572 directives.
 Default parameters read. Elapsed time= 0.18 sec

 Checking input...
 Passed
1


                                         ***  PROGRAM SYSTEM MOLPRO  ***
                                       Copyright, TTI GmbH Stuttgart, 2015
                                    Version 2015.1 linked Dec 29 2018 15:55:43


 **********************************************************************************************************************************
 LABEL *   Calculation for Gd atom, singlet and triplet                                  
  64 bit mpp version                                                                     DATE: 23-Nov-22          TIME: 19:00:46  
 **********************************************************************************************************************************

 SHA1:             19cd028119e0e09f93f0674bd8af7968d9b3eff6
 **********************************************************************************************************************************

 THRESHOLDS:

 ZERO    =  1.00D-12  ONEINT  =  1.00D-12  TWOINT  =  1.00D-15  PREFAC  =  1.00D-14  LOCALI  =  1.00D-09  EORDER  =  1.00D-04
 ENERGY  =  0.00D+00  ETEST   =  0.00D+00  EDENS   =  0.00D+00  THRDEDEF=  1.00D-06  GRADIENT=  1.00D-02  STEP    =  1.00D-03
 ORBITAL =  1.00D-05  CIVEC   =  1.00D-05  COEFF   =  1.00D-04  PRINTCI =  5.00D-02  PUNCHCI =  9.90D+01  OPTGRAD =  3.00D-04
 OPTENERG=  1.00D-06  OPTSTEP =  3.00D-04  THRGRAD =  1.00D-10  COMPRESS=  1.00D-11  VARMIN  =  1.00D-07  VARMAX  =  1.00D-03
 THRDOUB =  0.00D+00  THRDIV  =  1.00D-05  THRRED  =  1.00D-07  THRPSP  =  1.00D+00  THRDC   =  1.00D-10  THRCS   =  1.00D-10
 THRNRM  =  1.00D-08  THREQ   =  0.00D+00  THRDE   =  1.00D+00  THRREF  =  1.00D-05  SPARFAC =  1.00D+00  THRDLP  =  1.00D-07
 THRDIA  =  1.00D-10  THRDLS  =  1.00D-07  THRGPS  =  0.00D+00  THRKEX  =  0.00D+00  THRDIS  =  2.00D-01  THRVAR  =  1.00D-10
 THRLOC  =  1.00D-06  THRGAP  =  1.00D-06  THRLOCT = -1.00D+00  THRGAPT = -1.00D+00  THRORB  =  1.00D-06  THRMLTP =  0.00D+00
 THRCPQCI=  1.00D-10  KEXTA   =  0.00D+00  THRCOARS=  0.00D+00  SYMTOL  =  1.00D-06  GRADTOL =  1.00D-06  THROVL  =  1.00D-08
 THRORTH =  1.00D-08  GRID    =  1.00D-06  GRIDMAX =  1.00D-03  DTMAX   =  0.00D+00  THROCCDE=  1.00D-01  THROCCDE=  1.00D-01



 THRESHOLDS:

 ZERO    =  1.00D-12  ONEINT  =  1.00D-15  TWOINT  =  1.00D-15  PREFAC  =  1.00D-14  LOCALI  =  1.00D-09  EORDER  =  1.00D-04
 ENERGY  =  0.00D+00  ETEST   =  0.00D+00  EDENS   =  0.00D+00  THRDEDEF=  1.00D-06  GRADIENT=  1.00D-02  STEP    =  1.00D-03
 ORBITAL =  1.00D-05  CIVEC   =  1.00D-05  COEFF   =  1.00D-04  PRINTCI =  5.00D-02  PUNCHCI =  9.90D+01  OPTGRAD =  3.00D-04
 OPTENERG=  1.00D-06  OPTSTEP =  3.00D-04  THRGRAD =  1.00D-10  COMPRESS=  1.00D-11  VARMIN  =  1.00D-07  VARMAX  =  1.00D-03
 THRDOUB =  0.00D+00  THRDIV  =  1.00D-05  THRRED  =  1.00D-07  THRPSP  =  1.00D+00  THRDC   =  1.00D-10  THRCS   =  1.00D-10
 THRNRM  =  1.00D-08  THREQ   =  0.00D+00  THRDE   =  1.00D+00  THRREF  =  1.00D-05  SPARFAC =  1.00D+00  THRDLP  =  1.00D-07
 THRDIA  =  1.00D-10  THRDLS  =  1.00D-07  THRGPS  =  0.00D+00  THRKEX  =  0.00D+00  THRDIS  =  2.00D-01  THRVAR  =  1.00D-10
 THRLOC  =  1.00D-06  THRGAP  =  1.00D-06  THRLOCT = -1.00D+00  THRGAPT = -1.00D+00  THRORB  =  1.00D-06  THRMLTP =  0.00D+00
 THRCPQCI=  1.00D-10  KEXTA   =  0.00D+00  THRCOARS=  0.00D+00  SYMTOL  =  1.00D-06  GRADTOL =  1.00D-06  THROVL  =  1.00D-08
 THRORTH =  1.00D-08  GRID    =  1.00D-06  GRIDMAX =  1.00D-03  DTMAX   =  0.00D+00  THROCCDE=  1.00D-01  THROCCDE=  1.00D-01


 SETTING DKROLL         =         1.00000000                                  
 SETTING DKHO           =        10.00000000                                  
 SETTING DKHP           =         4.00000000                                  

Geometry recognized as XYZ


 Variable memory set to 2000000000 words,  buffer space   230000 words

 SETTING BASIS          =    USERDEF

 DO I                   =         1.00000000   

 Running procedure=ID1F7S2


 Recomputing integrals since basis changed


 Using spherical harmonics



 PROGRAM * SEWARD (Integral evaluation for generally contracted gaussian basis sets)     Author: Roland Lindh, 1990

 Geometry written to block  1 of record 700

 Orientation using atomic masses  
 Molecule type: Atom
 Symmetry elements: X,Y,Z
 Rotational constants:       0.0000000      0.0000000      0.0000000 GHz  (calculated with average atomic masses)

 Point group  D2h 



 ATOMIC COORDINATES

 NR  ATOM    CHARGE       X              Y              Z

   1  GD     64.00    0.000000000    0.000000000    0.000000000

 NUCLEAR CHARGE:                   64
 NUMBER OF PRIMITIVE AOS:         536
 NUMBER OF SYMMETRY AOS:          424
 NUMBER OF CONTRACTIONS:          424   ( 109Ag  +  61B3u +  61B2u +  40B1g +  61B1u +  40B2g +  40B3g +  12Au  )
 NUMBER OF CORE ORBITALS:          23   (   8Ag  +   3B3u +   3B2u +   2B1g +   3B1u +   2B2g +   2B3g +   0Au  )
 NUMBER OF VALENCE ORBITALS:       17   (   4Ag  +   3B3u +   3B2u +   1B1g +   3B1u +   1B2g +   1B3g +   1Au  )


 NUCLEAR REPULSION ENERGY    0.00000000

 One-electron integrals computed with SEWARD

 10nd-order Douglas-Kroll-Hess method activated. McWeeny DKH parametrization is used.

 Computing Douglas-Kroll / X2C integrals

 AO integral compression algorithm  1   Integral accuracy      1.0D-15

     3567.518 MB (compressed) written to integral file ( 46.1%)

     Node minimum: 585.368 MB, node maximum: 863.502 MB


 NUMBER OF SORTED TWO-ELECTRON INTEGRALS:  104376936.     BUFFER LENGTH:  32768
 NUMBER OF SEGMENTS:   4  SEGMENT LENGTH:   31999209      RECORD LENGTH: 524288

 Memory used in sort:      32.56 MW

 SORT1 READ   967471744. AND WROTE    62174468. INTEGRALS IN    180 RECORDS. CPU TIME:    19.03 SEC, REAL TIME:    21.89 SEC
 SORT2 READ   309508247. AND WROTE   521990041. INTEGRALS IN  13625 RECORDS. CPU TIME:     1.81 SEC, REAL TIME:     2.67 SEC

 Node minimum:   104349853.  Node maximum:   104487143. integrals

 OPERATOR DM      FOR CENTER  0  COORDINATES:    0.000000    0.000000    0.000000

 EXTRA SYMMETRY OF AOS IN SYMMETRY 1:   1 1 1 1 1 1 1 1 1 1   1 1 1 1 1 1 1 1 1 1   1 1 1 1 1 1 1 1 1 1   1 1 1 1 1 1 1 1 2 3
                                        2 3 2 3 2 3 2 3 2 3   2 3 2 3 2 3 2 3 2 3   2 3 2 3 2 3 2 3 2 3   2 3 2 3 2 3 2 3 2 3
                                        2 3 4 5 6 4 5 6 4 5   6 4 5 6 4 5 6 4 5 6   4 5 6 4 5 6 4 5 6
 EXTRA SYMMETRY OF AOS IN SYMMETRY 2:   1 1 1 1 1 1 1 1 1 1   1 1 1 1 1 1 1 1 1 1   1 1 1 1 1 1 1 1 1 1   1 1 1 1 1 1 1 2 3 2
                                        3 2 3 2 3 2 3 2 3 2   3 2 3 2 3 2 3 2 3 2   3
 EXTRA SYMMETRY OF AOS IN SYMMETRY 3:   1 1 1 1 1 1 1 1 1 1   1 1 1 1 1 1 1 1 1 1   1 1 1 1 1 1 1 1 1 1   1 1 1 1 1 1 1 2 3 2
                                        3 2 3 2 3 2 3 2 3 2   3 2 3 2 3 2 3 2 3 2   3
 EXTRA SYMMETRY OF AOS IN SYMMETRY 4:   1 1 1 1 1 1 1 1 1 1   1 1 1 1 1 1 1 1 1 1   1 1 2 3 2 3 2 3 2 3   2 3 2 3 2 3 2 3 2 3
 EXTRA SYMMETRY OF AOS IN SYMMETRY 5:   1 1 1 1 1 1 1 1 1 1   1 1 1 1 1 1 1 1 1 1   1 1 1 1 1 1 1 1 1 1   1 1 1 1 1 1 1 2 3 2
                                        3 2 3 2 3 2 3 2 3 2   3 2 3 2 3 2 3 2 3 2   3
 EXTRA SYMMETRY OF AOS IN SYMMETRY 6:   1 1 1 1 1 1 1 1 1 1   1 1 1 1 1 1 1 1 1 1   1 1 2 3 2 3 2 3 2 3   2 3 2 3 2 3 2 3 2 3
 EXTRA SYMMETRY OF AOS IN SYMMETRY 7:   1 1 1 1 1 1 1 1 1 1   1 1 1 1 1 1 1 1 1 1   1 1 2 3 2 3 2 3 2 3   2 3 2 3 2 3 2 3 2 3

 Eigenvalues of metric

         1 0.117E-06 0.313E-06 0.727E-06 0.727E-06 0.728E-06 0.135E-05 0.447E-05 0.619E-05
         2 0.616E-06 0.439E-05 0.139E-04 0.449E-04 0.885E-04 0.303E-03 0.501E-03 0.668E-03
         3 0.616E-06 0.439E-05 0.139E-04 0.449E-04 0.885E-04 0.303E-03 0.501E-03 0.668E-03
         4 0.727E-06 0.238E-04 0.149E-03 0.540E-03 0.926E-03 0.420E-02 0.882E-02 0.166E-01
         5 0.616E-06 0.439E-05 0.139E-04 0.449E-04 0.885E-04 0.303E-03 0.501E-03 0.668E-03
         6 0.727E-06 0.238E-04 0.149E-03 0.540E-03 0.926E-03 0.420E-02 0.882E-02 0.166E-01
         7 0.727E-06 0.238E-04 0.149E-03 0.540E-03 0.926E-03 0.420E-02 0.882E-02 0.166E-01
         8 0.876E-03 0.134E-01 0.211E-01 0.695E-01 0.151E+00 0.281E+00 0.564E+00 0.872E+00


 **********************************************************************************************************************************
 DATASETS  * FILE   NREC   LENGTH (MB)   RECORD NAMES
              1      22       21.92       500      610      700      900      950      970     1000      129      960     1700   
                                          VAR    BASINP    GEOM    SYMINP    ZMAT    AOBASIS   BASIS     P2S    ABASIS    OPER   
                                         1101     1401     1411     1412     1650     1100     1400     1410     1200     1210   
                                          SR      EKINR    POTR     PVPR    MOLCAS      S      EKIN      POT      H0       H01  
                                         1080     1600   
                                         AOSYM     SMH  

 PROGRAMS   *        TOTAL       INT
 CPU TIMES  *       253.86    253.49
 REAL TIME  *       260.78 SEC
 DISK USED  *         7.26 GB      
 GA USED    *         0.00 MB       (max)       0.00 MB       (current)
 **********************************************************************************************************************************

 Density functional group PBE0=PBEX+PBEC
 Functional: PBEX(Automatically generated (new) PBEX)                          Gradient terms: 1
 Functional: PBEC(Automatically generated (new) PBEC)                          Gradient terms: 1
 Use grid at  1800.2
 

 Exact exchange will be calculated, factor:  0.2500

 Functional: PBEX                      Factor:  0.7500
 Functional: PBEC                      Factor:  1.0000
 
 Generated new metagrid on record  1800.2 with target accuracy 1.0D-06 and 780 points in CPU time    0.0
 Computed new grid on record 1800.1 in CPU time    0.0
  338515 words reserved for DFT integration

 PROGRAM * RKS-SCF (Restricted open shell Kohn-Sham)     Authors: W. Meyer, H.-J. Werner, P.J. Knowles, 1993

 NUMBER OF ELECTRONS:      36+   28-    SPACE SYMMETRY=8    SPIN SYMMETRY: Nonet   
 CONVERGENCE THRESHOLDS:    1.00E-05 (Density)    1.28E-06 (Energy)
 MAX. NUMBER OF ITERATIONS:       60
 INTERPOLATION TYPE:            DIIS
 INTERPOLATION STEPS:              2 (START)      1 (STEP)
 LEVEL SHIFTS:                 -0.60 (CLOSED) -0.30 (OPEN) 

 Number of closed-shell orbitals:   28 (  10   4   4   2   4   2   2   0 )
 Number of open-shell orbitals:      8 (   1   2   2   0   2   0   0   1 )


 
 Extra symmetries of mos in symmetry 1:   1   1   1   3   2   1   3   2   1   1   3   2
 Extra symmetries of mos in symmetry 2:   1   1   1   1   3   2
 Extra symmetries of mos in symmetry 3:   1   1   1   1   3   2
 Extra symmetries of mos in symmetry 5:   1   1   1   1   3   2
 Use fine grid record 1800.2 for energy threshold  1.0D-06
 Orbital guess generated from atomic densities. Full valence occupancy:   12   6   6   3   6   3   3   1


 Molecular orbital dump at record        3202.2

 ITERATION    DDIFF          GRAD             ENERGY        2-EL.EN.            DIPOLE MOMENTS         DIIS   ORB.
    1      0.000D+00      0.000D+00    -11270.26717365   8681.764236    0.00000    0.00000    0.00000    0    start
    2      0.000D+00      0.250D-01    -11270.24826168   8510.713652    0.00000    0.00000    0.00000    1    diag,B
    3      0.244D-01      0.302D-01    -11270.74044946   8644.240983    0.00000    0.00000    0.00000    2    diag,B
    4      0.387D-01      0.203D-02    -11270.77153898   8641.156364    0.00000    0.00000    0.00000    3    diag,B
    5      0.951D-02      0.952D-03    -11270.78876276   8645.206701    0.00000    0.00000    0.00000    4    diag,B
    6      0.114D-01      0.631D-03    -11270.79666680   8642.916018    0.00000    0.00000    0.00000    5    diag,B
    7      0.118D-01      0.374D-03    -11270.79965537   8643.948691    0.00000    0.00000    0.00000    6    fixocc
    8      0.546D-02      0.291D-03    -11270.80206134   8643.097999    0.00000    0.00000    0.00000    7    diag,B
    9      0.353D-02      0.210D-03    -11270.80398489   8643.610750    0.00000    0.00000    0.00000    8    diag,B
   10      0.871D-02      0.156D-03    -11270.80502094   8643.510016    0.00000    0.00000    0.00000    9    orth
   11      0.554D-02      0.546D-04    -11270.80510591   8643.384279    0.00000    0.00000    0.00000    9    diag,B
   12      0.216D-02      0.185D-04    -11270.80511630   8643.416846    0.00000    0.00000    0.00000    9    diag,B
   13      0.221D-02      0.108D-04    -11270.80511837   8643.353487    0.00000    0.00000    0.00000    9    diag,B
   14      0.217D-02      0.366D-05    -11270.80511867   8643.350331    0.00000    0.00000    0.00000    9    diag,B
   15      0.995D-03      0.185D-05    -11270.80511875   8643.349275    0.00000    0.00000    0.00000    9    diag,B
   16      0.307D-03      0.938D-06    -11270.80511877   8643.349863    0.00000    0.00000    0.00000    9    diag,B
   17      0.303D-03      0.472D-06    -11270.80511877   8643.350622    0.00000    0.00000    0.00000    9    diag,B
   18      0.336D-03      0.209D-06    -11270.80511877   8643.350929    0.00000    0.00000    0.00000    9    diag,B
   19      0.131D-03      0.121D-06    -11270.80511877   8643.350866    0.00000    0.00000    0.00000    9    diag,B
   20      0.491D-04      0.551D-07    -11270.80511877   8643.350890    0.00000    0.00000    0.00000    9    orth
   21      0.430D-04      0.262D-07    -11270.80511877   8643.350796    0.00000    0.00000    0.00000    9    diag,B
   22      0.281D-04      0.128D-07    -11270.80511877   8643.350784    0.00000    0.00000    0.00000    9    diag,B
   23      0.860D-05      0.601D-08    -11270.80511877   8643.350770    0.00000    0.00000    0.00000    0    orth

 Final alpha occupancy:  11   6   6   2   6   2   2   1
 Final beta  occupancy:  10   4   4   2   4   2   2   0

 !RKS STATE 1.8 Energy               -11270.8051187711    
 Nuclear energy                         0.00000000
 One-electron energy               -15402.15532202
 Two-electron energy                 4321.67538525
 Density functional                  -190.32518200     PBEX=-249.00757231 PBEC=  -3.56950277
 Virial quotient                       -0.78344582
 !RKS STATE 1.8 Dipole moment           0.00000000     0.00000000     0.00000000
 Dipole moment /Debye                   0.00000000     0.00000000     0.00000000

 ELECTRON ORBITALS
 =================


   Orb  Occ    Energy  Couls-En    Coefficients

                                   1 1s      1 1s      1 1s      1 1s      1 1s      1 1s      1 1s      1 1s      1 1s      1 1s   
                                   1 1s      1 1s      1 1s      1 1s      1 1s      1 1s      1 1s      1 1s      1 1s      1 1s   
                                   1 1s      1 1s      1 1s      1 1s      1 1s      1 1s      1 1s      1 1s      1 1s      1 1s   
                                   1 1s      1 1s      1 1s      1 1s      1 1s      1 1s      1 1s      1 1s      1 3d0     1 3d2+ 
                                   1 3d0     1 3d2+    1 3d0     1 3d2+    1 3d0     1 3d2+    1 3d0     1 3d2+    1 3d0     1 3d2+ 
                                   1 3d0     1 3d2+    1 3d0     1 3d2+    1 3d0     1 3d2+    1 3d0     1 3d2+    1 3d0     1 3d2+ 
                                   1 3d0     1 3d2+    1 3d0     1 3d2+    1 3d0     1 3d2+    1 3d0     1 3d2+    1 3d0     1 3d2+ 
                                   1 3d0     1 3d2+    1 3d0     1 3d2+    1 3d0     1 3d2+    1 3d0     1 3d2+    1 3d0     1 3d2+ 
                                   1 3d0     1 3d2+    1 5g0     1 5g4+    1 5g2+    1 5g0     1 5g4+    1 5g2+    1 5g0     1 5g4+ 
                                   1 5g2+    1 5g0     1 5g4+    1 5g2+    1 5g0     1 5g4+    1 5g2+    1 5g0     1 5g4+    1 5g2+ 
                                   1 5g0     1 5g4+    1 5g2+    1 5g0     1 5g4+    1 5g2+    1 5g0     1 5g4+    1 5g2+ 

   1.1   2 -1841.3290-4014.8606  0.000378  0.000163  0.001378  0.003964  0.007291  0.013589  0.025815  0.050396  0.101628  0.199269
                                 0.334900  0.343594  0.145780  0.063574 -0.008691  0.007302 -0.028454 -0.032042 -0.019276  0.016220
                                 0.018619 -0.002226 -0.006004 -0.003866 -0.001473  0.015916  0.015381 -0.036717 -0.081847  0.031935
                                 0.035775 -0.026498  0.003080  0.007009  0.002210  0.000066 -0.000023  0.000005  0.000000  0.000000
                                 0.000000  0.000000  0.000000 -0.000000 -0.000000  0.000000  0.000000 -0.000000  0.000000 -0.000000
                                -0.000000  0.000000  0.000000 -0.000000  0.000000 -0.000000  0.000000 -0.000000 -0.000000  0.000000
                                -0.000000  0.000000  0.000000 -0.000000 -0.000000  0.000000 -0.000000  0.000000 -0.000000  0.000000
                                 0.000000 -0.000000 -0.000000  0.000000  0.000000 -0.000000 -0.000000  0.000000  0.000000 -0.000000
                                -0.000000  0.000000  0.000000  0.000000 -0.000000 -0.000000 -0.000000  0.000000  0.000000  0.000000
                                -0.000000 -0.000000 -0.000000  0.000000  0.000000  0.000000 -0.000000 -0.000000 -0.000000  0.000000
                                 0.000000  0.000000 -0.000000 -0.000000 -0.000000 -0.000000  0.000000  0.000000 -0.000000

   2.1   2  -305.1863 -853.6902 -0.000137 -0.000059 -0.000501 -0.001444 -0.002675 -0.005019 -0.009704 -0.019255 -0.040887 -0.080426
                                -0.145263 -0.152226  0.142566  0.605857  0.424133  0.031204  0.014392  0.050459  0.036086 -0.032318
                                -0.038498  0.004728  0.012952  0.008370  0.003197 -0.016574 -0.051510 -0.082238 -0.007778 -0.029008
                                -0.061278  0.054350 -0.006615 -0.015153 -0.004794 -0.000144  0.000050 -0.000011  0.000000 -0.000000
                                 0.000001  0.000000  0.000002  0.000000  0.000002 -0.000000  0.000001  0.000000  0.000002  0.000000
                                -0.000002 -0.000000  0.000000  0.000000  0.000000  0.000000  0.000000  0.000000 -0.000001 -0.000000
                                -0.000003 -0.000000  0.000003  0.000000 -0.000000 -0.000000 -0.000000 -0.000000 -0.000000 -0.000000
                                 0.000000  0.000000 -0.000000 -0.000000  0.000000  0.000000 -0.000000 -0.000000  0.000000  0.000000
                                -0.000000 -0.000000 -0.000000 -0.000000 -0.000000  0.000000  0.000000  0.000000 -0.000000 -0.000000
                                -0.000000  0.000000  0.000000  0.000000 -0.000000 -0.000000 -0.000000  0.000000  0.000000  0.000000
                                -0.000000 -0.000000 -0.000000  0.000000  0.000000  0.000000 -0.000000 -0.000000 -0.000000

   3.1   2   -68.1616 -299.7719  0.000064  0.000027  0.000232  0.000670  0.001243  0.002330  0.004537  0.008954  0.019467  0.034568
                                 0.055062  0.027888 -0.211152 -0.822828 -0.326110  0.910033  0.035680 -0.535449 -0.384311  0.346285
                                 0.417749 -0.052208 -0.145287 -0.094359 -0.036180  0.014454  0.054584  0.132816  0.289217  0.521876
                                 0.656401 -0.587635  0.073817  0.170439  0.054225  0.001633 -0.000573  0.000124  0.000001  0.000000
                                 0.000002  0.000000  0.000010  0.000000  0.000024  0.000000  0.000037  0.000000  0.000007 -0.000000
                                 0.000032  0.000000 -0.000003 -0.000000 -0.000002 -0.000000 -0.000000 -0.000000  0.000021  0.000000
                                 0.000045  0.000000 -0.000046 -0.000000  0.000004  0.000000  0.000001  0.000000  0.000000  0.000000
                                -0.000000 -0.000000  0.000000  0.000000 -0.000000 -0.000000  0.000000  0.000000 -0.000000 -0.000000
                                 0.000000  0.000000 -0.000001 -0.000006 -0.000000  0.000001  0.000005  0.000000 -0.000001 -0.000005
                                -0.000000  0.000000  0.000003  0.000000 -0.000000 -0.000002 -0.000000  0.000000  0.000001  0.000000
                                -0.000000 -0.000001 -0.000000  0.000000  0.000000  0.000000 -0.000000 -0.000000 -0.000000

   4.1   2   -43.8390 -259.0988 -0.000000  0.000000 -0.000000  0.000000 -0.000000  0.000000 -0.000000  0.000000 -0.000000  0.000000
                                 0.000000  0.000000  0.000000  0.000000 -0.000000  0.000000 -0.000000 -0.000000 -0.000000  0.000000
                                 0.000000 -0.000000 -0.000000 -0.000000 -0.000000 -0.000000 -0.000000 -0.000000 -0.000000  0.000000
                                 0.000000 -0.000000  0.000000  0.000000  0.000000  0.000000 -0.000000  0.000000  0.000000  0.010157
                                 0.000000  0.036092  0.000000  0.143098  0.000000  0.322566  0.000000  0.513340  0.000000  0.541108
                                -0.000000 -0.170881  0.000000  0.020783  0.000000  0.014242  0.000000  0.001760 -0.000000 -0.146916
                                -0.000000 -0.413666  0.000000  0.377381 -0.000000 -0.019268 -0.000000 -0.005315 -0.000000 -0.001389
                                 0.000000  0.001228 -0.000000 -0.000764  0.000000  0.000450 -0.000000 -0.000161  0.000000  0.000069
                                -0.000000 -0.000020  0.000000  0.000000  0.000022 -0.000000 -0.000000 -0.000014  0.000000  0.000000
                                 0.000012 -0.000000 -0.000000 -0.000008  0.000000  0.000000  0.000005 -0.000000 -0.000000 -0.000004
                                 0.000000  0.000000  0.000002 -0.000000 -0.000000 -0.000001  0.000000  0.000000  0.000000

   5.1   2   -43.8423 -259.0981 -0.000000 -0.000000 -0.000000 -0.000000 -0.000000 -0.000000 -0.000001 -0.000001 -0.000002 -0.000003
                                -0.000003  0.000008  0.000045  0.000140  0.000028 -0.000138  0.000037  0.000129  0.000092 -0.000083
                                -0.000101  0.000012  0.000032  0.000021  0.000008 -0.000003 -0.000012 -0.000033 -0.000079 -0.000086
                                -0.000146  0.000144 -0.000017 -0.000038 -0.000012 -0.000000  0.000000 -0.000000  0.010156 -0.000000
                                 0.036089 -0.000000  0.143087 -0.000000  0.322540 -0.000000  0.513303 -0.000000  0.541036 -0.000000
                                -0.170773 -0.000000  0.020795  0.000000  0.014239  0.000000  0.001709  0.000000 -0.146865  0.000000
                                -0.413519  0.000000  0.377242 -0.000000 -0.019271 -0.000000 -0.005352 -0.000000 -0.001427 -0.000000
                                 0.001200  0.000000 -0.000780 -0.000000  0.000446  0.000000 -0.000162 -0.000000  0.000069  0.000000
                                -0.000020 -0.000000  0.000029  0.000006 -0.000000 -0.000018 -0.000004  0.000000  0.000015  0.000004
                                -0.000000 -0.000010 -0.000002  0.000000  0.000007  0.000002 -0.000000 -0.000004 -0.000001  0.000000
                                 0.000002  0.000001 -0.000000 -0.000001 -0.000000  0.000000  0.000000  0.000000 -0.000000

   6.1   2   -13.9431 -128.6736 -0.000031 -0.000013 -0.000113 -0.000326 -0.000605 -0.001134 -0.002213 -0.004356 -0.009543 -0.016269
                                -0.024305 -0.004913  0.130469  0.512443  0.181335 -0.892536 -0.644806  1.115097  0.699116 -0.317389
                                -0.451285  0.060473  0.178207  0.118024  0.045975 -0.008224 -0.032101 -0.082817 -0.206029  0.204132
                                -0.253748  0.626804 -0.088791 -0.211319 -0.068731 -0.002097  0.000739 -0.000160 -0.000003 -0.000000
                                -0.000010 -0.000000 -0.000041 -0.000000 -0.000096 -0.000000 -0.000165 -0.000000 -0.000334  0.000000
                                 0.000642 -0.000000  0.000292  0.000000  0.000021  0.000000  0.000001  0.000000  0.000090 -0.000000
                                 0.000597 -0.000000 -0.000627  0.000000  0.000083 -0.000000 -0.000005 -0.000000 -0.000001 -0.000000
                                 0.000001  0.000000 -0.000001 -0.000000  0.000000  0.000000 -0.000000 -0.000000  0.000000  0.000000
                                -0.000000  0.000000 -0.000001 -0.000004 -0.000000 -0.000004 -0.000020 -0.000000 -0.000010 -0.000058
                                -0.000000  0.000000  0.000001  0.000000 -0.000000  0.000000  0.000000  0.000000  0.000002  0.000000
                                -0.000000 -0.000001 -0.000000  0.000000  0.000001  0.000000 -0.000000 -0.000000 -0.000000

   7.1   2    -5.6111 -104.0819  0.000000 -0.000000  0.000000 -0.000000  0.000000 -0.000000  0.000000 -0.000000  0.000000 -0.000000
                                -0.000000 -0.000000 -0.000000 -0.000000  0.000000 -0.000000  0.000000  0.000000  0.000000 -0.000000
                                -0.000000 -0.000000 -0.000000 -0.000000 -0.000000  0.000000  0.000000  0.000000  0.000000 -0.000000
                                -0.000000  0.000000  0.000000  0.000000  0.000000  0.000000 -0.000000 -0.000000  0.000000 -0.004924
                                 0.000000 -0.017618  0.000000 -0.071353  0.000000 -0.161365  0.000000 -0.253882  0.000000 -0.308557
                                -0.000000  0.944214 -0.000000  0.384145 -0.000000  0.083126 -0.000000  0.006330 -0.000000  0.129931
                                -0.000000  0.642731  0.000000 -0.738691 -0.000000  0.065745  0.000000 -0.001465  0.000000 -0.004704
                                -0.000000  0.004377  0.000000 -0.002772 -0.000000  0.001678  0.000000 -0.000606 -0.000000  0.000262
                                 0.000000 -0.000075 -0.000000  0.000000  0.000042 -0.000000  0.000000  0.000070 -0.000000  0.000000
                                 0.000206 -0.000000  0.000000  0.000139 -0.000000  0.000000 -0.000006  0.000000 -0.000000 -0.000003
                                -0.000000  0.000000 -0.000003  0.000000 -0.000000  0.000000 -0.000000  0.000000 -0.000000

   8.1   2    -5.6189 -104.0629  0.000000  0.000000  0.000000  0.000000  0.000001  0.000001  0.000003  0.000005  0.000011  0.000020
                                 0.000030  0.000011 -0.000143 -0.000588 -0.000233  0.001227  0.000567 -0.001965 -0.001281  0.001682
                                 0.001002 -0.000107 -0.000375 -0.000265 -0.000107  0.000009  0.000035  0.000088  0.000218  0.000026
                                 0.000061 -0.000560  0.000162  0.000460  0.000159  0.000005 -0.000002  0.000000 -0.004921 -0.000000
                                -0.017609 -0.000000 -0.071314 -0.000000 -0.161277 -0.000000 -0.253779 -0.000000 -0.308736 -0.000000
                                 0.943667  0.000000  0.384106  0.000000  0.083452  0.000000  0.006086 -0.000000  0.129922  0.000000
                                 0.642789  0.000000 -0.738582 -0.000000  0.066240  0.000000 -0.001522  0.000000 -0.004870  0.000000
                                 0.004242 -0.000000 -0.002842  0.000000  0.001655 -0.000000 -0.000610  0.000000  0.000262 -0.000000
                                -0.000075  0.000000  0.000056  0.000010  0.000000  0.000094  0.000016  0.000000  0.000231  0.000103
                                 0.000000  0.000162  0.000061  0.000000  0.000009 -0.000025  0.000000  0.000002 -0.000003 -0.000000
                                -0.000002 -0.000003 -0.000000  0.000001  0.000001  0.000000 -0.000000 -0.000000 -0.000000

   9.1   2    -1.9255  -54.7762  0.000013  0.000005  0.000046  0.000133  0.000247  0.000462  0.000901  0.001774  0.003892  0.006591
                                 0.009740  0.001424 -0.055239 -0.218455 -0.077215  0.429839  0.375110 -0.806854 -0.739754  0.703919
                                 1.595025  0.314873  0.068625  0.035095  0.011220  0.003430  0.013454  0.035027  0.088966 -0.172346
                                 0.109458 -0.993556 -0.027189 -0.070524 -0.017274 -0.000459  0.000157 -0.000033  0.000015  0.000000
                                 0.000055  0.000000  0.000223  0.000000  0.000508  0.000000  0.000778  0.000000  0.000840  0.000000
                                -0.003091 -0.000000 -0.001446 -0.000000  0.001002  0.000000  0.000897  0.000000 -0.000378 -0.000000
                                -0.001960 -0.000000  0.002197  0.000000  0.000108  0.000000  0.003454  0.000000  0.000057  0.000000
                                -0.000058  0.000000  0.000030  0.000000 -0.000020  0.000000  0.000008  0.000000 -0.000004 -0.000000
                                 0.000001 -0.000000 -0.000001 -0.000003 -0.000000 -0.000005 -0.000027 -0.000000 -0.000001  0.000003
                                -0.000000 -0.000104 -0.000645 -0.000000 -0.000004  0.000110  0.000000  0.000085  0.000515  0.000000
                                -0.000011 -0.000046 -0.000000  0.000015  0.000074  0.000000 -0.000004 -0.000022 -0.000000

  10.1   2    -0.1664  -18.8162 -0.000004 -0.000002 -0.000013 -0.000038 -0.000071 -0.000134 -0.000261 -0.000514 -0.001128 -0.001902
                                -0.002787 -0.000300  0.016286  0.064150  0.022346 -0.126943 -0.121218  0.221001  0.202820 -0.175330
                                -0.607756 -0.239554  0.969143  0.915160  0.201731 -0.001009 -0.003966 -0.010358 -0.026437  0.065323
                                 0.024853  0.201954 -0.216755 -0.640886 -0.028053  0.001347  0.000810 -0.000251  0.000064  0.000000
                                 0.000230  0.000000  0.000930  0.000000  0.002119  0.000000  0.003087  0.000000  0.001877  0.000000
                                -0.009402 -0.000000 -0.007274 -0.000000 -0.005607 -0.000000  0.017821  0.000000 -0.001275 -0.000000
                                -0.005090 -0.000000  0.004161  0.000000  0.006432  0.000000  0.018217  0.000000  0.020925  0.000000
                                 0.021095  0.000000  0.012101  0.000000  0.003249  0.000000  0.000704  0.000000 -0.000146 -0.000000
                                 0.000041  0.000000 -0.000000 -0.000001 -0.000000  0.000006  0.000027  0.000000 -0.000006 -0.000039
                                -0.000000  0.000113  0.000496  0.000000 -0.000026 -0.000788 -0.000000  0.000546  0.002571  0.000000
                                 0.000053  0.000159  0.000000  0.000299  0.001360  0.000000  0.000041  0.000200  0.000000

  11.1   +    -0.1539  -29.1443  0.000000  0.000000  0.000000  0.000000  0.000000  0.000000  0.000000  0.000000 -0.000000  0.000000
                                 0.000000  0.000000  0.000000 -0.000000 -0.000000  0.000000  0.000000 -0.000000 -0.000000  0.000000
                                 0.000000  0.000000 -0.000000 -0.000000  0.000000 -0.000000 -0.000000 -0.000000 -0.000000 -0.000000
                                -0.000000 -0.000000  0.000000  0.000000 -0.000000 -0.000000  0.000000 -0.000000  0.000000  0.001136
                                 0.000000  0.004076  0.000000  0.016522  0.000000  0.037529  0.000000  0.056338  0.000000  0.048339
                                -0.000000 -0.204677 -0.000000 -0.114732  0.000000 -0.017343  0.000000  0.349405 -0.000000 -0.026254
                                -0.000000 -0.121135  0.000000  0.123133  0.000000  0.075809  0.000000  0.271630  0.000000  0.264822
                                 0.000000  0.187580  0.000000  0.115780  0.000000  0.028415  0.000000  0.007865 -0.000000 -0.001670
                                 0.000000  0.000475  0.000000 -0.000000 -0.000009 -0.000000  0.000000  0.000010  0.000000  0.000000
                                -0.000069  0.000000  0.000000  0.000331  0.000000  0.000000  0.000249 -0.000000 -0.000000 -0.002596
                                -0.000000 -0.000000 -0.000518 -0.000000 -0.000000 -0.000744 -0.000000 -0.000000 -0.000051

  12.1   0    -0.0722  -27.5091  0.000000  0.000000  0.000001  0.000002  0.000005  0.000009  0.000017  0.000033  0.000073  0.000125
                                 0.000186  0.000035 -0.001025 -0.004093 -0.001483  0.008340  0.007311 -0.016939 -0.018237  0.025289
                                 0.100100  0.009382 -0.064024 -0.062569 -0.019362  0.000064  0.000249  0.000647  0.001641 -0.003332
                                 0.002230 -0.074073  0.005841  0.044041  0.006102 -0.000848  0.000001  0.000005  0.001068 -0.000000
                                 0.003833 -0.000000  0.015534 -0.000000  0.035303 -0.000000  0.052767 -0.000000  0.043547  0.000000
                                -0.188313  0.000000 -0.109362  0.000000 -0.022170  0.000000  0.319338 -0.000000 -0.024151 -0.000000
                                -0.110126 -0.000000  0.110260  0.000000  0.074242 -0.000000  0.261337 -0.000000  0.244531 -0.000000
                                 0.206605 -0.000000  0.139533 -0.000000  0.069296 -0.000000  0.024789  0.000000 -0.001206 -0.000000
                                 0.000715  0.000000 -0.000009 -0.000007  0.000000  0.000015 -0.000005  0.000000 -0.000037 -0.000087
                                 0.000000  0.000493 -0.000035  0.000000  0.000920 -0.000737  0.000000  0.000179 -0.005609  0.000000
                                 0.002016 -0.004109  0.000000  0.000890 -0.003020  0.000000  0.000456 -0.001008  0.000000

  13.1   0    -0.0007   -4.7084  0.000001  0.000000  0.000003  0.000009  0.000016  0.000030  0.000058  0.000115  0.000252  0.000435
                                 0.000664  0.000193 -0.003370 -0.013725 -0.005243  0.029174  0.019961 -0.079847 -0.098639  0.147628
                                 0.442096 -0.067669 -2.578496 -4.392948 -4.833029  0.000209  0.000813  0.002098  0.005279 -0.003511
                                 0.043084 -0.381455  0.593367  4.708862  5.695158  1.117935 -0.776567  1.227618 -0.000000  0.000000
                                -0.000001  0.000000 -0.000002  0.000000 -0.000007  0.000000  0.000014  0.000000  0.000199 -0.000000
                                -0.000426  0.000000  0.000204 -0.000000  0.000978 -0.000000  0.000424 -0.000000 -0.000049  0.000000
                                -0.000381  0.000000  0.000603 -0.000000 -0.000536  0.000000 -0.000896  0.000000 -0.000870  0.000000
                                -0.000578 -0.000000  0.000117  0.000000  0.000736 -0.000000  0.002504  0.000000  0.000852 -0.000000
                                 0.002940  0.000000 -0.000000 -0.000001 -0.000000 -0.000001 -0.000007  0.000000 -0.000000 -0.000004
                                -0.000000 -0.000018 -0.000098  0.000000  0.000034  0.000205  0.000000 -0.000223 -0.001399 -0.000000
                                -0.000085 -0.000658 -0.000000 -0.000199 -0.001170 -0.000000  0.000402  0.002556  0.000000

                                   1 2px     1 2px     1 2px     1 2px     1 2px     1 2px     1 2px     1 2px     1 2px     1 2px  
                                   1 2px     1 2px     1 2px     1 2px     1 2px     1 2px     1 2px     1 2px     1 2px     1 2px  
                                   1 2px     1 2px     1 2px     1 2px     1 2px     1 2px     1 2px     1 2px     1 2px     1 2px  
                                   1 2px     1 2px     1 2px     1 2px     1 2px     1 2px     1 2px     1 4f1+    1 4f3+    1 4f1+ 
                                   1 4f3+    1 4f1+    1 4f3+    1 4f1+    1 4f3+    1 4f1+    1 4f3+    1 4f1+    1 4f3+    1 4f1+ 
                                   1 4f3+    1 4f1+    1 4f3+    1 4f1+    1 4f3+    1 4f1+    1 4f3+    1 4f1+    1 4f3+    1 4f1+ 
                                   1 4f3+ 

   1.2   2  -271.9816 -797.4652  0.000012  0.000002  0.000028  0.000033  0.000094  0.000160  0.000334  0.000655  0.001194  0.004173
                                 0.001985  0.014677  0.043391  0.124481  0.297003  0.417765  0.253863  0.026057 -0.014675 -0.040050
                                -0.014900 -0.006335 -0.001016  0.000509 -0.000341  0.000337  0.002997  0.014782  0.038306  0.020668
                                 0.004943  0.003922 -0.000113 -0.000407  0.000297  0.000030 -0.000005  0.000002  0.000000 -0.000003
                                -0.000002 -0.000006 -0.000002 -0.000001 -0.000000  0.000000  0.000000  0.000005  0.000002  0.000003
                                 0.000001 -0.000000 -0.000000  0.000000  0.000000 -0.000000 -0.000000  0.000000  0.000000 -0.000000
                                -0.000000

   2.2   2   -57.7782 -280.5476 -0.000006 -0.000001 -0.000014 -0.000016 -0.000046 -0.000078 -0.000165 -0.000322 -0.000596 -0.002063
                                -0.001035 -0.007329 -0.022275 -0.065600 -0.166609 -0.239550 -0.050854  0.339593  0.389048 -0.019538
                                 0.013891  0.009192  0.001611 -0.000832  0.000567 -0.000566  0.130200  0.185641  0.110768 -0.013376
                                -0.006656 -0.005916  0.000192  0.000687 -0.000501 -0.000051  0.000009  0.000019 -0.000005  0.000023
                                -0.000007  0.000009 -0.000007  0.000002 -0.000004  0.000000 -0.000002 -0.000009  0.000007 -0.000004
                                 0.000003  0.000000 -0.000000  0.000000 -0.000000  0.000000  0.000000  0.000000 -0.000000 -0.000000
                                 0.000000

   3.2   2   -10.4812 -118.6584  0.000003  0.000001  0.000007  0.000008  0.000022  0.000037  0.000079  0.000153  0.000288  0.000981
                                 0.000517  0.003495  0.010775  0.031786  0.082235  0.117981  0.016474 -0.169917 -0.146992  0.435162
                                 0.182438 -0.151450 -0.022808  0.011644 -0.007982  0.008051 -0.123174 -0.270448  0.080231  0.401200
                                 0.179233  0.090740 -0.002771 -0.009828  0.007201  0.000740 -0.000132  0.000022 -0.000010  0.000063
                                -0.000015  0.000063  0.000008  0.000143 -0.000087  0.000012 -0.000011  0.000080 -0.000021  0.000168
                                -0.000099 -0.000005  0.000004  0.000003 -0.000004 -0.000003  0.000003  0.000001 -0.000002 -0.000000
                                 0.000001

   4.2   2    -1.0579  -46.9496 -0.000001 -0.000000 -0.000002 -0.000003 -0.000008 -0.000014 -0.000029 -0.000056 -0.000105 -0.000359
                                -0.000190 -0.001278 -0.003949 -0.011658 -0.030260 -0.043437 -0.005062  0.065323  0.047165 -0.221018
                                -0.060660  0.193654  0.321654  0.077996  0.010331 -0.004302  0.049171  0.114669 -0.068991 -0.265833
                                 0.195168  0.391478  0.002088  0.006545 -0.005108 -0.000584  0.000107  0.000677 -0.000567  0.001578
                                -0.001273  0.003188 -0.002222  0.004018 -0.002499  0.004153 -0.001076  0.000100 -0.000264 -0.000925
                                 0.000230 -0.000432  0.002309  0.001007 -0.000138 -0.000726  0.000548  0.000399 -0.000265 -0.000140
                                 0.000097

   5.2   +    -0.4759  -77.9053  0.000000  0.000000  0.000000  0.000000  0.000000  0.000000  0.000000  0.000000  0.000000  0.000000
                                 0.000000  0.000000  0.000001  0.000004  0.000010  0.000015 -0.000002  0.000031  0.000108  0.000733
                                -0.000730 -0.001427  0.003410  0.002945  0.002500  0.000168 -0.000021 -0.000170 -0.000471  0.000594
                                -0.000660 -0.000284  0.000103  0.000362 -0.000252 -0.000029  0.000005  0.002314  0.105100  0.004872
                                 0.221362  0.006736  0.307870  0.008210  0.373294  0.004225  0.228178  0.001913  0.087355  0.001799
                                 0.077864 -0.001489 -0.014895  0.000844  0.062445 -0.000900 -0.038527  0.000488  0.023093 -0.000179
                                -0.008324

   6.2   +    -0.4826  -77.9832  0.000000  0.000000  0.000000  0.000000  0.000000  0.000000  0.000000  0.000000  0.000001  0.000002
                                 0.000001  0.000007  0.000020  0.000060  0.000155  0.000223  0.000026 -0.000392 -0.000357  0.000492
                                 0.000212 -0.000522 -0.004001 -0.002351 -0.000910 -0.000146 -0.000244 -0.000483  0.000930  0.001617
                                -0.000686 -0.002077 -0.000015 -0.000014  0.000025  0.000005 -0.000001  0.105157 -0.002145  0.221525
                                -0.004520  0.308284 -0.006333  0.374119 -0.007644  0.227623 -0.005471  0.087303 -0.001790  0.077739
                                -0.001498 -0.017007 -0.000856  0.061334 -0.001805 -0.038716  0.000737  0.023019 -0.000491 -0.008298
                                 0.000174

   7.2   0    -0.0359  -13.2081  0.000000  0.000000  0.000001  0.000001  0.000002  0.000003  0.000007  0.000013  0.000024  0.000081
                                 0.000043  0.000290  0.000893  0.002641  0.006847  0.009858  0.000932 -0.016579 -0.012800  0.033893
                                -0.012648 -0.108110 -0.113752 -0.029150  0.298496  0.295945 -0.010508 -0.024027  0.030286  0.090157
                                -0.035944 -0.075724  0.139174  0.304848  0.115635  0.023709  0.002805  0.000226 -0.000790  0.000431
                                -0.001579  0.000326 -0.001727  0.000322 -0.002032  0.000524 -0.001805  0.000315 -0.000872  0.000569
                                -0.001232 -0.001272  0.005297  0.001618  0.009563  0.001218  0.008469  0.000638  0.005157  0.000271
                                 0.001540

   8.2   0     0.0052   -2.9716 -0.000000 -0.000000 -0.000000 -0.000000 -0.000000 -0.000001 -0.000001 -0.000002 -0.000004 -0.000014
                                -0.000005 -0.000048 -0.000141 -0.000429 -0.001087 -0.001643  0.000381  0.008406  0.009911  0.046779
                                 0.063134  0.186054  0.137001 -0.167084  0.256787 -1.005754 -0.000443 -0.004342 -0.045975 -0.076310
                                -0.064386 -0.156207  3.110369  2.434409 -3.501675 -2.532684  2.078846 -0.000033  0.000120 -0.000063
                                 0.000239 -0.000042  0.000255 -0.000040  0.000299 -0.000082  0.000277 -0.000049  0.000136 -0.000091
                                 0.000197  0.000216 -0.000890 -0.000319 -0.001596 -0.000020 -0.001488 -0.000358 -0.000771  0.000501
                                 0.000428

                                   1 2py     1 2py     1 2py     1 2py     1 2py     1 2py     1 2py     1 2py     1 2py     1 2py  
                                   1 2py     1 2py     1 2py     1 2py     1 2py     1 2py     1 2py     1 2py     1 2py     1 2py  
                                   1 2py     1 2py     1 2py     1 2py     1 2py     1 2py     1 2py     1 2py     1 2py     1 2py  
                                   1 2py     1 2py     1 2py     1 2py     1 2py     1 2py     1 2py     1 4f1-    1 4f3-    1 4f1- 
                                   1 4f3-    1 4f1-    1 4f3-    1 4f1-    1 4f3-    1 4f1-    1 4f3-    1 4f1-    1 4f3-    1 4f1- 
                                   1 4f3-    1 4f1-    1 4f3-    1 4f1-    1 4f3-    1 4f1-    1 4f3-    1 4f1-    1 4f3-    1 4f1- 
                                   1 4f3- 

   1.3   2  -271.9816 -797.4652  0.000012  0.000002  0.000028  0.000033  0.000094  0.000160  0.000334  0.000655  0.001194  0.004173
                                 0.001985  0.014677  0.043391  0.124481  0.297003  0.417765  0.253863  0.026057 -0.014675 -0.040050
                                -0.014900 -0.006335 -0.001016  0.000509 -0.000341  0.000337  0.002997  0.014782  0.038306  0.020668
                                 0.004943  0.003922 -0.000113 -0.000407  0.000297  0.000030 -0.000005  0.000002 -0.000000 -0.000003
                                 0.000002 -0.000006  0.000002 -0.000001  0.000000  0.000000 -0.000000  0.000005 -0.000002  0.000003
                                -0.000001 -0.000000  0.000000  0.000000 -0.000000 -0.000000  0.000000  0.000000 -0.000000 -0.000000
                                 0.000000

   2.3   2   -57.7782 -280.5476 -0.000006 -0.000001 -0.000014 -0.000016 -0.000046 -0.000078 -0.000165 -0.000322 -0.000596 -0.002063
                                -0.001035 -0.007329 -0.022275 -0.065600 -0.166609 -0.239550 -0.050854  0.339593  0.389048 -0.019538
                                 0.013891  0.009192  0.001611 -0.000832  0.000567 -0.000566  0.130200  0.185641  0.110768 -0.013376
                                -0.006656 -0.005916  0.000192  0.000687 -0.000501 -0.000051  0.000009  0.000019  0.000005  0.000023
                                 0.000007  0.000009  0.000007  0.000002  0.000004  0.000000  0.000002 -0.000009 -0.000007 -0.000004
                                -0.000003  0.000000  0.000000  0.000000  0.000000  0.000000 -0.000000  0.000000  0.000000 -0.000000
                                -0.000000

   3.3   2   -10.4812 -118.6584  0.000003  0.000001  0.000007  0.000008  0.000022  0.000037  0.000079  0.000153  0.000288  0.000981
                                 0.000517  0.003495  0.010775  0.031786  0.082235  0.117981  0.016474 -0.169917 -0.146992  0.435162
                                 0.182438 -0.151450 -0.022808  0.011644 -0.007982  0.008051 -0.123174 -0.270448  0.080231  0.401200
                                 0.179233  0.090740 -0.002771 -0.009828  0.007201  0.000740 -0.000132  0.000022  0.000010  0.000063
                                 0.000015  0.000063 -0.000008  0.000143  0.000087  0.000012  0.000011  0.000080  0.000021  0.000168
                                 0.000099 -0.000005 -0.000004  0.000003  0.000004 -0.000003 -0.000003  0.000001  0.000002 -0.000000
                                -0.000001

   4.3   2    -1.0579  -46.9496 -0.000001 -0.000000 -0.000002 -0.000003 -0.000008 -0.000014 -0.000029 -0.000056 -0.000105 -0.000359
                                -0.000190 -0.001278 -0.003949 -0.011658 -0.030260 -0.043437 -0.005062  0.065323  0.047165 -0.221018
                                -0.060660  0.193654  0.321654  0.077996  0.010331 -0.004302  0.049171  0.114669 -0.068991 -0.265833
                                 0.195168  0.391478  0.002088  0.006545 -0.005108 -0.000584  0.000107  0.000677  0.000567  0.001578
                                 0.001273  0.003188  0.002222  0.004018  0.002499  0.004153  0.001076  0.000100  0.000264 -0.000925
                                -0.000230 -0.000432 -0.002309  0.001007  0.000138 -0.000726 -0.000548  0.000399  0.000265 -0.000140
                                -0.000097

   5.3   +    -0.4759  -77.9053 -0.000000 -0.000000 -0.000000 -0.000000 -0.000000 -0.000000 -0.000000 -0.000000 -0.000000 -0.000000
                                -0.000000 -0.000000 -0.000001 -0.000004 -0.000010 -0.000015  0.000002 -0.000031 -0.000108 -0.000733
                                 0.000730  0.001427 -0.003410 -0.002945 -0.002500 -0.000168  0.000021  0.000170  0.000471 -0.000594
                                 0.000660  0.000284 -0.000103 -0.000362  0.000252  0.000029 -0.000005 -0.002314  0.105100 -0.004872
                                 0.221362 -0.006736  0.307870 -0.008210  0.373294 -0.004225  0.228178 -0.001913  0.087355 -0.001799
                                 0.077864  0.001489 -0.014895 -0.000844  0.062445  0.000900 -0.038527 -0.000488  0.023093  0.000179
                                -0.008324

   6.3   +    -0.4826  -77.9832  0.000000  0.000000  0.000000  0.000000  0.000000  0.000000  0.000000  0.000000  0.000001  0.000002
                                 0.000001  0.000007  0.000020  0.000060  0.000155  0.000223  0.000026 -0.000392 -0.000357  0.000492
                                 0.000212 -0.000522 -0.004001 -0.002351 -0.000910 -0.000146 -0.000244 -0.000483  0.000930  0.001617
                                -0.000686 -0.002077 -0.000015 -0.000014  0.000025  0.000005 -0.000001  0.105157  0.002145  0.221525
                                 0.004520  0.308284  0.006333  0.374119  0.007644  0.227623  0.005471  0.087303  0.001790  0.077739
                                 0.001498 -0.017007  0.000856  0.061334  0.001805 -0.038716 -0.000737  0.023019  0.000491 -0.008298
                                -0.000174

   7.3   0    -0.0359  -13.2081  0.000000  0.000000  0.000001  0.000001  0.000002  0.000003  0.000007  0.000013  0.000024  0.000081
                                 0.000043  0.000290  0.000893  0.002641  0.006847  0.009858  0.000932 -0.016579 -0.012800  0.033893
                                -0.012648 -0.108110 -0.113752 -0.029150  0.298496  0.295945 -0.010508 -0.024027  0.030286  0.090157
                                -0.035944 -0.075724  0.139174  0.304848  0.115635  0.023709  0.002805  0.000226  0.000790  0.000431
                                 0.001579  0.000326  0.001727  0.000322  0.002032  0.000524  0.001805  0.000315  0.000872  0.000569
                                 0.001232 -0.001272 -0.005297  0.001618 -0.009563  0.001218 -0.008469  0.000638 -0.005157  0.000271
                                -0.001540

   8.3   0     0.0052   -2.9716 -0.000000 -0.000000 -0.000000 -0.000000 -0.000000 -0.000001 -0.000001 -0.000002 -0.000004 -0.000014
                                -0.000005 -0.000048 -0.000141 -0.000429 -0.001087 -0.001643  0.000381  0.008406  0.009911  0.046779
                                 0.063134  0.186054  0.137001 -0.167084  0.256787 -1.005754 -0.000443 -0.004342 -0.045975 -0.076310
                                -0.064386 -0.156207  3.110369  2.434409 -3.501675 -2.532684  2.078846 -0.000033 -0.000120 -0.000063
                                -0.000239 -0.000042 -0.000255 -0.000040 -0.000299 -0.000082 -0.000277 -0.000049 -0.000136 -0.000091
                                -0.000197  0.000216  0.000890 -0.000319  0.001596 -0.000020  0.001488 -0.000358  0.000771  0.000501
                                -0.000428

                                   1 3d2-    1 3d2-    1 3d2-    1 3d2-    1 3d2-    1 3d2-    1 3d2-    1 3d2-    1 3d2-    1 3d2- 
                                   1 3d2-    1 3d2-    1 3d2-    1 3d2-    1 3d2-    1 3d2-    1 3d2-    1 3d2-    1 3d2-    1 3d2- 
                                   1 3d2-    1 3d2-    1 5g2-    1 5g4-    1 5g2-    1 5g4-    1 5g2-    1 5g4-    1 5g2-    1 5g4- 
                                   1 5g2-    1 5g4-    1 5g2-    1 5g4-    1 5g2-    1 5g4-    1 5g2-    1 5g4-    1 5g2-    1 5g4- 


   1.4   2   -43.8392 -259.0961  0.010156  0.036090  0.143090  0.322545  0.513324  0.541061 -0.170798  0.020795  0.014240  0.001709
                                -0.146889 -0.413564  0.377276 -0.019272 -0.005352 -0.001427  0.001200 -0.000780  0.000446 -0.000162
                                 0.000069 -0.000020  0.000018  0.000000 -0.000011 -0.000000  0.000009  0.000000 -0.000007 -0.000000
                                 0.000004  0.000000 -0.000003 -0.000000  0.000002  0.000000 -0.000001 -0.000000  0.000000  0.000000

   2.4   2    -5.6126 -104.0672 -0.004922 -0.017612 -0.071327 -0.161306 -0.253831 -0.308816  0.944001  0.384163  0.083373  0.006073
                                 0.129967  0.643012 -0.738900  0.066094 -0.001613 -0.004878  0.004246 -0.002846  0.001657 -0.000611
                                 0.000263 -0.000075  0.000035  0.000000  0.000059  0.000000  0.000139  0.000000  0.000098  0.000000
                                 0.000008  0.000000  0.000001 -0.000000 -0.000001 -0.000000  0.000000  0.000000 -0.000000 -0.000000

   3.4   0    -0.0560  -27.0592  0.001054  0.003782  0.015323  0.034835  0.051916  0.041711 -0.183386 -0.108780 -0.024065  0.313053
                                -0.023501 -0.106321  0.105357  0.075421  0.259590  0.235686  0.210093  0.144292  0.087022  0.035063
                                 0.000647  0.000768 -0.000005 -0.000000  0.000010 -0.000000 -0.000012 -0.000000  0.000310  0.000000
                                 0.000714  0.000000  0.000544 -0.000000  0.001843 -0.000000  0.000900 -0.000000  0.000512 -0.000000

   4.4   0     0.0105   -3.1028 -0.000064 -0.000224 -0.000938 -0.002014 -0.004628 -0.016011  0.038611 -0.003976 -0.030249 -0.047974
                                 0.004990  0.032067 -0.044769  0.018785  0.009354  0.062910 -0.163736  0.282566 -0.391054  0.597898
                                -0.899706  1.480083  0.000001  0.000000 -0.000001 -0.000000  0.000003  0.000000 -0.000025 -0.000000
                                -0.000027 -0.000000 -0.000071  0.000000 -0.000009  0.000000 -0.000093  0.000000  0.000355  0.000000

                                   1 2pz     1 2pz     1 2pz     1 2pz     1 2pz     1 2pz     1 2pz     1 2pz     1 2pz     1 2pz  
                                   1 2pz     1 2pz     1 2pz     1 2pz     1 2pz     1 2pz     1 2pz     1 2pz     1 2pz     1 2pz  
                                   1 2pz     1 2pz     1 2pz     1 2pz     1 2pz     1 2pz     1 2pz     1 2pz     1 2pz     1 2pz  
                                   1 2pz     1 2pz     1 2pz     1 2pz     1 2pz     1 2pz     1 2pz     1 4f0     1 4f2+    1 4f0  
                                   1 4f2+    1 4f0     1 4f2+    1 4f0     1 4f2+    1 4f0     1 4f2+    1 4f0     1 4f2+    1 4f0  
                                   1 4f2+    1 4f0     1 4f2+    1 4f0     1 4f2+    1 4f0     1 4f2+    1 4f0     1 4f2+    1 4f0  
                                   1 4f2+ 

   1.5   2  -271.9832 -797.4667  0.000012  0.000002  0.000028  0.000033  0.000094  0.000160  0.000334  0.000655  0.001194  0.004173
                                 0.001985  0.014677  0.043391  0.124481  0.297002  0.417766  0.253863  0.026055 -0.014676 -0.040054
                                -0.014901 -0.006336 -0.001016  0.000509 -0.000341  0.000337  0.002998  0.014785  0.038310  0.020669
                                 0.004943  0.003922 -0.000113 -0.000407  0.000297  0.000030 -0.000005  0.000002  0.000000 -0.000005
                                -0.000000 -0.000007 -0.000000 -0.000001 -0.000000  0.000000  0.000000  0.000007  0.000000  0.000005
                                 0.000000 -0.000000 -0.000000  0.000000  0.000000 -0.000000 -0.000000  0.000000  0.000000 -0.000000
                                -0.000000

   2.5   2   -57.7822 -280.5505 -0.000006 -0.000001 -0.000014 -0.000016 -0.000046 -0.000078 -0.000165 -0.000322 -0.000596 -0.002063
                                -0.001035 -0.007329 -0.022274 -0.065599 -0.166605 -0.239548 -0.050844  0.339618  0.389071 -0.019555
                                 0.013884  0.009188  0.001611 -0.000832  0.000566 -0.000566  0.130162  0.185611  0.110787 -0.013366
                                -0.006652 -0.005913  0.000192  0.000687 -0.000501 -0.000051  0.000009  0.000021  0.000000  0.000026
                                 0.000000  0.000009  0.000000  0.000001 -0.000000 -0.000000 -0.000000 -0.000009 -0.000000 -0.000004
                                -0.000000  0.000000 -0.000000 -0.000000 -0.000000  0.000000  0.000000 -0.000000 -0.000000  0.000000
                                 0.000000

   3.5   2   -10.4885 -118.6546  0.000003  0.000001  0.000007  0.000008  0.000022  0.000037  0.000079  0.000153  0.000288  0.000981
                                 0.000517  0.003494  0.010773  0.031779  0.082219  0.117957  0.016479 -0.169859 -0.147066  0.434639
                                 0.182764 -0.151673 -0.022843  0.011655 -0.007991  0.008059 -0.123158 -0.270358  0.080546  0.400881
                                 0.179621  0.090861 -0.002774 -0.009837  0.007208  0.000741 -0.000132  0.000023  0.000000  0.000072
                                 0.000000  0.000079  0.000000  0.000147  0.000000  0.000010  0.000000  0.000092  0.000000  0.000174
                                 0.000000 -0.000004 -0.000000  0.000003 -0.000000 -0.000002 -0.000000  0.000001  0.000000 -0.000000
                                -0.000000

   4.5   2    -1.0707  -46.9936 -0.000001 -0.000000 -0.000002 -0.000003 -0.000008 -0.000014 -0.000029 -0.000056 -0.000106 -0.000359
                                -0.000190 -0.001279 -0.003952 -0.011669 -0.030286 -0.043476 -0.005057  0.065503  0.047431 -0.219633
                                -0.059516  0.197924  0.319440  0.077425  0.009271 -0.003563  0.049164  0.114559 -0.070196 -0.267284
                                 0.191388  0.393321  0.001792  0.005574 -0.004369 -0.000502  0.000092  0.000623  0.000000  0.001475
                                 0.000000  0.003135  0.000000  0.004045  0.000000  0.004604  0.000000  0.000012  0.000000 -0.001097
                                -0.000000  0.000151  0.000000  0.001153  0.000000 -0.000687 -0.000000  0.000390 -0.000000 -0.000135
                                 0.000000

   5.5   +    -0.4803  -77.8951 -0.000000  0.000000  0.000000 -0.000000  0.000000 -0.000000  0.000000 -0.000000  0.000000  0.000000
                                 0.000000  0.000000  0.000000  0.000000  0.000000  0.000000  0.000000 -0.000000 -0.000000  0.000000
                                -0.000000 -0.000000 -0.000000 -0.000000  0.000000 -0.000000 -0.000000 -0.000000  0.000000  0.000000
                                -0.000000 -0.000000  0.000000  0.000000 -0.000000 -0.000000  0.000000  0.000000  0.105079  0.000000
                                 0.221345  0.000000  0.307992  0.000000  0.373606  0.000000  0.228601  0.000000  0.087288  0.000000
                                 0.077685 -0.000000 -0.015068  0.000000  0.062199 -0.000000 -0.038584  0.000000  0.023049 -0.000000
                                -0.008305

   6.5   +    -0.4835  -77.9831  0.000000  0.000000  0.000000  0.000000  0.000000  0.000000  0.000000  0.000000  0.000001  0.000002
                                 0.000001  0.000008  0.000024  0.000071  0.000183  0.000263  0.000028 -0.000462 -0.000403  0.000653
                                -0.000158 -0.000926 -0.003535 -0.001861 -0.000177 -0.000167 -0.000283 -0.000589  0.001048  0.002239
                                -0.000931 -0.002753  0.000042  0.000182 -0.000116 -0.000011  0.000002  0.105173 -0.000000  0.221561
                                -0.000000  0.308357 -0.000000  0.374245 -0.000000  0.227714 -0.000000  0.087309 -0.000000  0.077728
                                -0.000000 -0.016995  0.000000  0.061279 -0.000000 -0.038721  0.000000  0.023006 -0.000000 -0.008293
                                 0.000000

   7.5   0    -0.0374  -13.2687 -0.000000 -0.000000 -0.000001 -0.000001 -0.000002 -0.000003 -0.000007 -0.000013 -0.000024 -0.000081
                                -0.000043 -0.000290 -0.000894 -0.002643 -0.006852 -0.009866 -0.000927  0.016658  0.012917 -0.032989
                                 0.014110  0.119601  0.117312  0.033859 -0.307463 -0.301192  0.010491  0.023942 -0.030980 -0.091577
                                 0.032233  0.064612 -0.134192 -0.303542 -0.113281 -0.020819 -0.002510 -0.000024  0.000000 -0.000022
                                 0.000000  0.000161  0.000000  0.000265  0.000000 -0.000116  0.000000 -0.000111  0.000000 -0.000315
                                -0.000000 -0.000086 -0.000000 -0.004847 -0.000000 -0.003978 -0.000000 -0.002301 -0.000000 -0.000756
                                 0.000000

   8.5   0     0.0051   -2.9798 -0.000000 -0.000000 -0.000000 -0.000000 -0.000000 -0.000001 -0.000001 -0.000002 -0.000004 -0.000013
                                -0.000005 -0.000048 -0.000140 -0.000426 -0.001077 -0.001628  0.000379  0.008349  0.009850  0.046576
                                 0.062889  0.186543  0.136646 -0.165266  0.253344 -0.998775 -0.000445 -0.004328 -0.045725 -0.075932
                                -0.064519 -0.156942  3.082917  2.413317 -3.469410 -2.504381  2.066285 -0.000002  0.000000 -0.000000
                                 0.000000  0.000031  0.000000  0.000048  0.000000 -0.000019  0.000000 -0.000017 -0.000000 -0.000050
                                -0.000000 -0.000012 -0.000000 -0.000859 -0.000000 -0.000464  0.000000 -0.000670 -0.000000  0.000750
                                 0.000000

                                   1 3d1+    1 3d1+    1 3d1+    1 3d1+    1 3d1+    1 3d1+    1 3d1+    1 3d1+    1 3d1+    1 3d1+ 
                                   1 3d1+    1 3d1+    1 3d1+    1 3d1+    1 3d1+    1 3d1+    1 3d1+    1 3d1+    1 3d1+    1 3d1+ 
                                   1 3d1+    1 3d1+    1 5g1+    1 5g3+    1 5g1+    1 5g3+    1 5g1+    1 5g3+    1 5g1+    1 5g3+ 
                                   1 5g1+    1 5g3+    1 5g1+    1 5g3+    1 5g1+    1 5g3+    1 5g1+    1 5g3+    1 5g1+    1 5g3+ 


   1.6   2   -43.8416 -259.0976  0.010156  0.036089  0.143088  0.322541  0.513308  0.541042 -0.170779  0.020795  0.014239  0.001709
                                -0.146871 -0.413530  0.377250 -0.019272 -0.005352 -0.001427  0.001200 -0.000780  0.000446 -0.000162
                                 0.000069 -0.000020  0.000027 -0.000004 -0.000016  0.000003  0.000014 -0.000003 -0.000010  0.000002
                                 0.000006 -0.000001 -0.000004  0.000001  0.000002 -0.000000 -0.000001  0.000000  0.000000 -0.000000

   2.6   2    -5.6174 -104.0638 -0.004921 -0.017610 -0.071317 -0.161284 -0.253792 -0.308759  0.943749  0.384122  0.083433  0.006082
                                 0.129934  0.642848 -0.738663  0.066202 -0.001542 -0.004872  0.004243 -0.002843  0.001655 -0.000610
                                 0.000262 -0.000075  0.000052 -0.000006  0.000087 -0.000010  0.000220 -0.000064  0.000153 -0.000037
                                 0.000005  0.000017  0.000001  0.000002 -0.000002  0.000002  0.000001 -0.000001 -0.000000  0.000000

   3.6   0    -0.0681  -27.4419  0.001067  0.003829  0.015515  0.035262  0.052663  0.043144 -0.187367 -0.109530 -0.023257  0.318252
                                -0.024032 -0.109332  0.109129  0.074993  0.261894  0.243272  0.207898  0.141267  0.073281  0.027013
                                -0.000933  0.000734 -0.000008  0.000004  0.000011  0.000003 -0.000035  0.000055  0.000428 -0.000002
                                 0.000846  0.000531 -0.000587  0.003463  0.001453  0.002377  0.000517  0.001850  0.000329  0.000603

   4.6   0     0.0105   -3.1220 -0.000062 -0.000215 -0.000903 -0.001937 -0.004493 -0.015745  0.037845 -0.004082 -0.029866 -0.046961
                                 0.004892  0.031501 -0.044039  0.018647  0.009549  0.061746 -0.160106  0.279675 -0.382446  0.595849
                                -0.882563  1.467832  0.000001 -0.000000 -0.000002 -0.000001  0.000005 -0.000001 -0.000033 -0.000003
                                -0.000029 -0.000019 -0.000015 -0.000213  0.000005  0.000008 -0.000036 -0.000183  0.000296  0.000559

                                   1 3d1-    1 3d1-    1 3d1-    1 3d1-    1 3d1-    1 3d1-    1 3d1-    1 3d1-    1 3d1-    1 3d1- 
                                   1 3d1-    1 3d1-    1 3d1-    1 3d1-    1 3d1-    1 3d1-    1 3d1-    1 3d1-    1 3d1-    1 3d1- 
                                   1 3d1-    1 3d1-    1 5g1-    1 5g3-    1 5g1-    1 5g3-    1 5g1-    1 5g3-    1 5g1-    1 5g3- 
                                   1 5g1-    1 5g3-    1 5g1-    1 5g3-    1 5g1-    1 5g3-    1 5g1-    1 5g3-    1 5g1-    1 5g3- 


   1.7   2   -43.8416 -259.0976  0.010156  0.036089  0.143088  0.322541  0.513308  0.541042 -0.170779  0.020795  0.014239  0.001709
                                -0.146871 -0.413530  0.377250 -0.019272 -0.005352 -0.001427  0.001200 -0.000780  0.000446 -0.000162
                                 0.000069 -0.000020  0.000027  0.000004 -0.000016 -0.000003  0.000014  0.000003 -0.000010 -0.000002
                                 0.000006  0.000001 -0.000004 -0.000001  0.000002  0.000000 -0.000001 -0.000000  0.000000  0.000000

   2.7   2    -5.6174 -104.0638 -0.004921 -0.017610 -0.071317 -0.161284 -0.253792 -0.308759  0.943749  0.384122  0.083433  0.006082
                                 0.129934  0.642848 -0.738663  0.066202 -0.001542 -0.004872  0.004243 -0.002843  0.001655 -0.000610
                                 0.000262 -0.000075  0.000052  0.000006  0.000087  0.000010  0.000220  0.000064  0.000153  0.000037
                                 0.000005 -0.000017  0.000001 -0.000002 -0.000002 -0.000002  0.000001  0.000001 -0.000000 -0.000000

   3.7   0    -0.0681  -27.4419  0.001067  0.003829  0.015515  0.035262  0.052663  0.043144 -0.187367 -0.109530 -0.023257  0.318252
                                -0.024032 -0.109332  0.109129  0.074993  0.261894  0.243272  0.207898  0.141267  0.073281  0.027013
                                -0.000933  0.000734 -0.000008 -0.000004  0.000011 -0.000003 -0.000035 -0.000055  0.000428  0.000002
                                 0.000846 -0.000531 -0.000587 -0.003463  0.001453 -0.002377  0.000517 -0.001850  0.000329 -0.000603

   4.7   0     0.0105   -3.1220 -0.000062 -0.000215 -0.000903 -0.001937 -0.004493 -0.015745  0.037845 -0.004082 -0.029866 -0.046961
                                 0.004892  0.031501 -0.044039  0.018647  0.009549  0.061746 -0.160106  0.279675 -0.382446  0.595849
                                -0.882563  1.467832  0.000001  0.000000 -0.000002  0.000001  0.000005  0.000001 -0.000033  0.000003
                                -0.000029  0.000019 -0.000015  0.000213  0.000005 -0.000008 -0.000036  0.000183  0.000296 -0.000559

                                   1 4f2-    1 4f2-    1 4f2-    1 4f2-    1 4f2-    1 4f2-    1 4f2-    1 4f2-    1 4f2-    1 4f2- 
                                   1 4f2-    1 4f2- 

   1.8   +    -0.4799  -78.0545  0.105293  0.221791  0.308522  0.374350  0.226857  0.087437  0.078030 -0.018049  0.061026 -0.038785
                                 0.023054 -0.008316

   2.8   0     0.0497   -5.2145 -0.000629 -0.000314  0.004842  0.003267 -0.012194 -0.003180 -0.007810  0.034461 -0.093734  0.288663
                                -0.552368  1.308815

   3.8   0     0.1217   -7.5800 -0.002750 -0.007919 -0.021932 -0.019625  0.027925  0.003346  0.013453 -0.067384  0.281785 -0.577251
                                 2.017543 -1.185382

 HOMO     11.1    -0.153865 =      -4.1869eV
 LUMO     12.1    -0.072180 =      -1.9641eV
 LUMO-HOMO         0.081685 =       2.2228eV


 **********************************************************************************************************************************
 DATASETS  * FILE   NREC   LENGTH (MB)   RECORD NAMES
              1      23       21.92       500      610      700      900      950      970     1000      129      960     1700   
                                          VAR    BASINP    GEOM    SYMINP    ZMAT    AOBASIS   BASIS     P2S    ABASIS    OPER   
                                         1101     1401     1411     1412     1650     1100     1400     1410     1200     1210   
                                          SR      EKINR    POTR     PVPR    MOLCAS      S      EKIN      POT      H0       H01  
                                         1080     1600     1800   
                                         AOSYM     SMH     GRID   

              2       6        6.20       200      700     1000      520     1800     3202   
                                        OPTIONS   GEOM     BASIS   MCVARS    GRID      RKS  

 PROGRAMS   *        TOTAL       RKS       INT
 CPU TIMES  *       262.04      8.18    253.49
 REAL TIME  *       269.87 SEC
 DISK USED  *         7.42 GB      
 SF USED    *         0.11 MB      
 GA USED    *         0.09 MB       (max)       0.09 MB       (current)
 **********************************************************************************************************************************


 PROGRAM * RHF-SCF (OPEN SHELL)       Authors: W. Meyer, H.-J. Werner


 NUMBER OF ELECTRONS:      36+   28-    SPACE SYMMETRY=8    SPIN SYMMETRY: Nonet   
 CONVERGENCE THRESHOLDS:    1.00E-05 (Density)    1.28E-07 (Energy)
 MAX. NUMBER OF ITERATIONS:       60
 INTERPOLATION TYPE:            DIIS
 INTERPOLATION STEPS:              2 (START)      1 (STEP)
 LEVEL SHIFTS:                 -0.60 (CLOSED) -0.30 (OPEN) 

 Number of closed-shell orbitals:   28 (  10   4   4   2   4   2   2   0 )
 Number of open-shell orbitals:      8 (   1   2   2   0   2   0   0   1 )


 
 Extra symmetries of mos in symmetry 1:   1   1   1   3   2   1   3   2   1   1   3   2
 Extra symmetries of mos in symmetry 2:   1   1   1   1   3   2
 Extra symmetries of mos in symmetry 3:   1   1   1   1   3   2
 Extra symmetries of mos in symmetry 5:   1   1   1   1   3   2
 Molecular orbitals read from record     3202.2  Type=RKS/CANONICAL (state 1.8)

 Molecular orbital dump at record        4202.2

 ITERATION    DDIFF          GRAD             ENERGY        2-EL.EN.            DIPOLE MOMENTS         DIIS   ORB.
    1      0.000D+00      0.000D+00    -11266.97348314   8270.363678    0.00000    0.00000    0.00000    0    start
    2      0.000D+00      0.113D+00    -11267.00590402   8275.943960    0.00000    0.00000    0.00000    1    diag,B
    3      0.319D-01      0.151D-02    -11267.00817237   8271.606912    0.00000    0.00000    0.00000    2    diag,B
    4      0.823D-02      0.592D-03    -11267.00878276   8273.799625    0.00000    0.00000    0.00000    3    diag,B
    5      0.178D-02      0.388D-03    -11267.00913072   8272.941394    0.00000    0.00000    0.00000    4    diag,B
    6      0.110D-02      0.145D-03    -11267.00940793   8272.467066    0.00000    0.00000    0.00000    5    diag,B
    7      0.996D-03      0.864D-04    -11267.00953037   8272.376768    0.00000    0.00000    0.00000    6    diag,B
    8      0.645D-03      0.446D-04    -11267.00958528   8272.187410    0.00000    0.00000    0.00000    7    orth
    9      0.561D-03      0.185D-04    -11267.00959268   8272.157940    0.00000    0.00000    0.00000    8    diag,B
   10      0.898D-03      0.946D-05    -11267.00959496   8272.131578    0.00000    0.00000    0.00000    9    diag,B
   11      0.883D-03      0.460D-05    -11267.00959545   8272.128443    0.00000    0.00000    0.00000    9    diag,B
   12      0.607D-03      0.277D-05    -11267.00959566   8272.124168    0.00000    0.00000    0.00000    9    diag,B
   13      0.399D-03      0.161D-05    -11267.00959573   8272.125911    0.00000    0.00000    0.00000    9    diag,B
   14      0.174D-03      0.986D-06    -11267.00959576   8272.126194    0.00000    0.00000    0.00000    9    diag,B
   15      0.322D-03      0.512D-06    -11267.00959576   8272.126675    0.00000    0.00000    0.00000    9    diag,B
   16      0.246D-03      0.249D-06    -11267.00959577   8272.126771    0.00000    0.00000    0.00000    9    diag,B
   17      0.552D-04      0.123D-06    -11267.00959577   8272.126784    0.00000    0.00000    0.00000    9    diag,B
   18      0.928D-04      0.545D-07    -11267.00959577   8272.126830    0.00000    0.00000    0.00000    9    orth
   19      0.667D-04      0.263D-07    -11267.00959577   8272.126774    0.00000    0.00000    0.00000    9    diag,B
   20      0.187D-04      0.130D-07    -11267.00959577   8272.126746    0.00000    0.00000    0.00000    9    diag,B
   21      0.252D-05      0.728D-08    -11267.00959577   8272.126749    0.00000    0.00000    0.00000    0    orth

 Final alpha occupancy:  11   6   6   2   6   2   2   1
 Final beta  occupancy:  10   4   4   2   4   2   2   0

 !RHF STATE 1.8 Energy               -11267.0095957661    
 Nuclear energy                         0.00000000
 One-electron energy               -15403.07297009
 Two-electron energy                 4136.06337433
 Virial quotient                       -0.78360573
 !RHF STATE 1.8 Dipole moment           0.00000000     0.00000000     0.00000000
 Dipole moment /Debye                   0.00000000     0.00000000     0.00000000

 ELECTRON ORBITALS
 =================


   Orb  Occ    Energy  Couls-En    Coefficients

                                   1 1s      1 1s      1 1s      1 1s      1 1s      1 1s      1 1s      1 1s      1 1s      1 1s   
                                   1 1s      1 1s      1 1s      1 1s      1 1s      1 1s      1 1s      1 1s      1 1s      1 1s   
                                   1 1s      1 1s      1 1s      1 1s      1 1s      1 1s      1 1s      1 1s      1 1s      1 1s   
                                   1 1s      1 1s      1 1s      1 1s      1 1s      1 1s      1 1s      1 1s      1 3d0     1 3d2+ 
                                   1 3d0     1 3d2+    1 3d0     1 3d2+    1 3d0     1 3d2+    1 3d0     1 3d2+    1 3d0     1 3d2+ 
                                   1 3d0     1 3d2+    1 3d0     1 3d2+    1 3d0     1 3d2+    1 3d0     1 3d2+    1 3d0     1 3d2+ 
                                   1 3d0     1 3d2+    1 3d0     1 3d2+    1 3d0     1 3d2+    1 3d0     1 3d2+    1 3d0     1 3d2+ 
                                   1 3d0     1 3d2+    1 3d0     1 3d2+    1 3d0     1 3d2+    1 3d0     1 3d2+    1 3d0     1 3d2+ 
                                   1 3d0     1 3d2+    1 5g0     1 5g4+    1 5g2+    1 5g0     1 5g4+    1 5g2+    1 5g0     1 5g4+ 
                                   1 5g2+    1 5g0     1 5g4+    1 5g2+    1 5g0     1 5g4+    1 5g2+    1 5g0     1 5g4+    1 5g2+ 
                                   1 5g0     1 5g4+    1 5g2+    1 5g0     1 5g4+    1 5g2+    1 5g0     1 5g4+    1 5g2+ 

   1.1   2 -1855.7957-4029.3358  0.000378  0.000162  0.001374  0.003951  0.007271  0.013555  0.025766  0.050323  0.101575  0.199605
                                 0.335904  0.343651  0.145949  0.063933 -0.008681  0.007230 -0.028319 -0.031897 -0.019192  0.016149
                                 0.018539 -0.002216 -0.005978 -0.003849 -0.001466  0.015514  0.014988 -0.037652 -0.081848  0.031789
                                 0.035618 -0.026384  0.003067  0.006979  0.002200  0.000066 -0.000023  0.000005  0.000000  0.000000
                                 0.000000  0.000000 -0.000000 -0.000000 -0.000000  0.000000  0.000000 -0.000000  0.000000 -0.000000
                                -0.000000  0.000000  0.000000 -0.000000  0.000000 -0.000000  0.000000 -0.000000 -0.000000  0.000000
                                -0.000000  0.000000  0.000000 -0.000000 -0.000000  0.000000 -0.000000  0.000000 -0.000000  0.000000
                                 0.000000 -0.000000 -0.000000  0.000000  0.000000 -0.000000 -0.000000  0.000000  0.000000 -0.000000
                                -0.000000  0.000000  0.000000  0.000000  0.000000 -0.000000 -0.000000 -0.000000  0.000000  0.000000
                                -0.000000 -0.000000 -0.000000  0.000000  0.000000  0.000000 -0.000000 -0.000000 -0.000000 -0.000000
                                 0.000000  0.000000  0.000000 -0.000000 -0.000000 -0.000000  0.000000  0.000000  0.000000

   2.1   2  -310.8999 -859.4717 -0.000137 -0.000059 -0.000499 -0.001440 -0.002668 -0.005007 -0.009688 -0.019227 -0.040879 -0.080327
                                -0.146003 -0.154093  0.138577  0.601969  0.419779  0.033223  0.013453  0.048972  0.035229 -0.031592
                                -0.037655  0.004627  0.012675  0.008191  0.003128 -0.016683 -0.050923 -0.078969  0.001340 -0.027842
                                -0.059733  0.053160 -0.006473 -0.014828 -0.004692 -0.000141  0.000049 -0.000011  0.000000  0.000000
                                 0.000001  0.000000  0.000003  0.000000  0.000001 -0.000000  0.000002  0.000000  0.000004  0.000000
                                -0.000002 -0.000000  0.000000  0.000000  0.000000  0.000000  0.000000  0.000000 -0.000002 -0.000000
                                -0.000005 -0.000000  0.000005  0.000000 -0.000000 -0.000000 -0.000000 -0.000000 -0.000000 -0.000000
                                 0.000000  0.000000 -0.000000 -0.000000  0.000000  0.000000 -0.000000 -0.000000  0.000000  0.000000
                                -0.000000 -0.000000 -0.000000 -0.000001 -0.000000  0.000000  0.000000  0.000000 -0.000000 -0.000000
                                -0.000000  0.000000  0.000000  0.000000 -0.000000 -0.000000 -0.000000  0.000000  0.000000  0.000000
                                -0.000000 -0.000000 -0.000000  0.000000  0.000000  0.000000 -0.000000 -0.000000 -0.000000

   3.1   2   -70.8252 -302.6620  0.000064  0.000027  0.000232  0.000669  0.001242  0.002327  0.004535  0.008951  0.019485  0.034545
                                 0.055425  0.028434 -0.208030 -0.821049 -0.326596  0.921712  0.053166 -0.491723 -0.355041  0.320147
                                 0.385930 -0.048213 -0.134026 -0.087021 -0.033359  0.014547  0.054519  0.131741  0.281824  0.482056
                                 0.607769 -0.543058  0.068113  0.157205  0.049999  0.001506 -0.000528  0.000114  0.000001  0.000000
                                 0.000002  0.000000  0.000007  0.000000  0.000022  0.000000  0.000029  0.000000  0.000035 -0.000000
                                 0.000003  0.000000  0.000001 -0.000000  0.000000 -0.000000  0.000000 -0.000000  0.000017  0.000000
                                -0.000006  0.000000 -0.000001 -0.000000  0.000001  0.000000 -0.000000  0.000000 -0.000000  0.000000
                                 0.000000 -0.000000 -0.000000  0.000000  0.000000 -0.000000 -0.000000 -0.000000  0.000000  0.000000
                                -0.000000 -0.000000 -0.000001 -0.000004 -0.000000  0.000001  0.000008  0.000000 -0.000001 -0.000007
                                -0.000000  0.000001  0.000003  0.000000 -0.000001 -0.000003 -0.000000  0.000000  0.000001  0.000000
                                -0.000000 -0.000001 -0.000000  0.000000  0.000000  0.000000 -0.000000 -0.000000 -0.000000

   4.1   2   -45.5202 -260.8637  0.000000 -0.000000 -0.000000 -0.000000 -0.000000 -0.000000 -0.000000 -0.000000 -0.000000 -0.000000
[...]
                                -0.131834 -0.381834  0.346186 -0.017407 -0.004803 -0.001278  0.001085 -0.000700  0.000402 -0.000145
                                 0.000062 -0.000018  0.000000  0.000000  0.000000  0.000000  0.000000  0.000000  0.000000  0.000000
                                 0.000000  0.000000  0.000000  0.000000  0.000000  0.000000  0.000000  0.000000  0.000000  0.000000

   2.7  2.00000    -6.220293    -0.004888 -0.017271 -0.070688 -0.158626 -0.254028 -0.302870  0.941831  0.389977  0.085167  0.007387
                                 0.127486  0.633941 -0.734523  0.059974 -0.000629 -0.005396  0.004777 -0.003167  0.001848 -0.000677
                                 0.000290 -0.000083  0.000000  0.000000  0.000000  0.000000  0.000000  0.000000  0.000000  0.000000
                                 0.000000  0.000000  0.000000  0.000000  0.000000  0.000000  0.000000  0.000000  0.000000  0.000000

   3.7  0.20000     0.086476     0.001155  0.004089  0.016764  0.037706  0.058791  0.057044 -0.228274 -0.115909 -0.003439  0.375902
                                -0.028782 -0.138810  0.152384  0.067791  0.265882  0.273871  0.160524  0.107717  0.011041  0.006947
                                -0.002363  0.000677  0.000000  0.000000  0.000000  0.000000  0.000000  0.000000  0.000000  0.000000
                                 0.000000  0.000000  0.000000  0.000000  0.000000  0.000000  0.000000  0.000000  0.000000  0.000000

                                   1 4f2-    1 4f2-    1 4f2-    1 4f2-    1 4f2-    1 4f2-    1 4f2-    1 4f2-    1 4f2-    1 4f2- 
                                   1 4f2-    1 4f2- 

   1.8  1.00000    -0.120728     0.104501  0.222197  0.308778  0.371127  0.211175  0.089924  0.089858 -0.023579  0.049231 -0.032943
                                 0.018858 -0.006617
 
 *** IN SYMMETRY 1 ORBITAL  4 SYMMETRY CONTAMINATION OF 0.225D-03 HAS BEEN REMOVED
 *** IN SYMMETRY 1 ORBITAL  5 SYMMETRY CONTAMINATION OF 0.225D-03 HAS BEEN REMOVED
 *** IN SYMMETRY 1 ORBITAL  7 SYMMETRY CONTAMINATION OF 0.418D-04 HAS BEEN REMOVED
 *** IN SYMMETRY 1 ORBITAL  8 SYMMETRY CONTAMINATION OF 0.418D-04 HAS BEEN REMOVED

 EXTRA SYMMETRY OF MOS IN SYMMETRY 1:   1 1 1 3 2 1 2 3 1 1   3 2 1 2 3 1 2 3 1 2   3 1 2 3 1 6 4 5 2 3   1 4 6 5 1 2 3 4 6 5
                                        1 2 3 4 6 5 1 2 3 5   6 4 1 2 3 5 4 6 1 2   3 5 6 4 1 2 3 5 6 4   1 2 3 5 6 4 1 2 3 1
                                        2 3 3 2 1 3 2 3 2 1   1 3 2 1 3 2 1 1 1 1   1 1 1 1 1 1 1 1 1
 EXTRA SYMMETRY OF MOS IN SYMMETRY 2:   1 1 1 1 2 3 1 1 1 3   2 1 1 2 3 1 3 2 1 3   2 1 2 3 1 3 2 1 3 2   1 1 3 2 1 2 3 1 2 3
                                        1 2 3 1 1 1 1 1 1 1   1 1 1 1 1 1 1 1 1 1   1
 EXTRA SYMMETRY OF MOS IN SYMMETRY 3:   1 1 1 1 2 3 1 1 3 1   2 1 1 2 3 1 2 3 1 3   2 1 2 3 1 3 2 1 3 2   1 1 3 2 1 3 2 1 3 2
                                        1 2 3 1 1 1 1 1 1 1   1 1 1 1 1 1 1 1 1 1   1
 EXTRA SYMMETRY OF MOS IN SYMMETRY 4:   1 1 1 1 1 1 1 2 3 1   2 3 1 2 3 1 3 2 1 3   2 1 3 2 1 3 2 1 3 2   1 3 2 1 1 1 1 1 1 1
 EXTRA SYMMETRY OF MOS IN SYMMETRY 5:   1 1 1 1 2 3 1 1 1 3   2 1 1 3 2 1 3 2 1 2   3 1 2 3 1 3 2 1 3 2   1 1 3 2 1 2 3 1 2 3
                                        1 2 3 1 1 1 1 1 1 1   1 1 1 1 1 1 1 1 1 1   1
 EXTRA SYMMETRY OF MOS IN SYMMETRY 6:   1 1 1 1 1 1 1 3 2 1   2 3 1 2 3 1 3 2 1 3   2 1 3 2 1 3 2 1 3 2   1 3 2 1 1 1 1 1 1 1
 EXTRA SYMMETRY OF MOS IN SYMMETRY 7:   1 1 1 1 1 1 1 2 3 1   2 3 1 2 3 1 3 2 1 3   2 1 3 2 1 3 2 1 3 2   1 3 2 1 1 1 1 1 1 1

 Natural orbital dump (state averaged) at molpro section  5202.2    (Orbital set 2)


 CI vector for state symmetry 1
 ==============================

 0/ // // 0 // 0 0 /      0.9885241   0.1510630
 /0 // // 0 // 0 0 /     -0.1510630   0.9885241

 CI vector for state symmetry 2
 ==============================

 00 // // / // 0 0 /      1.0000000

 CI vector for state symmetry 3
 ==============================

 00 // // 0 // / 0 /      1.0000000

 CI vector for state symmetry 4
 ==============================

 00 // // 0 // 0 / /      1.0000000


 **********************************************************************************************************************************
 DATASETS  * FILE   NREC   LENGTH (MB)   RECORD NAMES
              1      24      251.27       500      610      700      900      950      970     1000      129      960     1700   
                                          VAR    BASINP    GEOM    SYMINP    ZMAT    AOBASIS   BASIS     P2S    ABASIS    OPER   
                                         1101     1401     1411     1412     1650     1100     1400     1410     1200     1210   
                                          SR      EKINR    POTR     PVPR    MOLCAS      S      EKIN      POT      H0       H01  
                                         1080     1600     1800     1380   
                                         AOSYM     SMH     GRID     JKOP   

              2       8       13.34       200      700     1000      520     1800     3202     4202     5202   
                                        OPTIONS   GEOM     BASIS   MCVARS    GRID      RKS      RHF     MCSCF   

 PROGRAMS   *        TOTAL     MULTI       POP       RHF       RKS       INT
 CPU TIMES  *       293.45     25.22      0.01      6.18      8.18    253.49
 REAL TIME  *       317.18 SEC
 DISK USED  *         7.44 GB      
 SF USED    *       889.02 MB      
 GA USED    *         0.09 MB       (max)       0.09 MB       (current)
 **********************************************************************************************************************************


 PROGRAM * RHF-SCF (OPEN SHELL)       Authors: W. Meyer, H.-J. Werner


 NUMBER OF ELECTRONS:      36+   28-    SPACE SYMMETRY=8    SPIN SYMMETRY: Nonet   
 CONVERGENCE THRESHOLDS:    1.00E-05 (Density)    1.28E-07 (Energy)
 MAX. NUMBER OF ITERATIONS:        0
 INTERPOLATION TYPE:            DIIS
 INTERPOLATION STEPS:              2 (START)      1 (STEP)
 LEVEL SHIFTS:                 -0.60 (CLOSED) -0.30 (OPEN) 

 Number of closed-shell orbitals:   28 (  10   4   4   2   4   2   2   0 )
 Number of open-shell orbitals:      8 (   1   2   2   0   2   0   0   1 )


 Molecular orbitals read from record     5202.2  Type=MCSCF/NATURAL  

 Molecular orbital dump at record        2102.2

 ITERATION    DDIFF          GRAD             ENERGY        2-EL.EN.            DIPOLE MOMENTS         DIIS   ORB.
    1      0.000D+00      0.000D+00    -11267.00730410   8272.014299    0.00000    0.00000    0.00000    0    start

 Final alpha occupancy:  11   6   6   2   6   2   2   1
 Final beta  occupancy:  10   4   4   2   4   2   2   0

 !RHF STATE 1.8 Energy               -11267.0073041031    
 Nuclear energy                         0.00000000
 One-electron energy               -15403.01445376
 Two-electron energy                 4136.00714966
 Virial quotient                       -0.78360565
 !RHF STATE 1.8 Dipole moment           0.00000000     0.00000000     0.00000000
 Dipole moment /Debye                   0.00000000     0.00000000     0.00000000

 Orbital energies:

         1.1          2.1          3.1          4.1          5.1          6.1          7.1          8.1          9.1         10.1
  -1855.796642  -310.900916   -70.826111   -45.521091   -45.521091   -15.133948    -6.220293    -6.220293    -2.237106    -0.197087

        11.1         12.1         13.1
      0.086476     0.086476     0.002842

         1.2          2.2          3.2          4.2          5.2          6.2          7.2          8.2
   -276.853437   -60.020011   -11.462579    -1.242753    -0.120728    -0.120728     0.004900     0.013268

         1.3          2.3          3.3          4.3          5.3          6.3          7.3          8.3
   -276.853437   -60.020011   -11.462579    -1.242753    -0.120728    -0.120728     0.004900     0.013268

         1.4          2.4          3.4          4.4
    -45.521091    -6.220293     0.086476     0.011476

         1.5          2.5          3.5          4.5          5.5          6.5          7.5          8.5
   -276.853437   -60.020011   -11.462579    -1.242753    -0.120728    -0.120728     0.004900     0.013268

         1.6          2.6          3.6          4.6
    -45.521091    -6.220293     0.086476     0.011476

         1.7          2.7          3.7          4.7
    -45.521091    -6.220293     0.086476     0.011476

         1.8          2.8          3.8
     -0.120728     0.059622     0.156000

 HOMO     11.1     0.086476 =       2.3531eV
 LUMO      7.2     0.004900 =       0.1333eV
 LUMO-HOMO        -0.081575 =      -2.2198eV


 **********************************************************************************************************************************
 DATASETS  * FILE   NREC   LENGTH (MB)   RECORD NAMES
              1      24      251.27       500      610      700      900      950      970     1000      129      960     1700   
                                          VAR    BASINP    GEOM    SYMINP    ZMAT    AOBASIS   BASIS     P2S    ABASIS    OPER   
                                         1101     1401     1411     1412     1650     1100     1400     1410     1200     1210   
                                          SR      EKINR    POTR     PVPR    MOLCAS      S      EKIN      POT      H0       H01  
                                         1080     1600     1800     1380   
                                         AOSYM     SMH     GRID     JKOP   

              2       9       17.32       200      700     1000      520     1800     3202     4202     5202     2102   
                                        OPTIONS   GEOM     BASIS   MCVARS    GRID      RKS      RHF     MCSCF     RHF  

 PROGRAMS   *        TOTAL       RHF     MULTI       POP       RHF       RKS       INT
 CPU TIMES  *       293.73      0.28     25.22      0.01      6.18      8.18    253.49
 REAL TIME  *       317.87 SEC
 DISK USED  *         7.44 GB      
 SF USED    *       889.02 MB      
 GA USED    *         0.09 MB       (max)       0.09 MB       (current)
 **********************************************************************************************************************************
 SETTING SCF(1)         =    -11267.00730410  AU                              
 SETTING _CC_NORM_MAX   =         2.00000000                                  


 PROGRAM * CCSD (Restricted open-shell coupled cluster)     Authors: C. Hampel, H.-J. Werner, 1991, M. Deegan, P.J. Knowles, 1992


 Convergence thresholds:  THRVAR = 1.00D-08  THRDEN = 1.28D-06

 CCSD(T)     terms to be evaluated (factor= 1.000)


 Number of closed-shell orbitals:  28 (  10   4   4   2   4   2   2   0 )
 Number of active  orbitals:        8 (   1   2   2   0   2   0   0   1 )
 Number of external orbitals:     388 (  98  55  55  38  55  38  38  11 )

 Memory could be reduced to 449.22 Mwords without degradation in triples

 Number of N-1 electron functions:              64
 Number of N-2 electron functions:            2016
 Number of singly external CSFs:              4257
 Number of doubly external CSFs:          30601992
 Total number of CSFs:                    30606249

 Molecular orbitals read from record     2102.2  Type=RHF/CANONICAL (state 1.8)

 Integral transformation finished. Total CPU:   9.90 sec, npass=  1  Memory used: 102.51 MW

 Starting RMP2 calculation

 Wavefunction is spin-projected

 ITER.      SQ.NORM     CORR.ENERGY   TOTAL ENERGY   ENERGY CHANGE        DEN1      VAR(S)    VAR(P)  DIIS     TIME
   1      1.18981671    -2.93332743-11269.94063154    -2.93332743    -0.00827287  0.16D-03  0.37D-02  1  1    13.17
   2      1.20205823    -2.94246196-11269.94976606    -0.00913453    -0.00052847  0.33D-04  0.43D-03  2  2    16.14
   3      1.20829262    -2.94462597-11269.95193007    -0.00216401    -0.00003381  0.63D-05  0.25D-04  3  3    19.32
   4      1.21000164    -2.94497825-11269.95228236    -0.00035228    -0.00000181  0.12D-05  0.65D-06  4  4    22.42
   5      1.21018464    -2.94500264-11269.95230674    -0.00002439    -0.00000024  0.24D-06  0.30D-07  5  5    25.72
   6      1.21021063    -2.94500352-11269.95230763    -0.00000088    -0.00000003  0.23D-07  0.60D-08  6  6    29.25
   7      1.21021535    -2.94500357-11269.95230767    -0.00000005    -0.00000000  0.90D-09  0.97D-09  6  1    32.72

 Norm of t1 vector:      0.06310182      S-energy:    -0.00698496      T1 diagnostic:  0.00368441
 Norm of t2 vector:      0.45412939      P-energy:    -2.93801861
                                         Alpha-Beta:  -1.82628781
                                         Alpha-Alpha: -0.68499591
                                         Beta-Beta:   -0.42673489

 Spin contamination <S**2-Sz**2-Sz>     0.00000000
  Reference energy                   -11267.0073041032    
  RHF-RMP2 correlation energy          -2.945003571261
 !RHF-RMP2 energy                    -11269.9523076744    
 (NB above energy spin projected)

 Starting RCCSD calculation

 ITER.      SQ.NORM     CORR.ENERGY   TOTAL ENERGY   ENERGY CHANGE        DEN1      VAR(S)    VAR(P)  DIIS     TIME
   1      1.15291007    -2.67769344-11269.68499754    -2.67769344    -0.05965306  0.33D-02  0.63D-02  0  0    83.84
   2      1.17589422    -2.73289584-11269.74019994    -0.05520240    -0.00451177  0.56D-03  0.13D-02  1  1   132.59
   3      1.18435914    -2.72898821-11269.73629231     0.00390763    -0.00108252  0.41D-03  0.47D-03  2  2   181.85
   4      1.19927561    -2.73350310-11269.74080720    -0.00451488    -0.00026090  0.14D-03  0.11D-03  3  3   233.01
   5      1.20799920    -2.73499469-11269.74229880    -0.00149160    -0.00009333  0.63D-04  0.31D-04  4  4   283.20
   6      1.21587579    -2.73568744-11269.74299155    -0.00069275    -0.00002485  0.19D-04  0.65D-05  5  5   334.88
   7      1.21977790    -2.73600505-11269.74330915    -0.00031760    -0.00001023  0.77D-05  0.28D-05  6  6   386.63
   8      1.22192440    -2.73612484-11269.74342895    -0.00011980    -0.00000455  0.37D-05  0.11D-05  7  7   437.55
   9      1.22329912    -2.73614926-11269.74345337    -0.00002442    -0.00000185  0.17D-05  0.26D-06  8  8   489.87
  10      1.22399052    -2.73616600-11269.74347010    -0.00001673    -0.00000089  0.79D-06  0.18D-06  9  9   541.72
  11      1.22436048    -2.73616301-11269.74346711     0.00000298    -0.00000039  0.25D-06  0.15D-06 10 10   593.96
  12      1.22465278    -2.73617351-11269.74347761    -0.00001049    -0.00000011  0.65D-07  0.47D-07 11 11   644.55
  13      1.22476685    -2.73617753-11269.74348164    -0.00000403    -0.00000004  0.24D-07  0.13D-07 12 12   698.44
  14      1.22480701    -2.73617827-11269.74348237    -0.00000073    -0.00000001  0.90D-08  0.31D-08 13 13   751.55
  15      1.22482146    -2.73617873-11269.74348284    -0.00000047    -0.00000000  0.31D-08  0.95D-09 14 14   813.86

 Norm of t1 vector:      0.17973362      S-energy:    -0.00858606      T1 diagnostic:  0.01465107
                                                                       D1 diagnostic:  0.10700741
 Norm of t2 vector:      0.43876792      P-energy:    -2.72759268
                                         Alpha-Beta:  -1.74353807
                                         Alpha-Alpha: -0.59684108
                                         Beta-Beta:   -0.38721353

 Singles amplitudes (print threshold =  0.500E-01):

         I         SYM. A    A   T(IA) [Alpha-Alpha]

        10         1        12      0.05667484
        10         1        15     -0.05339998
 
         I         SYM. A    A   T(IA) [Beta-Beta]

        10         1         2      0.08978041

 Spin contamination <S**2-Sz**2-Sz>     0.00000000

 Memory could be reduced to 510.40 Mwords without degradation in triples
 

  Correlated core orbitals:             1.1       2.1       3.1       4.1       5.1       6.1       7.1       8.1       1.2       2.2
                                        3.2       1.3       2.3       3.3       1.4       2.4       1.5       2.5       3.5       1.6
                                        2.6       1.7       2.7
  Orbital energies:                 -1855.7967 -310.9042  -70.9066  -45.6211  -45.6192  -15.3547   -6.5453   -6.5470 -276.8565  -60.1094
                                      -11.7055 -276.8565  -60.1094  -11.7055  -45.6153   -6.5343 -276.8562  -60.1131  -11.7133  -45.6182
                                       -6.5425  -45.6182   -6.5425
 
  RCCSD core-core energy               -1.527185608510
  RCCSD core-valence energy            -0.637692833618
  RCCSD valence correlation energy     -0.571300290797
 

 RESULTS
 =======

  Reference energy                   -11267.0073041032    
  RCCSD singles energy                 -0.008586055447
  RCCSD pair energy                    -2.727592677478
  RCCSD correlation energy             -2.736178732925
  Triples (T) contribution             -0.046310090444
  Total correlation energy             -2.782488823369
 
  RHF-RCCSD energy                   -11269.7434828361    
  RHF-RCCSD[T] energy                -11269.7920003029    
  RHF-RCCSD-T energy                 -11269.7895284746    
 !RHF-RCCSD(T) energy                -11269.7897929265    

 Program statistics:

 Available memory in ccsd:              1999989172
 Min. memory needed in ccsd:              84499364
 Max. memory used in ccsd:               124418882
 Max. memory used in cckext:              97219455 (15 integral passes)
 Max. memory used in cckint:             102512566 ( 1 integral passes)



 **********************************************************************************************************************************
 DATASETS  * FILE   NREC   LENGTH (MB)   RECORD NAMES
              1      24      251.27       500      610      700      900      950      970     1000      129      960     1700   
                                          VAR    BASINP    GEOM    SYMINP    ZMAT    AOBASIS   BASIS     P2S    ABASIS    OPER   
                                         1101     1401     1411     1412     1650     1100     1400     1410     1200     1210   
                                          SR      EKINR    POTR     PVPR    MOLCAS      S      EKIN      POT      H0       H01  
                                         1080     1600     1800     1380   
                                         AOSYM     SMH     GRID     JKOP   

              2       9       17.32       200      700     1000      520     1800     3202     4202     5202     2102   
                                        OPTIONS   GEOM     BASIS   MCVARS    GRID      RKS      RHF     MCSCF     RHF  

 PROGRAMS   *        TOTAL  RCCSD(T)       RHF     MULTI       POP       RHF       RKS       INT
 CPU TIMES  *      4110.35   3816.58      0.28     25.22      0.01      6.18      8.18    253.49
 REAL TIME  *      4500.28 SEC
 DISK USED  *        54.31 GB      
 SF USED    *        10.30 GB      
 GA USED    *         0.09 MB       (max)       0.09 MB       (current)
 **********************************************************************************************************************************
 SETTING CCSD(1)        =    -11269.78979293  AU                              
 Output type csv         
                                                                                                                                                                                                                                                                

          SCF,CCSD
   -11267.00730,   -11269.78979
                                                  

 RCCSD(T)/USERDEF energy= -11269.789792926518

        RCCSD(T)        RHF-SCF         MULTI           RHF-SCF         RKS-SCF 
 -11269.78979293 -11267.00730410 -11267.00730410 -11267.00959577 -11270.80511877
 **********************************************************************************************************************************
 Molpro calculation terminated
 Variable memory released
