
 Primary working directories    : /global/cscratch1/sd/haihan
 Secondary working directories  : /global/cscratch1/sd/haihan
 Wavefunction directory         : /global/homes/h/haihan/Research/ECP/f_group_element_ecps/Gd/Molpro/atom/AE/dkh/wfu/
 Main file repository           : /global/cscratch1/sd/haihan/

 SHA1      : 19cd028119e0e09f93f0674bd8af7968d9b3eff6
 NAME      : 2015.1.36
 ARCHNAME  : linux/x86_64
 FC        : /opt/cray/pe/craype/2.5.14/bin/ftn
 BLASLIB   : -L/opt/intel/compilers_and_libraries_2018.1.163/linux/mkl/lib/intel64 -Wl,-_start-group -lmkl_intel_ilp64 -lmkl_intel_thread -lmkl_core -Wl,-_end-group -liomp5
 id        : lbl

 Nodes     nprocs
 nid01137     5
 Number of processes for MPI-2 version of Molpro:   nprocs(total)=    6   nprocs(compute)=    5   nprocs(helper)=    1

 Using customized tuning parameters: mindgm=7; mindgv=16; mindgc=1; mindgr=1; noblas=0; minvec=7
 default implementation of scratch files=sf  

 ***,Calculation for Gd atom, singlet and triplet
 memory,2,g
 
 gthresh,twoint=1.e-15
 gthresh,oneint=1.e-15
 
 set,dkroll=1,dkho=10,dkhp=4
 
 geometry={
 1
 Gd
 Gd  0.0 0.0 0.0
 }
 
 basis={
 Including file /global/u2/h/haihan/Research/ECP/f_group_element_ecps/Gd/Molpro/atom/AE/dkh/1/../aug-cc-pwCVTZ.basis
 }
 
 
 
 Including file /global/u2/h/haihan/Research/ECP/f_group_element_ecps/Gd/Molpro/atom/AE/dkh/1/../Gd_states_ae.proc
 
 
 do i=1,1
     if (i.eq.1) then
         Id1f7s2
     else if (i.eq.2) then
         Id2f7s1
     else if (i.eq.3) then
 Ip1f7s2
     else if (i.eq.4) then
         EAd2f7s2
     else if (i.eq.5) then
         IId1f7s1
     else if (i.eq.6) then
         IIdf7s2
     else if (i.eq.7) then
         IIId1f7
     else if (i.eq.8) then
 IIIp1f7
     else if (i.eq.9) then
         IVdf7
     else if (i.eq.10) then
         Vdf6
     else if (i.eq.11) then
         VIdf5
     else if (i.eq.12) then
         VIIdf4
     endif
     scf(i)=energy
     _CC_NORM_MAX=2.0
     {rccsd(t),shifts=0.5,shiftp=0.5,thrdis=1.0;diis,1,1,15,1;maxit,100;core}
     ccsd(i)=energy
 enddo
 
 table,scf,ccsd
 type,csv
 save

 Variables initialized (889), CPU time= 0.00 sec
 Commands  initialized (702), CPU time= 0.01 sec, 572 directives.
 Default parameters read. Elapsed time= 0.14 sec

 Checking input...
 Passed
1


                                         ***  PROGRAM SYSTEM MOLPRO  ***
                                       Copyright, TTI GmbH Stuttgart, 2015
                                    Version 2015.1 linked Dec 29 2018 15:55:43


 **********************************************************************************************************************************
 LABEL *   Calculation for Gd atom, singlet and triplet                                  
  64 bit mpp version                                                                     DATE: 11-Nov-22          TIME: 22:51:54  
 **********************************************************************************************************************************

 SHA1:             19cd028119e0e09f93f0674bd8af7968d9b3eff6
 **********************************************************************************************************************************

 THRESHOLDS:

 ZERO    =  1.00D-12  ONEINT  =  1.00D-12  TWOINT  =  1.00D-15  PREFAC  =  1.00D-14  LOCALI  =  1.00D-09  EORDER  =  1.00D-04
 ENERGY  =  0.00D+00  ETEST   =  0.00D+00  EDENS   =  0.00D+00  THRDEDEF=  1.00D-06  GRADIENT=  1.00D-02  STEP    =  1.00D-03
 ORBITAL =  1.00D-05  CIVEC   =  1.00D-05  COEFF   =  1.00D-04  PRINTCI =  5.00D-02  PUNCHCI =  9.90D+01  OPTGRAD =  3.00D-04
 OPTENERG=  1.00D-06  OPTSTEP =  3.00D-04  THRGRAD =  1.00D-10  COMPRESS=  1.00D-11  VARMIN  =  1.00D-07  VARMAX  =  1.00D-03
 THRDOUB =  0.00D+00  THRDIV  =  1.00D-05  THRRED  =  1.00D-07  THRPSP  =  1.00D+00  THRDC   =  1.00D-10  THRCS   =  1.00D-10
 THRNRM  =  1.00D-08  THREQ   =  0.00D+00  THRDE   =  1.00D+00  THRREF  =  1.00D-05  SPARFAC =  1.00D+00  THRDLP  =  1.00D-07
 THRDIA  =  1.00D-10  THRDLS  =  1.00D-07  THRGPS  =  0.00D+00  THRKEX  =  0.00D+00  THRDIS  =  2.00D-01  THRVAR  =  1.00D-10
 THRLOC  =  1.00D-06  THRGAP  =  1.00D-06  THRLOCT = -1.00D+00  THRGAPT = -1.00D+00  THRORB  =  1.00D-06  THRMLTP =  0.00D+00
 THRCPQCI=  1.00D-10  KEXTA   =  0.00D+00  THRCOARS=  0.00D+00  SYMTOL  =  1.00D-06  GRADTOL =  1.00D-06  THROVL  =  1.00D-08
 THRORTH =  1.00D-08  GRID    =  1.00D-06  GRIDMAX =  1.00D-03  DTMAX   =  0.00D+00  THROCCDE=  1.00D-01  THROCCDE=  1.00D-01



 THRESHOLDS:

 ZERO    =  1.00D-12  ONEINT  =  1.00D-15  TWOINT  =  1.00D-15  PREFAC  =  1.00D-14  LOCALI  =  1.00D-09  EORDER  =  1.00D-04
 ENERGY  =  0.00D+00  ETEST   =  0.00D+00  EDENS   =  0.00D+00  THRDEDEF=  1.00D-06  GRADIENT=  1.00D-02  STEP    =  1.00D-03
 ORBITAL =  1.00D-05  CIVEC   =  1.00D-05  COEFF   =  1.00D-04  PRINTCI =  5.00D-02  PUNCHCI =  9.90D+01  OPTGRAD =  3.00D-04
 OPTENERG=  1.00D-06  OPTSTEP =  3.00D-04  THRGRAD =  1.00D-10  COMPRESS=  1.00D-11  VARMIN  =  1.00D-07  VARMAX  =  1.00D-03
 THRDOUB =  0.00D+00  THRDIV  =  1.00D-05  THRRED  =  1.00D-07  THRPSP  =  1.00D+00  THRDC   =  1.00D-10  THRCS   =  1.00D-10
 THRNRM  =  1.00D-08  THREQ   =  0.00D+00  THRDE   =  1.00D+00  THRREF  =  1.00D-05  SPARFAC =  1.00D+00  THRDLP  =  1.00D-07
 THRDIA  =  1.00D-10  THRDLS  =  1.00D-07  THRGPS  =  0.00D+00  THRKEX  =  0.00D+00  THRDIS  =  2.00D-01  THRVAR  =  1.00D-10
 THRLOC  =  1.00D-06  THRGAP  =  1.00D-06  THRLOCT = -1.00D+00  THRGAPT = -1.00D+00  THRORB  =  1.00D-06  THRMLTP =  0.00D+00
 THRCPQCI=  1.00D-10  KEXTA   =  0.00D+00  THRCOARS=  0.00D+00  SYMTOL  =  1.00D-06  GRADTOL =  1.00D-06  THROVL  =  1.00D-08
 THRORTH =  1.00D-08  GRID    =  1.00D-06  GRIDMAX =  1.00D-03  DTMAX   =  0.00D+00  THROCCDE=  1.00D-01  THROCCDE=  1.00D-01


 SETTING DKROLL         =         1.00000000                                  
 SETTING DKHO           =        10.00000000                                  
 SETTING DKHP           =         4.00000000                                  

Geometry recognized as XYZ


 Variable memory set to 2000000000 words,  buffer space   230000 words

 SETTING BASIS          =    USERDEF

 DO I                   =         1.00000000   

 Running procedure=ID1F7S2


 Recomputing integrals since basis changed


 Using spherical harmonics



 PROGRAM * SEWARD (Integral evaluation for generally contracted gaussian basis sets)     Author: Roland Lindh, 1990

 Geometry written to block  1 of record 700

 Orientation using atomic masses  
 Molecule type: Atom
 Symmetry elements: X,Y,Z
 Rotational constants:       0.0000000      0.0000000      0.0000000 GHz  (calculated with average atomic masses)

 Point group  D2h 



 ATOMIC COORDINATES

 NR  ATOM    CHARGE       X              Y              Z

   1  GD     64.00    0.000000000    0.000000000    0.000000000

 NUCLEAR CHARGE:                   64
 NUMBER OF PRIMITIVE AOS:         631
 NUMBER OF SYMMETRY AOS:          481
 NUMBER OF CONTRACTIONS:          481   ( 113Ag  +  74B3u +  74B2u +  42B1g +  74B1u +  42B2g +  42B3g +  20Au  )
 NUMBER OF CORE ORBITALS:          23   (   8Ag  +   3B3u +   3B2u +   2B1g +   3B1u +   2B2g +   2B3g +   0Au  )
 NUMBER OF VALENCE ORBITALS:       17   (   4Ag  +   3B3u +   3B2u +   1B1g +   3B1u +   1B2g +   1B3g +   1Au  )


 NUCLEAR REPULSION ENERGY    0.00000000

 One-electron integrals computed with SEWARD

 10nd-order Douglas-Kroll-Hess method activated. McWeeny DKH parametrization is used.

 Computing Douglas-Kroll / X2C integrals

 AO integral compression algorithm  1   Integral accuracy      1.0D-15

     5087.166 MB (compressed) written to integral file ( 43.1%)

     Node minimum: 600.048 MB, node maximum: 1553.727 MB


 NUMBER OF SORTED TWO-ELECTRON INTEGRALS:  171778298.     BUFFER LENGTH:  32768
 NUMBER OF SEGMENTS:   6  SEGMENT LENGTH:   31998348      RECORD LENGTH: 524288

 Memory used in sort:      32.56 MW

 SORT1 READ  1474683826. AND WROTE    98537690. INTEGRALS IN    285 RECORDS. CPU TIME:    32.53 SEC, REAL TIME:    38.06 SEC
 SORT2 READ   489175437. AND WROTE   859050309. INTEGRALS IN  29635 RECORDS. CPU TIME:     2.49 SEC, REAL TIME:     3.91 SEC

 Node minimum:   171650191.  Node maximum:   171905998. integrals

 OPERATOR DM      FOR CENTER  0  COORDINATES:    0.000000    0.000000    0.000000

 EXTRA SYMMETRY OF AOS IN SYMMETRY 1:   1 1 1 1 1 1 1 1 1 1   1 1 1 1 1 1 1 1 1 1   1 1 1 1 1 1 1 1 1 1   1 1 1 1 1 1 1 1 2 3
                                        2 3 2 3 2 3 2 3 2 3   2 3 2 3 2 3 2 3 2 3   2 3 2 3 2 3 2 3 2 3   2 3 2 3 2 3 2 3 2 3
                                        2 3 2 3 2 3 4 5 6 4   5 6 4 5 6 4 5 6 4 5   6 4 5 6 4 5 6 4 5 6   4 5 6
 EXTRA SYMMETRY OF AOS IN SYMMETRY 2:   1 1 1 1 1 1 1 1 1 1   1 1 1 1 1 1 1 1 1 1   1 1 1 1 1 1 1 1 1 1   1 1 1 1 1 1 1 2 3 2
                                        3 2 3 2 3 2 3 2 3 2   3 2 3 2 3 2 3 2 3 2   3 2 3 2 3 4 5 6 4 5   6 4 5 6
 EXTRA SYMMETRY OF AOS IN SYMMETRY 3:   1 1 1 1 1 1 1 1 1 1   1 1 1 1 1 1 1 1 1 1   1 1 1 1 1 1 1 1 1 1   1 1 1 1 1 1 1 2 3 2
                                        3 2 3 2 3 2 3 2 3 2   3 2 3 2 3 2 3 2 3 2   3 2 3 2 3 4 5 6 4 5   6 4 5 6
 EXTRA SYMMETRY OF AOS IN SYMMETRY 4:   1 1 1 1 1 1 1 1 1 1   1 1 1 1 1 1 1 1 1 1   1 1 1 1 2 3 2 3 2 3   2 3 2 3 2 3 2 3 2 3
                                        2 3
 EXTRA SYMMETRY OF AOS IN SYMMETRY 5:   1 1 1 1 1 1 1 1 1 1   1 1 1 1 1 1 1 1 1 1   1 1 1 1 1 1 1 1 1 1   1 1 1 1 1 1 1 2 3 2
                                        3 2 3 2 3 2 3 2 3 2   3 2 3 2 3 2 3 2 3 2   3 2 3 2 3 4 5 6 4 5   6 4 5 6
 EXTRA SYMMETRY OF AOS IN SYMMETRY 6:   1 1 1 1 1 1 1 1 1 1   1 1 1 1 1 1 1 1 1 1   1 1 1 1 2 3 2 3 2 3   2 3 2 3 2 3 2 3 2 3
                                        2 3
 EXTRA SYMMETRY OF AOS IN SYMMETRY 7:   1 1 1 1 1 1 1 1 1 1   1 1 1 1 1 1 1 1 1 1   1 1 1 1 2 3 2 3 2 3   2 3 2 3 2 3 2 3 2 3
                                        2 3
 EXTRA SYMMETRY OF AOS IN SYMMETRY 8:   1 1 1 1 1 1 1 1 1 1   1 1 1 1 2 3 2 3 2 3

 Eigenvalues of metric

         1 0.117E-06 0.313E-06 0.724E-06 0.724E-06 0.728E-06 0.135E-05 0.447E-05 0.619E-05
         2 0.616E-06 0.439E-05 0.139E-04 0.449E-04 0.885E-04 0.303E-03 0.501E-03 0.668E-03
         3 0.616E-06 0.439E-05 0.139E-04 0.449E-04 0.885E-04 0.303E-03 0.501E-03 0.668E-03
         4 0.724E-06 0.237E-04 0.148E-03 0.537E-03 0.925E-03 0.419E-02 0.877E-02 0.166E-01
         5 0.616E-06 0.439E-05 0.139E-04 0.449E-04 0.885E-04 0.303E-03 0.501E-03 0.668E-03
         6 0.724E-06 0.237E-04 0.148E-03 0.537E-03 0.925E-03 0.419E-02 0.877E-02 0.166E-01
         7 0.724E-06 0.237E-04 0.148E-03 0.537E-03 0.925E-03 0.419E-02 0.877E-02 0.166E-01
         8 0.826E-03 0.126E-01 0.208E-01 0.681E-01 0.138E+00 0.253E+00 0.351E+00 0.351E+00


 **********************************************************************************************************************************
 DATASETS  * FILE   NREC   LENGTH (MB)   RECORD NAMES
              1      22       22.40       500      610      700      900      950      970     1000      129      960     1700   
                                          VAR    BASINP    GEOM    SYMINP    ZMAT    AOBASIS   BASIS     P2S    ABASIS    OPER   
                                         1101     1401     1411     1412     1650     1100     1400     1410     1200     1210   
                                          SR      EKINR    POTR     PVPR    MOLCAS      S      EKIN      POT      H0       H01  
                                         1080     1600   
                                         AOSYM     SMH  

 PROGRAMS   *        TOTAL       INT
 CPU TIMES  *       328.80    328.52
 REAL TIME  *       339.15 SEC
 DISK USED  *        10.93 GB      
 GA USED    *         0.00 MB       (max)       0.00 MB       (current)
 **********************************************************************************************************************************

 Density functional group PBE0=PBEX+PBEC
 Functional: PBEX(Automatically generated (new) PBEX)                          Gradient terms: 1
 Functional: PBEC(Automatically generated (new) PBEC)                          Gradient terms: 1
 Use grid at  1800.2
 

 Exact exchange will be calculated, factor:  0.2500

 Functional: PBEX                      Factor:  0.7500
 Functional: PBEC                      Factor:  1.0000
 
 Generated new metagrid on record  1800.2 with target accuracy 1.0D-06 and 780 points in CPU time    0.0
 Computed new grid on record 1800.1 in CPU time    0.0
  384156 words reserved for DFT integration

 PROGRAM * RKS-SCF (Restricted open shell Kohn-Sham)     Authors: W. Meyer, H.-J. Werner, P.J. Knowles, 1993

 NUMBER OF ELECTRONS:      36+   28-    SPACE SYMMETRY=8    SPIN SYMMETRY: Nonet   
 CONVERGENCE THRESHOLDS:    1.00E-05 (Density)    1.28E-06 (Energy)
 MAX. NUMBER OF ITERATIONS:       60
 INTERPOLATION TYPE:            DIIS
 INTERPOLATION STEPS:              2 (START)      1 (STEP)
 LEVEL SHIFTS:                 -0.60 (CLOSED) -0.30 (OPEN) 

 Number of closed-shell orbitals:   28 (  10   4   4   2   4   2   2   0 )
 Number of open-shell orbitals:      8 (   1   2   2   0   2   0   0   1 )


 
 Extra symmetries of mos in symmetry 1:   1   1   1   3   2   1   3   2   1   1   3   2
 Extra symmetries of mos in symmetry 2:   1   1   1   1   3   2
 Extra symmetries of mos in symmetry 3:   1   1   1   1   3   2
 Extra symmetries of mos in symmetry 5:   1   1   1   1   3   2
 Use fine grid record 1800.2 for energy threshold  1.0D-06
 Orbital guess generated from atomic densities. Full valence occupancy:   12   6   6   3   6   3   3   1


 Molecular orbital dump at record        3202.2

 ITERATION    DDIFF          GRAD             ENERGY        2-EL.EN.            DIPOLE MOMENTS         DIIS   ORB.
    1      0.000D+00      0.000D+00    -11270.55974577   8694.494594    0.00000    0.00000    0.00000    0    start
    2      0.000D+00      0.259D-01    -11270.51004845   8505.997424    0.00000    0.00000    0.00000    1    diag,B
    3      0.216D-01      0.313D-01    -11271.07703302   8651.062919    0.00000    0.00000    0.00000    2    diag,B
    4      0.368D-01      0.200D-02    -11271.10779565   8647.085982    0.00000    0.00000    0.00000    3    diag,B
    5      0.837D-02      0.902D-03    -11271.12429932   8651.076571    0.00000    0.00000    0.00000    4    diag,B
    6      0.997D-02      0.606D-03    -11271.13209571   8648.773031    0.00000    0.00000    0.00000    5    diag,B
    7      0.104D-01      0.349D-03    -11271.13516061   8649.723385    0.00000    0.00000    0.00000    6    fixocc
    8      0.501D-02      0.272D-03    -11271.13756658   8648.860130    0.00000    0.00000    0.00000    7    diag,B
    9      0.320D-02      0.195D-03    -11271.13941049   8649.406830    0.00000    0.00000    0.00000    8    diag,B
   10      0.753D-02      0.147D-03    -11271.14042528   8649.321587    0.00000    0.00000    0.00000    9    orth
   11      0.483D-02      0.544D-04    -11271.14052224   8649.171499    0.00000    0.00000    0.00000    9    diag,B
   12      0.168D-02      0.190D-04    -11271.14053385   8649.227586    0.00000    0.00000    0.00000    9    diag,B
   13      0.197D-02      0.105D-04    -11271.14053594   8649.165940    0.00000    0.00000    0.00000    9    diag,B
   14      0.182D-02      0.362D-05    -11271.14053629   8649.158417    0.00000    0.00000    0.00000    9    diag,B
   15      0.947D-03      0.187D-05    -11271.14053638   8649.156199    0.00000    0.00000    0.00000    9    diag,B
   16      0.313D-03      0.948D-06    -11271.14053640   8649.157002    0.00000    0.00000    0.00000    9    diag,B
   17      0.253D-03      0.480D-06    -11271.14053640   8649.157584    0.00000    0.00000    0.00000    9    diag,B
   18      0.316D-03      0.211D-06    -11271.14053640   8649.157938    0.00000    0.00000    0.00000    9    diag,B
   19      0.126D-03      0.123D-06    -11271.14053640   8649.157834    0.00000    0.00000    0.00000    9    diag,B
   20      0.486D-04      0.547D-07    -11271.14053640   8649.157839    0.00000    0.00000    0.00000    9    orth
   21      0.380D-04      0.249D-07    -11271.14053640   8649.157741    0.00000    0.00000    0.00000    9    diag,B
   22      0.254D-04      0.123D-07    -11271.14053640   8649.157732    0.00000    0.00000    0.00000    9    diag,B
   23      0.774D-05      0.609D-08    -11271.14053640   8649.157717    0.00000    0.00000    0.00000    0    orth

 Final alpha occupancy:  11   6   6   2   6   2   2   1
 Final beta  occupancy:  10   4   4   2   4   2   2   0

 !RKS STATE 1.8 Energy               -11271.1405364036    
 Nuclear energy                         0.00000000
 One-electron energy               -15405.31987199
 Two-electron energy                 4324.57885860
 Density functional                  -190.39952302     PBEX=-249.10586808 PBEC=  -3.57012196
 Virial quotient                       -0.78334643
 !RKS STATE 1.8 Dipole moment           0.00000000     0.00000000     0.00000000
 Dipole moment /Debye                   0.00000000     0.00000000     0.00000000

 ELECTRON ORBITALS
 =================


   Orb  Occ    Energy  Couls-En    Coefficients

                                   1 1s      1 1s      1 1s      1 1s      1 1s      1 1s      1 1s      1 1s      1 1s      1 1s   
                                   1 1s      1 1s      1 1s      1 1s      1 1s      1 1s      1 1s      1 1s      1 1s      1 1s   
                                   1 1s      1 1s      1 1s      1 1s      1 1s      1 1s      1 1s      1 1s      1 1s      1 1s   
                                   1 1s      1 1s      1 1s      1 1s      1 1s      1 1s      1 1s      1 1s      1 3d0     1 3d2+ 
                                   1 3d0     1 3d2+    1 3d0     1 3d2+    1 3d0     1 3d2+    1 3d0     1 3d2+    1 3d0     1 3d2+ 
                                   1 3d0     1 3d2+    1 3d0     1 3d2+    1 3d0     1 3d2+    1 3d0     1 3d2+    1 3d0     1 3d2+ 
                                   1 3d0     1 3d2+    1 3d0     1 3d2+    1 3d0     1 3d2+    1 3d0     1 3d2+    1 3d0     1 3d2+ 
                                   1 3d0     1 3d2+    1 3d0     1 3d2+    1 3d0     1 3d2+    1 3d0     1 3d2+    1 3d0     1 3d2+ 
                                   1 3d0     1 3d2+    1 3d0     1 3d2+    1 3d0     1 3d2+    1 5g0     1 5g4+    1 5g2+    1 5g0  
                                   1 5g4+    1 5g2+    1 5g0     1 5g4+    1 5g2+    1 5g0     1 5g4+    1 5g2+    1 5g0     1 5g4+ 
                                   1 5g2+    1 5g0     1 5g4+    1 5g2+    1 5g0     1 5g4+    1 5g2+    1 5g0     1 5g4+    1 5g2+ 
                                   1 5g0     1 5g4+    1 5g2+ 

   1.1   2 -1841.2440-4014.7756  0.000378  0.000163  0.001378  0.003964  0.007291  0.013589  0.025815  0.050396  0.101628  0.199272
                                 0.334905  0.343596  0.145782  0.063576 -0.008691  0.007303 -0.028455 -0.032044 -0.019277  0.016220
                                 0.018620 -0.002226 -0.006005 -0.003866 -0.001473  0.015911  0.015378 -0.036720 -0.081850  0.031936
                                 0.035776 -0.026499  0.003080  0.007010  0.002210  0.000066 -0.000023  0.000005  0.000000 -0.000000
                                 0.000000 -0.000000  0.000000 -0.000000  0.000000 -0.000000 -0.000000 -0.000000  0.000000  0.000000
                                -0.000000 -0.000000 -0.000000 -0.000000  0.000000  0.000000 -0.000000 -0.000000 -0.000000 -0.000000
                                -0.000000 -0.000000  0.000000  0.000000  0.000000  0.000000 -0.000000 -0.000000  0.000000  0.000000
                                 0.000000  0.000000  0.000000  0.000000 -0.000000 -0.000000  0.000000  0.000000 -0.000000 -0.000000
                                 0.000000  0.000000 -0.000000 -0.000000  0.000000  0.000000  0.000000  0.000000 -0.000000 -0.000000
                                -0.000000  0.000000  0.000000  0.000000 -0.000000 -0.000000 -0.000000  0.000000  0.000000  0.000000
                                -0.000000 -0.000000 -0.000000  0.000000  0.000000  0.000000 -0.000000 -0.000000 -0.000000  0.000000
                                 0.000000  0.000000 -0.000000

   2.1   2  -305.1003 -853.6038 -0.000137 -0.000059 -0.000501 -0.001444 -0.002675 -0.005019 -0.009704 -0.019255 -0.040887 -0.080422
                                -0.145255 -0.152179  0.142641  0.605851  0.424138  0.031216  0.014381  0.050453  0.036084 -0.032317
                                -0.038497  0.004728  0.012952  0.008370  0.003197 -0.016578 -0.051527 -0.082321 -0.007810 -0.028998
                                -0.061273  0.054349 -0.006615 -0.015153 -0.004794 -0.000144  0.000050 -0.000011  0.000000 -0.000000
                                 0.000000 -0.000000  0.000000 -0.000000  0.000001 -0.000000  0.000002 -0.000000  0.000002 -0.000000
                                 0.000001  0.000000  0.000001  0.000000 -0.000001 -0.000000  0.000000  0.000000  0.000000  0.000000
                                 0.000000  0.000000 -0.000001 -0.000000 -0.000002 -0.000000  0.000002  0.000000 -0.000000 -0.000000
                                -0.000000 -0.000000 -0.000000 -0.000000  0.000000  0.000000 -0.000000 -0.000000  0.000000  0.000000
                                -0.000000 -0.000000  0.000000  0.000000 -0.000000 -0.000000 -0.000000 -0.000000  0.000000  0.000000
                                 0.000000 -0.000000 -0.000000 -0.000000  0.000000  0.000000  0.000000 -0.000000 -0.000000 -0.000000
                                 0.000000  0.000000  0.000000 -0.000000 -0.000000 -0.000000  0.000000  0.000000  0.000000 -0.000000
                                -0.000000 -0.000000  0.000000

   3.1   2   -68.0914 -299.6921  0.000064  0.000027  0.000232  0.000670  0.001243  0.002329  0.004537  0.008953  0.019464  0.034566
                                 0.055067  0.027907 -0.211124 -0.822774 -0.326025  0.909432  0.036531 -0.534550 -0.383845  0.345904
                                 0.417315 -0.052157 -0.145148 -0.094269 -0.036146  0.014448  0.054557  0.132777  0.289261  0.521241
                                 0.655493 -0.587016  0.073746  0.170277  0.054174  0.001632 -0.000573  0.000123  0.000000 -0.000000
                                 0.000000 -0.000000  0.000001 -0.000000  0.000002 -0.000000  0.000009 -0.000000  0.000024 -0.000000
                                 0.000033 -0.000000 -0.000002 -0.000000  0.000037  0.000000 -0.000004 -0.000000 -0.000003 -0.000000
                                -0.000000 -0.000000  0.000024  0.000000  0.000054  0.000000 -0.000056 -0.000000  0.000004  0.000000
                                 0.000001  0.000000  0.000000  0.000000 -0.000000 -0.000000  0.000000  0.000000 -0.000000 -0.000000
                                 0.000000 -0.000000 -0.000000  0.000000  0.000000 -0.000000 -0.000001 -0.000006  0.000000  0.000001
                                 0.000005 -0.000000 -0.000001 -0.000004  0.000000  0.000000  0.000003 -0.000000 -0.000000 -0.000002
                                 0.000000  0.000000  0.000001 -0.000000 -0.000000 -0.000001  0.000000  0.000000  0.000000 -0.000000
                                -0.000000 -0.000000  0.000000

   4.1   2   -43.7724 -259.0342  0.000000  0.000000  0.000000  0.000000 -0.000000  0.000000 -0.000000  0.000000 -0.000000  0.000000
                                 0.000000  0.000000  0.000000  0.000000 -0.000000  0.000000 -0.000000 -0.000000 -0.000000  0.000000
                                 0.000000 -0.000000 -0.000000 -0.000000 -0.000000 -0.000000 -0.000000 -0.000000 -0.000000  0.000000
                                 0.000000 -0.000000  0.000000  0.000000  0.000000  0.000000 -0.000000  0.000000 -0.000000  0.000109
                                -0.000000  0.001353 -0.000000  0.008391 -0.000000  0.038357 -0.000000  0.140339 -0.000000  0.327391
                                -0.000000  0.480856 -0.000000  0.431607  0.000000 -0.091277 -0.000000  0.011113 -0.000000  0.006753
                                -0.000000  0.000828  0.000000 -0.090986  0.000000 -0.263640 -0.000000  0.235583  0.000000 -0.009398
                                 0.000000 -0.002437  0.000000 -0.000605 -0.000000  0.000568  0.000000 -0.000333 -0.000000  0.000204
                                 0.000000 -0.000071 -0.000000  0.000031  0.000000 -0.000009 -0.000000 -0.000000  0.000021  0.000000
                                 0.000000 -0.000013 -0.000000 -0.000000  0.000012  0.000000  0.000000 -0.000008 -0.000000 -0.000000
                                 0.000005  0.000000  0.000000 -0.000004 -0.000000 -0.000000  0.000002  0.000000  0.000000 -0.000001
                                -0.000000 -0.000000  0.000000

   5.1   2   -43.7756 -259.0334 -0.000000 -0.000000 -0.000000 -0.000000 -0.000000 -0.000000 -0.000000 -0.000001 -0.000002 -0.000003
                                -0.000003  0.000008  0.000044  0.000137  0.000027 -0.000133  0.000035  0.000116  0.000081 -0.000072
                                -0.000089  0.000011  0.000030  0.000020  0.000007 -0.000003 -0.000012 -0.000032 -0.000077 -0.000081
                                -0.000130  0.000126 -0.000016 -0.000035 -0.000011 -0.000000  0.000000 -0.000000  0.000109  0.000000
                                 0.001353  0.000000  0.008391  0.000000  0.038354  0.000000  0.140328  0.000000  0.327366  0.000000
                                 0.480821  0.000000  0.431539  0.000000 -0.091171 -0.000000  0.011125  0.000000  0.006750  0.000000
                                 0.000777  0.000000 -0.090938 -0.000000 -0.263499 -0.000000  0.235448  0.000000 -0.009401 -0.000000
                                -0.002474 -0.000000 -0.000643 -0.000000  0.000540  0.000000 -0.000350 -0.000000  0.000200  0.000000
                                -0.000072 -0.000000  0.000031  0.000000 -0.000009 -0.000000  0.000028  0.000006  0.000000 -0.000017
                                -0.000004 -0.000000  0.000015  0.000004  0.000000 -0.000010 -0.000002 -0.000000  0.000007  0.000002
                                 0.000000 -0.000004 -0.000001 -0.000000  0.000002  0.000001  0.000000 -0.000001 -0.000000 -0.000000
                                 0.000000  0.000000  0.000000

   6.1   2   -13.9079 -128.5948 -0.000031 -0.000013 -0.000113 -0.000326 -0.000605 -0.001133 -0.002211 -0.004353 -0.009535 -0.016261
                                -0.024310 -0.004978  0.130234  0.511721  0.181245 -0.890960 -0.645141  1.107268  0.696095 -0.313052
                                -0.446613  0.059881  0.176508  0.116909  0.045543 -0.008208 -0.032032 -0.082638 -0.205595  0.204394
                                -0.245862  0.620243 -0.087937 -0.209315 -0.068085 -0.002078  0.000732 -0.000158 -0.000000  0.000000
                                -0.000000  0.000000 -0.000002  0.000000 -0.000010  0.000000 -0.000039  0.000000 -0.000093  0.000000
                                -0.000149  0.000000 -0.000292  0.000000  0.000584 -0.000000  0.000283  0.000000  0.000024  0.000000
                                 0.000001  0.000000  0.000071 -0.000000  0.000534 -0.000000 -0.000557  0.000000  0.000079 -0.000000
                                -0.000006 -0.000000 -0.000002 -0.000000  0.000001  0.000000 -0.000001 -0.000000  0.000000  0.000000
                                -0.000000 -0.000000  0.000000  0.000000 -0.000000 -0.000000 -0.000001 -0.000004  0.000000 -0.000003
                                -0.000019  0.000000 -0.000010 -0.000057  0.000000  0.000000  0.000001 -0.000000  0.000000  0.000000
                                -0.000000  0.000000  0.000002 -0.000000 -0.000000 -0.000001  0.000000  0.000000  0.000001 -0.000000
                                -0.000000 -0.000000  0.000000

   7.1   2    -5.5831 -103.9711 -0.000000 -0.000000 -0.000000 -0.000000  0.000000 -0.000000  0.000000 -0.000000  0.000000 -0.000000
                                -0.000000 -0.000000 -0.000000 -0.000000  0.000000 -0.000000  0.000000  0.000000  0.000000 -0.000000
                                -0.000000 -0.000000 -0.000000 -0.000000 -0.000000  0.000000  0.000000  0.000000  0.000000 -0.000000
                                -0.000000  0.000000  0.000000  0.000000  0.000000  0.000000 -0.000000 -0.000000  0.000000 -0.000053
                                 0.000000 -0.000649  0.000000 -0.004068  0.000000 -0.018689  0.000000 -0.069892  0.000000 -0.163516
                                 0.000000 -0.236659  0.000000 -0.248843 -0.000000  0.896787 -0.000000  0.390907 -0.000000  0.089525
                                -0.000000  0.007289 -0.000000  0.100261 -0.000000  0.558802  0.000000 -0.657491 -0.000000  0.059300
                                 0.000000 -0.003693  0.000000 -0.005507 -0.000000  0.005123  0.000000 -0.003250 -0.000000  0.001968
                                 0.000000 -0.000712 -0.000000  0.000307  0.000000 -0.000088 -0.000000 -0.000000  0.000040 -0.000000
                                -0.000000  0.000066 -0.000000 -0.000000  0.000200 -0.000000 -0.000000  0.000140 -0.000000  0.000000
                                -0.000005 -0.000000  0.000000 -0.000003  0.000000  0.000000 -0.000003 -0.000000  0.000000  0.000000
                                 0.000000  0.000000 -0.000000

   8.1   2    -5.5907 -103.9537  0.000000  0.000000  0.000000  0.000000  0.000001  0.000001  0.000003  0.000005  0.000011  0.000019
                                 0.000030  0.000011 -0.000137 -0.000566 -0.000226  0.001188  0.000521 -0.001901 -0.001253  0.001600
                                 0.000917 -0.000095 -0.000346 -0.000246 -0.000100  0.000009  0.000033  0.000085  0.000208  0.000062
                                 0.000048 -0.000439  0.000147  0.000427  0.000149  0.000005 -0.000002  0.000000 -0.000052 -0.000000
                                -0.000649 -0.000000 -0.004066 -0.000000 -0.018680 -0.000000 -0.069856 -0.000000 -0.163432 -0.000000
                                -0.236574 -0.000000 -0.249064 -0.000000  0.896287  0.000000  0.390873  0.000000  0.089861  0.000000
                                 0.007012  0.000000  0.100273  0.000000  0.558930  0.000000 -0.657439 -0.000000  0.059774  0.000000
                                -0.003775 -0.000000 -0.005701 -0.000000  0.004970  0.000000 -0.003333 -0.000000  0.001942  0.000000
                                -0.000716 -0.000000  0.000308  0.000000 -0.000088 -0.000000  0.000054  0.000010  0.000000  0.000088
                                 0.000015  0.000000  0.000224  0.000101  0.000000  0.000162  0.000061  0.000000  0.000010 -0.000025
                                -0.000000  0.000001 -0.000004 -0.000000 -0.000002 -0.000003 -0.000000  0.000001  0.000001  0.000000
                                -0.000000 -0.000000 -0.000000

   9.1   2    -1.9197  -54.7072  0.000013  0.000005  0.000046  0.000133  0.000246  0.000461  0.000900  0.001771  0.003884  0.006583
                                 0.009743  0.001485 -0.055001 -0.217713 -0.077162  0.428744  0.370904 -0.811500 -0.746654  0.701945
                                 1.597066  0.317374  0.069885  0.036017  0.011604  0.003415  0.013390  0.034852  0.088496 -0.166270
                                 0.119893 -0.996057 -0.027427 -0.072106 -0.017841 -0.000478  0.000163 -0.000035  0.000000 -0.000000
                                 0.000002 -0.000000  0.000012 -0.000000  0.000057 -0.000000  0.000215 -0.000000  0.000506 -0.000000
                                 0.000707 -0.000000  0.000616 -0.000000 -0.002858  0.000000 -0.001434  0.000000  0.000964 -0.000000
                                 0.000888 -0.000000 -0.000272  0.000000 -0.001625  0.000000  0.001862 -0.000000  0.000081 -0.000000
                                 0.003425 -0.000000  0.000062 -0.000000 -0.000063 -0.000000  0.000033 -0.000000 -0.000021 -0.000000
                                 0.000008 -0.000000 -0.000004  0.000000  0.000001 -0.000000 -0.000001 -0.000002  0.000000 -0.000006
                                -0.000029  0.000000  0.000000  0.000008 -0.000000 -0.000105 -0.000644  0.000000 -0.000004  0.000109
                                -0.000000  0.000085  0.000521 -0.000000 -0.000011 -0.000047  0.000000  0.000015  0.000076 -0.000000
                                -0.000004 -0.000022  0.000000

  10.1   2    -0.1663  -18.8014 -0.000004 -0.000002 -0.000013 -0.000038 -0.000071 -0.000134 -0.000261 -0.000514 -0.001128 -0.001902
                                -0.002792 -0.000319  0.016234  0.064008  0.022362 -0.126780 -0.119963  0.223455  0.207625 -0.179505
                                -0.618367 -0.240663  0.965312  0.912006  0.199924 -0.001006 -0.003952 -0.010318 -0.026326  0.063337
                                 0.019903  0.215743 -0.217187 -0.635003 -0.024751  0.001490  0.000756 -0.000238  0.000001 -0.000000
                                 0.000008 -0.000000  0.000052 -0.000000  0.000240 -0.000000  0.000898 -0.000000  0.002118 -0.000000
                                 0.002813 -0.000000  0.001000 -0.000000 -0.008516  0.000000 -0.007294  0.000000 -0.005684  0.000000
                                 0.017503 -0.000000 -0.000853  0.000000 -0.003779  0.000000  0.002844 -0.000000  0.006437 -0.000000
                                 0.017986 -0.000000  0.020691 -0.000000  0.021018 -0.000000  0.012066 -0.000000  0.003252 -0.000000
                                 0.000702 -0.000000 -0.000145  0.000000  0.000040 -0.000000 -0.000000 -0.000002  0.000000  0.000006
                                 0.000027 -0.000000 -0.000006 -0.000040  0.000000  0.000110  0.000494 -0.000000 -0.000026 -0.000788
                                 0.000000  0.000540  0.002577 -0.000000  0.000057  0.000180 -0.000000  0.000301  0.001388 -0.000000
                                 0.000042  0.000208 -0.000000

  11.1   +    -0.1529  -29.0468 -0.000000 -0.000000 -0.000000 -0.000000 -0.000000 -0.000000 -0.000000 -0.000000 -0.000000  0.000000
                                 0.000000  0.000000  0.000000  0.000000  0.000000 -0.000000 -0.000000  0.000000  0.000000 -0.000000
                                -0.000000 -0.000000  0.000000  0.000000  0.000000 -0.000000 -0.000000 -0.000000 -0.000000  0.000000
                                -0.000000  0.000000 -0.000000 -0.000000 -0.000000 -0.000000  0.000000 -0.000000 -0.000000  0.000012
                                -0.000000  0.000149 -0.000000  0.000936 -0.000000  0.004312 -0.000000  0.016139 -0.000000  0.037937
                                -0.000000  0.051988 -0.000000  0.032710  0.000000 -0.190790  0.000000 -0.116087  0.000000 -0.017999
                                -0.000000  0.348431  0.000000 -0.018799  0.000000 -0.098367 -0.000000  0.100335 -0.000000  0.075594
                                -0.000000  0.269861 -0.000000  0.265688 -0.000000  0.188456 -0.000000  0.117369 -0.000000  0.028843
                                -0.000000  0.008157  0.000000 -0.001749 -0.000000  0.000499  0.000000  0.000000 -0.000009 -0.000000
                                -0.000000  0.000011  0.000000  0.000000 -0.000071 -0.000000 -0.000000  0.000326 -0.000000 -0.000000
                                 0.000244  0.000000  0.000000 -0.002620  0.000000  0.000000 -0.000536  0.000000  0.000000 -0.000759
                                 0.000000  0.000000 -0.000055

  12.1   0    -0.0714  -27.3980  0.000000  0.000000  0.000001  0.000002  0.000005  0.000009  0.000017  0.000033  0.000073  0.000124
                                 0.000186  0.000037 -0.001014 -0.004056 -0.001478  0.008290  0.007152 -0.017176 -0.018686  0.025937
                                 0.101383  0.009382 -0.062942 -0.061426 -0.018806  0.000063  0.000246  0.000639  0.001619 -0.003128
                                 0.002803 -0.076062  0.005529  0.042773  0.005683 -0.000829  0.000002  0.000004  0.000011  0.000000
                                 0.000140  0.000000  0.000879  0.000000  0.004051  0.000000  0.015156  0.000000  0.035647  0.000000
                                 0.048612  0.000000  0.028751 -0.000000 -0.174940 -0.000000 -0.110550 -0.000000 -0.022920 -0.000000
                                 0.318121  0.000000 -0.017104 -0.000000 -0.088500 -0.000000  0.088553  0.000000  0.074092  0.000000
                                 0.259603  0.000000  0.245029  0.000000  0.207347  0.000000  0.141110  0.000000  0.070310  0.000000
                                 0.025565  0.000000 -0.001260 -0.000000  0.000754  0.000000 -0.000008 -0.000007  0.000000  0.000016
                                -0.000005 -0.000000 -0.000038 -0.000086 -0.000000  0.000481 -0.000037 -0.000000  0.000913 -0.000726
                                -0.000000  0.000160 -0.005629 -0.000000  0.002020 -0.004152 -0.000000  0.000904 -0.003074 -0.000000
                                 0.000465 -0.001039  0.000000

  13.1   0    -0.0006   -4.7026  0.000001  0.000000  0.000003  0.000009  0.000016  0.000030  0.000058  0.000115  0.000251  0.000435
                                 0.000665  0.000197 -0.003360 -0.013700 -0.005244  0.029122  0.019889 -0.079471 -0.097796  0.144579
                                 0.432684 -0.062297 -2.501007 -4.268451 -4.715897  0.000208  0.000810  0.002090  0.005260 -0.003391
                                 0.042561 -0.371597  0.574059  4.563997  5.540873  1.121518 -0.794697  1.238511 -0.000000  0.000000
                                -0.000000  0.000000 -0.000000  0.000000 -0.000001  0.000000 -0.000004  0.000000 -0.000010  0.000000
                                 0.000010  0.000000  0.000200  0.000000 -0.000417 -0.000000  0.000215 -0.000000  0.000984 -0.000000
                                 0.000403  0.000000 -0.000049 -0.000000 -0.000380 -0.000000  0.000604  0.000000 -0.000547  0.000000
                                -0.000918  0.000000 -0.000859  0.000000 -0.000632  0.000000  0.000134 -0.000000  0.000706  0.000000
                                 0.002489 -0.000000  0.000785 -0.000000  0.003011 -0.000000 -0.000000 -0.000001  0.000000 -0.000001
                                -0.000007 -0.000000 -0.000000 -0.000002  0.000000 -0.000018 -0.000100 -0.000000  0.000034  0.000211
                                 0.000000 -0.000224 -0.001410 -0.000000 -0.000084 -0.000654  0.000000 -0.000205 -0.001207 -0.000000
                                 0.000411  0.002625  0.000000

                                   1 2px     1 2px     1 2px     1 2px     1 2px     1 2px     1 2px     1 2px     1 2px     1 2px  
                                   1 2px     1 2px     1 2px     1 2px     1 2px     1 2px     1 2px     1 2px     1 2px     1 2px  
                                   1 2px     1 2px     1 2px     1 2px     1 2px     1 2px     1 2px     1 2px     1 2px     1 2px  
                                   1 2px     1 2px     1 2px     1 2px     1 2px     1 2px     1 2px     1 4f1+    1 4f3+    1 4f1+ 
                                   1 4f3+    1 4f1+    1 4f3+    1 4f1+    1 4f3+    1 4f1+    1 4f3+    1 4f1+    1 4f3+    1 4f1+ 
                                   1 4f3+    1 4f1+    1 4f3+    1 4f1+    1 4f3+    1 4f1+    1 4f3+    1 4f1+    1 4f3+    1 4f1+ 
                                   1 4f3+    1 4f1+    1 4f3+    1 4f1+    1 4f3+    1 6h1+    1 6h3+    1 6h5+    1 6h1+    1 6h3+ 
                                   1 6h5+    1 6h1+    1 6h3+    1 6h5+ 

   1.2   2  -271.8958 -797.3791  0.000012  0.000002  0.000028  0.000033  0.000094  0.000160  0.000334  0.000654  0.001194  0.004172
                                 0.001986  0.014675  0.043393  0.124479  0.297004  0.417766  0.253826  0.025916 -0.014746 -0.040187
                                -0.014947 -0.006355 -0.001019  0.000510 -0.000342  0.000338  0.003090  0.014919  0.038441  0.020734
                                 0.004958  0.003934 -0.000114 -0.000409  0.000297  0.000030 -0.000005  0.000001  0.000000  0.000001
                                 0.000001  0.000000 -0.000000 -0.000000 -0.000000 -0.000000 -0.000000 -0.000000  0.000000 -0.000000
                                 0.000000  0.000000 -0.000000  0.000000 -0.000000 -0.000000  0.000000  0.000000  0.000000 -0.000000
                                -0.000000  0.000000  0.000000 -0.000000 -0.000000 -0.000000  0.000000 -0.000000  0.000000 -0.000000
                                 0.000000 -0.000000  0.000000 -0.000000

   2.2   2   -57.7081 -280.4653 -0.000006 -0.000001 -0.000014 -0.000016 -0.000046 -0.000078 -0.000165 -0.000322 -0.000596 -0.002062
                                -0.001035 -0.007328 -0.022271 -0.065589 -0.166579 -0.239495 -0.050942  0.339060  0.388971 -0.020070
                                 0.013688  0.009106  0.001597 -0.000825  0.000562 -0.000562  0.130391  0.185901  0.111443 -0.013085
                                -0.006589 -0.005863  0.000191  0.000681 -0.000497 -0.000051  0.000009 -0.000000 -0.000000  0.000002
                                 0.000000  0.000017 -0.000006  0.000026 -0.000007  0.000016 -0.000006  0.000003 -0.000003 -0.000000
                                -0.000002 -0.000015  0.000006 -0.000008  0.000003  0.000000 -0.000000 -0.000000 -0.000000  0.000000
                                 0.000000 -0.000000 -0.000000  0.000000  0.000000 -0.000000  0.000000 -0.000003  0.000000 -0.000000
                                 0.000001 -0.000000  0.000000 -0.000000

   3.2   2   -10.4486 -118.5700  0.000003  0.000001  0.000007  0.000008  0.000022  0.000037  0.000079  0.000153  0.000288  0.000980
                                 0.000517  0.003491  0.010764  0.031752  0.082147  0.117848  0.016526 -0.169185 -0.146788  0.434736
                                 0.183277 -0.152375 -0.022957  0.011722 -0.008037  0.008107 -0.123162 -0.270563  0.078744  0.401165
                                 0.180486  0.091321 -0.002791 -0.009897  0.007252  0.000745 -0.000133  0.000000 -0.000000  0.000003
                                -0.000002  0.000018 -0.000008  0.000069 -0.000020  0.000075 -0.000003  0.000144 -0.000088  0.000010
                                -0.000010  0.000062 -0.000011  0.000150 -0.000089 -0.000004  0.000003  0.000003 -0.000003 -0.000002
                                 0.000002  0.000001 -0.000001 -0.000000  0.000001 -0.000001  0.000001 -0.000006 -0.000007  0.000008
                                -0.000052 -0.000002  0.000002 -0.000014

   4.2   2    -1.0542  -46.8764 -0.000001 -0.000000 -0.000002 -0.000003 -0.000008 -0.000014 -0.000029 -0.000056 -0.000105 -0.000358
                                -0.000190 -0.001275 -0.003940 -0.011631 -0.030189 -0.043330 -0.005096  0.064685  0.046475 -0.226558
                                -0.067222  0.193868  0.323349  0.078865  0.010490 -0.004325  0.049166  0.114970 -0.063220 -0.258585
                                 0.192997  0.391016  0.002101  0.006588 -0.005142 -0.000588  0.000108  0.000006 -0.000005  0.000101
                                -0.000083  0.000610 -0.000514  0.001844 -0.001501  0.003713 -0.002680  0.004061 -0.002569  0.004052
                                -0.001016 -0.000349  0.000114 -0.001302  0.000559 -0.000386  0.002293  0.000963 -0.000094 -0.000694
                                 0.000523  0.000380 -0.000249 -0.000133  0.000091  0.000001 -0.000000  0.000010  0.000001 -0.000001
                                -0.000034 -0.000066  0.000074 -0.000375

   5.2   +    -0.4938  -78.6627  0.000000  0.000000  0.000000  0.000000  0.000000  0.000000  0.000000  0.000000  0.000000  0.000000
                                 0.000000  0.000000  0.000000  0.000001  0.000003  0.000006 -0.000002  0.000055  0.000131  0.000786
                                -0.000619 -0.001118  0.003428  0.002796  0.002296  0.000130 -0.000014 -0.000157 -0.000572  0.000406
                                -0.000699 -0.000330  0.000100  0.000349 -0.000244 -0.000028  0.000005  0.000021  0.000981  0.000325
                                 0.015275  0.002042  0.095797  0.005619  0.263783  0.008309  0.392019  0.008248  0.387460  0.003849
                                 0.216744  0.000391  0.018756  0.000473  0.018183 -0.001316 -0.009322  0.000683  0.055301 -0.000762
                                -0.033533  0.000408  0.020003 -0.000150 -0.007187  0.000009  0.000017 -0.000018 -0.000031  0.000134
                                 0.000049  0.000105  0.000288 -0.000233

   6.2   +    -0.5002  -78.7339  0.000000  0.000000  0.000000  0.000000  0.000000  0.000000  0.000000  0.000000  0.000001  0.000002
                                 0.000001  0.000007  0.000020  0.000060  0.000157  0.000225  0.000026 -0.000401 -0.000370  0.000424
                                 0.000174 -0.000520 -0.003965 -0.002257 -0.000852 -0.000115 -0.000243 -0.000480  0.000995  0.001683
                                -0.000695 -0.002110 -0.000019 -0.000032  0.000036  0.000006 -0.000001  0.000982 -0.000019  0.015283
                                -0.000303  0.095841 -0.001895  0.263951 -0.005223  0.392457 -0.007809  0.388270 -0.007693  0.216228
                                -0.005077  0.018657 -0.000377  0.018010 -0.000269 -0.011351 -0.000933  0.054280 -0.001592 -0.033726
                                 0.000618  0.019950 -0.000414 -0.007169  0.000146  0.000040  0.000021 -0.000014  0.000189 -0.000109
                                 0.000092  0.000602  0.000245 -0.000144

   7.2   0    -0.0359  -13.2023  0.000000  0.000000  0.000001  0.000001  0.000002  0.000003  0.000007  0.000013  0.000024  0.000081
                                 0.000043  0.000290  0.000893  0.002641  0.006847  0.009856  0.000948 -0.016354 -0.012491  0.036453
                                -0.009872 -0.106037 -0.114097 -0.030038  0.298080  0.297275 -0.010567 -0.024337  0.028079  0.087301
                                -0.036497 -0.077552  0.137901  0.302469  0.118723  0.023681  0.002785  0.000002 -0.000007  0.000030
                                -0.000108  0.000197 -0.000689  0.000494 -0.001804  0.000463 -0.002215  0.000316 -0.002000  0.000475
                                -0.001635  0.000170 -0.000357  0.000442 -0.000785 -0.001279  0.005262  0.001547  0.009757  0.001232
                                 0.008539  0.000604  0.005295  0.000269  0.001563  0.000000 -0.000000  0.000002  0.000000 -0.000001
                                -0.000001  0.000014 -0.000013  0.000082

   8.2   0     0.0052   -2.9643 -0.000000 -0.000000 -0.000000 -0.000000 -0.000000 -0.000001 -0.000001 -0.000002 -0.000004 -0.000014
                                -0.000005 -0.000048 -0.000140 -0.000427 -0.001080 -0.001633  0.000377  0.008325  0.009809  0.046135
                                 0.062364  0.184750  0.136340 -0.166086  0.255633 -1.001693 -0.000433 -0.004273 -0.045382 -0.075448
                                -0.063972 -0.155122  3.120751  2.428445 -3.500324 -2.549288  2.086278 -0.000000  0.000001 -0.000004
                                 0.000016 -0.000029  0.000105 -0.000072  0.000273 -0.000062  0.000329 -0.000039  0.000294 -0.000074
                                 0.000250 -0.000027  0.000057 -0.000072  0.000128  0.000217 -0.000879 -0.000308 -0.001623 -0.000018
                                -0.001479 -0.000352 -0.000817  0.000493  0.000492 -0.000000  0.000000 -0.000000 -0.000000  0.000000
                                 0.000000 -0.000002  0.000002 -0.000014

                                   1 2py     1 2py     1 2py     1 2py     1 2py     1 2py     1 2py     1 2py     1 2py     1 2py  
                                   1 2py     1 2py     1 2py     1 2py     1 2py     1 2py     1 2py     1 2py     1 2py     1 2py  
                                   1 2py     1 2py     1 2py     1 2py     1 2py     1 2py     1 2py     1 2py     1 2py     1 2py  
                                   1 2py     1 2py     1 2py     1 2py     1 2py     1 2py     1 2py     1 4f1-    1 4f3-    1 4f1- 
                                   1 4f3-    1 4f1-    1 4f3-    1 4f1-    1 4f3-    1 4f1-    1 4f3-    1 4f1-    1 4f3-    1 4f1- 
                                   1 4f3-    1 4f1-    1 4f3-    1 4f1-    1 4f3-    1 4f1-    1 4f3-    1 4f1-    1 4f3-    1 4f1- 
                                   1 4f3-    1 4f1-    1 4f3-    1 4f1-    1 4f3-    1 6h1-    1 6h3-    1 6h5-    1 6h1-    1 6h3- 
                                   1 6h5-    1 6h1-    1 6h3-    1 6h5- 

   1.3   2  -271.8958 -797.3791  0.000012  0.000002  0.000028  0.000033  0.000094  0.000160  0.000334  0.000654  0.001194  0.004172
                                 0.001986  0.014675  0.043393  0.124479  0.297004  0.417766  0.253826  0.025916 -0.014746 -0.040187
                                -0.014947 -0.006355 -0.001019  0.000510 -0.000342  0.000338  0.003090  0.014919  0.038441  0.020734
                                 0.004958  0.003934 -0.000114 -0.000409  0.000297  0.000030 -0.000005  0.000001 -0.000000  0.000001
                                -0.000001  0.000000  0.000000 -0.000000  0.000000 -0.000000  0.000000 -0.000000 -0.000000 -0.000000
                                -0.000000  0.000000  0.000000  0.000000  0.000000 -0.000000 -0.000000  0.000000 -0.000000 -0.000000
                                 0.000000  0.000000 -0.000000 -0.000000  0.000000 -0.000000 -0.000000 -0.000000  0.000000  0.000000
                                 0.000000 -0.000000 -0.000000 -0.000000

   2.3   2   -57.7081 -280.4653 -0.000006 -0.000001 -0.000014 -0.000016 -0.000046 -0.000078 -0.000165 -0.000322 -0.000596 -0.002062
                                -0.001035 -0.007328 -0.022271 -0.065589 -0.166579 -0.239495 -0.050942  0.339060  0.388971 -0.020070
                                 0.013688  0.009106  0.001597 -0.000825  0.000562 -0.000562  0.130391  0.185901  0.111443 -0.013085
                                -0.006589 -0.005863  0.000191  0.000681 -0.000497 -0.000051  0.000009 -0.000000  0.000000  0.000002
                                -0.000000  0.000017  0.000006  0.000026  0.000007  0.000016  0.000006  0.000003  0.000003 -0.000000
                                 0.000002 -0.000015 -0.000006 -0.000008 -0.000003  0.000000  0.000000 -0.000000  0.000000  0.000000
                                -0.000000 -0.000000  0.000000  0.000000 -0.000000 -0.000000 -0.000000 -0.000003  0.000000  0.000000
                                 0.000001 -0.000000 -0.000000 -0.000000

   3.3   2   -10.4486 -118.5700  0.000003  0.000001  0.000007  0.000008  0.000022  0.000037  0.000079  0.000153  0.000288  0.000980
                                 0.000517  0.003491  0.010764  0.031752  0.082147  0.117848  0.016526 -0.169185 -0.146788  0.434736
                                 0.183277 -0.152375 -0.022957  0.011722 -0.008037  0.008107 -0.123162 -0.270563  0.078744  0.401165
                                 0.180486  0.091321 -0.002791 -0.009897  0.007252  0.000745 -0.000133  0.000000  0.000000  0.000003
                                 0.000002  0.000018  0.000008  0.000069  0.000020  0.000075  0.000003  0.000144  0.000088  0.000010
                                 0.000010  0.000062  0.000011  0.000150  0.000089 -0.000004 -0.000003  0.000003  0.000003 -0.000002
                                -0.000002  0.000001  0.000001 -0.000000 -0.000001 -0.000001 -0.000001 -0.000006 -0.000007 -0.000008
                                -0.000052 -0.000002 -0.000002 -0.000014

   4.3   2    -1.0542  -46.8764 -0.000001 -0.000000 -0.000002 -0.000003 -0.000008 -0.000014 -0.000029 -0.000056 -0.000105 -0.000358
                                -0.000190 -0.001275 -0.003940 -0.011631 -0.030189 -0.043330 -0.005096  0.064685  0.046475 -0.226558
                                -0.067222  0.193868  0.323349  0.078865  0.010490 -0.004325  0.049166  0.114970 -0.063220 -0.258585
                                 0.192997  0.391016  0.002101  0.006588 -0.005142 -0.000588  0.000108  0.000006  0.000005  0.000101
                                 0.000083  0.000610  0.000514  0.001844  0.001501  0.003713  0.002680  0.004061  0.002569  0.004052
                                 0.001016 -0.000349 -0.000114 -0.001302 -0.000559 -0.000386 -0.002293  0.000963  0.000094 -0.000694
                                -0.000523  0.000380  0.000249 -0.000133 -0.000091  0.000001  0.000000  0.000010  0.000001  0.000001
                                -0.000034 -0.000066 -0.000074 -0.000375

   5.3   +    -0.4938  -78.6627 -0.000000 -0.000000 -0.000000 -0.000000 -0.000000 -0.000000 -0.000000 -0.000000 -0.000000 -0.000000
                                -0.000000 -0.000000 -0.000000 -0.000001 -0.000003 -0.000006  0.000002 -0.000055 -0.000131 -0.000786
                                 0.000619  0.001118 -0.003428 -0.002796 -0.002296 -0.000130  0.000014  0.000157  0.000572 -0.000406
                                 0.000699  0.000330 -0.000100 -0.000349  0.000244  0.000028 -0.000005 -0.000021  0.000981 -0.000325
                                 0.015275 -0.002042  0.095797 -0.005619  0.263783 -0.008309  0.392019 -0.008248  0.387460 -0.003849
                                 0.216744 -0.000391  0.018756 -0.000473  0.018183  0.001316 -0.009322 -0.000683  0.055301  0.000762
                                -0.033533 -0.000408  0.020003  0.000150 -0.007187 -0.000009  0.000017  0.000018  0.000031  0.000134
                                -0.000049 -0.000105  0.000288  0.000233

   6.3   +    -0.5002  -78.7339  0.000000  0.000000  0.000000  0.000000  0.000000  0.000000  0.000000  0.000000  0.000001  0.000002
                                 0.000001  0.000007  0.000020  0.000060  0.000157  0.000225  0.000026 -0.000401 -0.000370  0.000424
                                 0.000174 -0.000520 -0.003965 -0.002257 -0.000852 -0.000115 -0.000243 -0.000480  0.000995  0.001683
                                -0.000695 -0.002110 -0.000019 -0.000032  0.000036  0.000006 -0.000001  0.000982  0.000019  0.015283
                                 0.000303  0.095841  0.001895  0.263951  0.005223  0.392457  0.007809  0.388270  0.007693  0.216228
                                 0.005077  0.018657  0.000377  0.018010  0.000269 -0.011351  0.000933  0.054280  0.001592 -0.033726
                                -0.000618  0.019950  0.000414 -0.007169 -0.000146  0.000040 -0.000021 -0.000014  0.000189  0.000109
                                 0.000092  0.000602 -0.000245 -0.000144

   7.3   0    -0.0359  -13.2023  0.000000  0.000000  0.000001  0.000001  0.000002  0.000003  0.000007  0.000013  0.000024  0.000081
                                 0.000043  0.000290  0.000893  0.002641  0.006847  0.009856  0.000948 -0.016354 -0.012491  0.036453
                                -0.009872 -0.106037 -0.114097 -0.030038  0.298080  0.297275 -0.010567 -0.024337  0.028079  0.087301
                                -0.036497 -0.077552  0.137901  0.302469  0.118723  0.023681  0.002785  0.000002  0.000007  0.000030
                                 0.000108  0.000197  0.000689  0.000494  0.001804  0.000463  0.002215  0.000316  0.002000  0.000475
                                 0.001635  0.000170  0.000357  0.000442  0.000785 -0.001279 -0.005262  0.001547 -0.009757  0.001232
                                -0.008539  0.000604 -0.005295  0.000269 -0.001563  0.000000  0.000000  0.000002  0.000000  0.000001
                                -0.000001  0.000014  0.000013  0.000082

   8.3   0     0.0052   -2.9643 -0.000000 -0.000000 -0.000000 -0.000000 -0.000000 -0.000001 -0.000001 -0.000002 -0.000004 -0.000014
                                -0.000005 -0.000048 -0.000140 -0.000427 -0.001080 -0.001633  0.000377  0.008325  0.009809  0.046135
                                 0.062364  0.184750  0.136340 -0.166086  0.255633 -1.001693 -0.000433 -0.004273 -0.045382 -0.075448
                                -0.063972 -0.155122  3.120751  2.428445 -3.500324 -2.549288  2.086278 -0.000000 -0.000001 -0.000004
                                -0.000016 -0.000029 -0.000105 -0.000072 -0.000273 -0.000062 -0.000329 -0.000039 -0.000294 -0.000074
                                -0.000250 -0.000027 -0.000057 -0.000072 -0.000128  0.000217  0.000879 -0.000308  0.001623 -0.000018
                                 0.001479 -0.000352  0.000817  0.000493 -0.000492 -0.000000 -0.000000 -0.000000 -0.000000 -0.000000
                                 0.000000 -0.000002 -0.000002 -0.000014

                                   1 3d2-    1 3d2-    1 3d2-    1 3d2-    1 3d2-    1 3d2-    1 3d2-    1 3d2-    1 3d2-    1 3d2- 
                                   1 3d2-    1 3d2-    1 3d2-    1 3d2-    1 3d2-    1 3d2-    1 3d2-    1 3d2-    1 3d2-    1 3d2- 
                                   1 3d2-    1 3d2-    1 3d2-    1 3d2-    1 5g2-    1 5g4-    1 5g2-    1 5g4-    1 5g2-    1 5g4- 
                                   1 5g2-    1 5g4-    1 5g2-    1 5g4-    1 5g2-    1 5g4-    1 5g2-    1 5g4-    1 5g2-    1 5g4- 
                                   1 5g2-    1 5g4- 

   1.4   2   -43.7726 -259.0314  0.000109  0.001353  0.008391  0.038354  0.140330  0.327370  0.480841  0.431564 -0.091197  0.011126
                                 0.006751  0.000777 -0.090961 -0.263544  0.235484 -0.009402 -0.002474 -0.000643  0.000540 -0.000350
                                 0.000200 -0.000072  0.000031 -0.000009  0.000017 -0.000000 -0.000011  0.000000  0.000009 -0.000000
                                -0.000006  0.000000  0.000004 -0.000000 -0.000003  0.000000  0.000002 -0.000000 -0.000001  0.000000
                                 0.000000 -0.000000

   2.4   2    -5.5846 -103.9582 -0.000053 -0.000649 -0.004066 -0.018683 -0.069868 -0.163461 -0.236622 -0.249136  0.896619  0.390933
                                 0.089782  0.006999  0.100312  0.559138 -0.657754  0.059632 -0.003868 -0.005709  0.004974 -0.003337
                                 0.001944 -0.000717  0.000308 -0.000088  0.000034 -0.000000  0.000056 -0.000000  0.000135 -0.000000
                                 0.000099 -0.000000  0.000009 -0.000000  0.000001  0.000000 -0.000001  0.000000  0.000000 -0.000000
                                -0.000000  0.000000

   3.4   0    -0.0553  -26.9449  0.000011  0.000138  0.000867  0.003996  0.014948  0.035169  0.047810  0.027101 -0.170156 -0.109944
                                -0.024801  0.311799 -0.016543 -0.084957  0.083906  0.075267  0.257870  0.236116  0.210635  0.145754
                                 0.088154  0.036091  0.000655  0.000819 -0.000005  0.000000  0.000010  0.000000 -0.000013  0.000000
                                 0.000303 -0.000000  0.000710 -0.000000  0.000532  0.000000  0.001849  0.000000  0.000914  0.000000
                                 0.000523  0.000000

   4.4   0     0.0106   -3.0978 -0.000001 -0.000008 -0.000053 -0.000238 -0.000922 -0.002047 -0.004419 -0.015281  0.038152 -0.003959
                                -0.030492 -0.048318  0.004618  0.031073 -0.043887  0.018984  0.009593  0.063614 -0.165557  0.285733
                                -0.396172  0.604645 -0.910122  1.485442  0.000001 -0.000000 -0.000002  0.000000  0.000003 -0.000000
                                -0.000025  0.000000 -0.000027  0.000000 -0.000070 -0.000000 -0.000011 -0.000000 -0.000094 -0.000000
                                 0.000355 -0.000000

                                   1 2pz     1 2pz     1 2pz     1 2pz     1 2pz     1 2pz     1 2pz     1 2pz     1 2pz     1 2pz  
                                   1 2pz     1 2pz     1 2pz     1 2pz     1 2pz     1 2pz     1 2pz     1 2pz     1 2pz     1 2pz  
                                   1 2pz     1 2pz     1 2pz     1 2pz     1 2pz     1 2pz     1 2pz     1 2pz     1 2pz     1 2pz  
                                   1 2pz     1 2pz     1 2pz     1 2pz     1 2pz     1 2pz     1 2pz     1 4f0     1 4f2+    1 4f0  
                                   1 4f2+    1 4f0     1 4f2+    1 4f0     1 4f2+    1 4f0     1 4f2+    1 4f0     1 4f2+    1 4f0  
                                   1 4f2+    1 4f0     1 4f2+    1 4f0     1 4f2+    1 4f0     1 4f2+    1 4f0     1 4f2+    1 4f0  
                                   1 4f2+    1 4f0     1 4f2+    1 4f0     1 4f2+    1 6h2+    1 6h4+    1 6h0     1 6h2+    1 6h4+ 
                                   1 6h0     1 6h2+    1 6h4+    1 6h0  

   1.5   2  -271.8973 -797.3805  0.000012  0.000002  0.000028  0.000033  0.000094  0.000160  0.000334  0.000654  0.001194  0.004172
                                 0.001987  0.014675  0.043393  0.124478  0.297003  0.417767  0.253826  0.025914 -0.014747 -0.040191
                                -0.014948 -0.006355 -0.001019  0.000510 -0.000342  0.000338  0.003091  0.014921  0.038445  0.020736
                                 0.004958  0.003934 -0.000114 -0.000409  0.000297  0.000030 -0.000005  0.000001 -0.000000  0.000002
                                -0.000000  0.000001 -0.000000 -0.000000  0.000000 -0.000000  0.000000  0.000000 -0.000000  0.000000
                                -0.000000  0.000000 -0.000000  0.000000 -0.000000 -0.000000  0.000000  0.000000 -0.000000 -0.000000
                                 0.000000  0.000000 -0.000000 -0.000000  0.000000  0.000000 -0.000000 -0.000000 -0.000000  0.000000
                                 0.000000  0.000000 -0.000000 -0.000000

   2.5   2   -57.7120 -280.4681 -0.000006 -0.000001 -0.000014 -0.000016 -0.000046 -0.000078 -0.000165 -0.000322 -0.000596 -0.002062
                                -0.001035 -0.007328 -0.022271 -0.065588 -0.166575 -0.239493 -0.050932  0.339085  0.388994 -0.020085
                                 0.013682  0.009102  0.001597 -0.000824  0.000562 -0.000561  0.130354  0.185873  0.111461 -0.013075
                                -0.006585 -0.005859  0.000191  0.000681 -0.000497 -0.000051  0.000009 -0.000000  0.000000  0.000002
                                -0.000000  0.000019 -0.000000  0.000030 -0.000000  0.000017 -0.000000  0.000002  0.000000 -0.000000
                                 0.000000 -0.000016  0.000000 -0.000009  0.000000  0.000000 -0.000000 -0.000000  0.000000  0.000000
                                -0.000000 -0.000000  0.000000  0.000000 -0.000000  0.000000 -0.000002 -0.000000 -0.000000  0.000000
                                 0.000000  0.000000 -0.000000 -0.000000

   3.5   2   -10.4556 -118.5661  0.000003  0.000001  0.000007  0.000008  0.000022  0.000037  0.000079  0.000153  0.000288  0.000980
                                 0.000517  0.003490  0.010762  0.031746  0.082132  0.117824  0.016531 -0.169133 -0.146868  0.434180
                                 0.183578 -0.152598 -0.022993  0.011734 -0.008046  0.008115 -0.123145 -0.270470  0.079097  0.400868
                                 0.180876  0.091443 -0.002794 -0.009907  0.007259  0.000746 -0.000133  0.000000 -0.000000  0.000003
                                -0.000000  0.000019 -0.000000  0.000078 -0.000000  0.000090 -0.000000  0.000147 -0.000000  0.000009
                                -0.000000  0.000073 -0.000000  0.000156 -0.000000 -0.000004  0.000000  0.000002 -0.000000 -0.000002
                                 0.000000  0.000001  0.000000 -0.000000 -0.000000  0.000000 -0.000004 -0.000001  0.000000 -0.000033
                                -0.000010  0.000000 -0.000008 -0.000003

   4.5   2    -1.0668  -46.9189 -0.000001 -0.000000 -0.000002 -0.000003 -0.000008 -0.000014 -0.000029 -0.000056 -0.000105 -0.000358
                                -0.000190 -0.001276 -0.003943 -0.011641 -0.030214 -0.043367 -0.005092  0.064847  0.046718 -0.225258
                                -0.066098  0.198035  0.321146  0.078340  0.009413 -0.003578  0.049162  0.114876 -0.064344 -0.259964
                                 0.189195  0.392932  0.001801  0.005602 -0.004392 -0.000505  0.000093  0.000006 -0.000000  0.000093
                                -0.000000  0.000560 -0.000000  0.001717 -0.000000  0.003607 -0.000000  0.004068 -0.000000  0.004502
                                -0.000000 -0.000399  0.000000 -0.001434  0.000000  0.000199 -0.000000  0.001115 -0.000000 -0.000657
                                 0.000000  0.000373 -0.000000 -0.000129  0.000000 -0.000000  0.000007  0.000002  0.000000 -0.000026
                                -0.000005  0.000000 -0.000214 -0.000062

   5.5   +    -0.4980  -78.6508 -0.000000  0.000000 -0.000000 -0.000000 -0.000000 -0.000000 -0.000000 -0.000000 -0.000000 -0.000000
                                -0.000000 -0.000000 -0.000000 -0.000000 -0.000000 -0.000000 -0.000000  0.000000  0.000000 -0.000000
                                 0.000000  0.000000  0.000000  0.000000 -0.000000  0.000000  0.000000  0.000000 -0.000000 -0.000000
                                 0.000000  0.000000  0.000000  0.000000 -0.000000 -0.000000  0.000000 -0.000000  0.000981 -0.000000
                                 0.015272 -0.000000  0.095775 -0.000000  0.263755 -0.000000  0.392129 -0.000000  0.387770 -0.000000
                                 0.217173 -0.000000  0.018694 -0.000000  0.017999  0.000000 -0.009488 -0.000000  0.055087  0.000000
                                -0.033600 -0.000000  0.019973  0.000000 -0.007174  0.000027 -0.000000 -0.000000  0.000217 -0.000000
                                -0.000000  0.000444 -0.000000 -0.000000

   6.5   +    -0.5011  -78.7334  0.000000  0.000000  0.000000  0.000000  0.000000  0.000000  0.000000  0.000000  0.000001  0.000002
                                 0.000001  0.000008  0.000024  0.000070  0.000183  0.000262  0.000028 -0.000464 -0.000411  0.000583
                                -0.000174 -0.000890 -0.003503 -0.001789 -0.000183 -0.000134 -0.000280 -0.000581  0.001097  0.002263
                                -0.000928 -0.002751  0.000033  0.000146 -0.000092 -0.000009  0.000002  0.000982  0.000000  0.015285
                                 0.000000  0.095853  0.000000  0.263990  0.000000  0.392538  0.000000  0.388394  0.000000  0.216315
                                 0.000000  0.018651  0.000000  0.017987  0.000000 -0.011337 -0.000000  0.054228  0.000000 -0.033731
                                -0.000000  0.019939  0.000000 -0.007165 -0.000000  0.000000 -0.000014  0.000030  0.000000  0.000123
                                 0.000226  0.000000 -0.000130  0.000480

   7.5   0    -0.0374  -13.2598 -0.000000 -0.000000 -0.000001 -0.000001 -0.000002 -0.000003 -0.000007 -0.000013 -0.000024 -0.000081
                                -0.000043 -0.000290 -0.000893 -0.002642 -0.006849 -0.009860 -0.000943  0.016427  0.012604 -0.035514
                                 0.011369  0.117608  0.117639  0.034816 -0.306825 -0.302417  0.010546  0.024242 -0.028777 -0.088718
                                 0.032701  0.066305 -0.133133 -0.301400 -0.116225 -0.020866 -0.002501 -0.000000 -0.000000 -0.000003
                                -0.000000 -0.000021 -0.000000 -0.000026 -0.000000  0.000152 -0.000000  0.000265 -0.000000 -0.000112
                                -0.000000 -0.000097 -0.000000 -0.000304 -0.000000 -0.000063  0.000000 -0.004820  0.000000 -0.004009
                                 0.000000 -0.002301  0.000000 -0.000760  0.000000  0.000000 -0.000001 -0.000000 -0.000000  0.000001
                                 0.000001  0.000000 -0.000053 -0.000018

   8.5   0     0.0052   -2.9723 -0.000000 -0.000000 -0.000000 -0.000000 -0.000000 -0.000000 -0.000001 -0.000002 -0.000004 -0.000013
                                -0.000005 -0.000048 -0.000139 -0.000423 -0.001071 -0.001619  0.000375  0.008268  0.009749  0.045938
                                 0.062129  0.185254  0.135988 -0.164260  0.252220 -0.994772 -0.000435 -0.004260 -0.045138 -0.075081
                                -0.064114 -0.155866  3.093556  2.407517 -3.468386 -2.521474  2.074000 -0.000000 -0.000000 -0.000000
                                -0.000000 -0.000002 -0.000000 -0.000001 -0.000000  0.000030 -0.000000  0.000048 -0.000000 -0.000020
                                -0.000000 -0.000016  0.000000 -0.000049  0.000000 -0.000007  0.000000 -0.000854  0.000000 -0.000458
                                 0.000000 -0.000677  0.000000  0.000758 -0.000000  0.000000 -0.000000 -0.000000 -0.000000  0.000000
                                 0.000000  0.000000 -0.000009 -0.000003

                                   1 3d1+    1 3d1+    1 3d1+    1 3d1+    1 3d1+    1 3d1+    1 3d1+    1 3d1+    1 3d1+    1 3d1+ 
                                   1 3d1+    1 3d1+    1 3d1+    1 3d1+    1 3d1+    1 3d1+    1 3d1+    1 3d1+    1 3d1+    1 3d1+ 
                                   1 3d1+    1 3d1+    1 3d1+    1 3d1+    1 5g1+    1 5g3+    1 5g1+    1 5g3+    1 5g1+    1 5g3+ 
                                   1 5g1+    1 5g3+    1 5g1+    1 5g3+    1 5g1+    1 5g3+    1 5g1+    1 5g3+    1 5g1+    1 5g3+ 
                                   1 5g1+    1 5g3+ 

   1.6   2   -43.7749 -259.0329  0.000109  0.001353  0.008391  0.038354  0.140329  0.327367  0.480826  0.431545 -0.091177  0.011125
                                 0.006750  0.000777 -0.090943 -0.263510  0.235457 -0.009401 -0.002474 -0.000643  0.000540 -0.000350
                                 0.000200 -0.000072  0.000031 -0.000009  0.000026 -0.000004 -0.000016  0.000003  0.000014 -0.000003
                                -0.000009  0.000002  0.000006 -0.000001 -0.000004  0.000001  0.000002 -0.000000 -0.000001  0.000000
                                 0.000000 -0.000000

   2.6   2    -5.5892 -103.9547 -0.000052 -0.000649 -0.004066 -0.018681 -0.069859 -0.163439 -0.236586 -0.249084  0.896368  0.390890
                                 0.089843  0.007009  0.100284  0.558984 -0.657518  0.059737 -0.003796 -0.005703  0.004970 -0.003334
                                 0.001942 -0.000716  0.000308 -0.000088  0.000050 -0.000006  0.000082 -0.000009  0.000213 -0.000063
                                 0.000153 -0.000037  0.000006  0.000017  0.000001  0.000002 -0.000002  0.000002  0.000001 -0.000001
                                -0.000000  0.000000

   3.6   0    -0.0673  -27.3293  0.000011  0.000140  0.000878  0.004046  0.015136  0.035603  0.048514  0.028385 -0.174045 -0.110694
                                -0.023953  0.317020 -0.016997 -0.087766  0.087502  0.074798  0.260127  0.243744  0.208582  0.142817
                                 0.074317  0.027842 -0.000977  0.000775 -0.000008  0.000004  0.000012  0.000004 -0.000035  0.000054
                                 0.000415  0.000002  0.000843  0.000518 -0.000613  0.003481  0.001450  0.002405  0.000522  0.001887
                                 0.000332  0.000624

   4.6   0     0.0105   -3.1171 -0.000001 -0.000008 -0.000051 -0.000229 -0.000888 -0.001969 -0.004291 -0.015045  0.037406 -0.004068
                                -0.030105 -0.047293  0.004534  0.030547 -0.043195  0.018842  0.009785  0.062429 -0.161888  0.282767
                                -0.387431  0.602501 -0.892660  1.473024  0.000001  0.000000 -0.000002 -0.000001  0.000005 -0.000001
                                -0.000032 -0.000004 -0.000029 -0.000018 -0.000013 -0.000217  0.000002  0.000009 -0.000034 -0.000191
                                 0.000292  0.000571

                                   1 3d1-    1 3d1-    1 3d1-    1 3d1-    1 3d1-    1 3d1-    1 3d1-    1 3d1-    1 3d1-    1 3d1- 
                                   1 3d1-    1 3d1-    1 3d1-    1 3d1-    1 3d1-    1 3d1-    1 3d1-    1 3d1-    1 3d1-    1 3d1- 
                                   1 3d1-    1 3d1-    1 3d1-    1 3d1-    1 5g1-    1 5g3-    1 5g1-    1 5g3-    1 5g1-    1 5g3- 
                                   1 5g1-    1 5g3-    1 5g1-    1 5g3-    1 5g1-    1 5g3-    1 5g1-    1 5g3-    1 5g1-    1 5g3- 
                                   1 5g1-    1 5g3- 

   1.7   2   -43.7749 -259.0329  0.000109  0.001353  0.008391  0.038354  0.140329  0.327367  0.480826  0.431545 -0.091177  0.011125
                                 0.006750  0.000777 -0.090944 -0.263510  0.235457 -0.009401 -0.002474 -0.000643  0.000540 -0.000350
                                 0.000200 -0.000072  0.000031 -0.000009  0.000026  0.000004 -0.000016 -0.000003  0.000014  0.000003
                                -0.000009 -0.000002  0.000006  0.000001 -0.000004 -0.000001  0.000002  0.000000 -0.000001 -0.000000
                                 0.000000  0.000000

   2.7   2    -5.5892 -103.9547 -0.000052 -0.000649 -0.004066 -0.018681 -0.069859 -0.163439 -0.236586 -0.249084  0.896368  0.390890
                                 0.089843  0.007009  0.100284  0.558984 -0.657518  0.059737 -0.003796 -0.005703  0.004970 -0.003334
                                 0.001942 -0.000716  0.000308 -0.000088  0.000050  0.000006  0.000082  0.000009  0.000213  0.000063
                                 0.000153  0.000037  0.000006 -0.000017  0.000001 -0.000002 -0.000002 -0.000002  0.000001  0.000001
                                -0.000000 -0.000000

   3.7   0    -0.0673  -27.3293  0.000011  0.000140  0.000878  0.004046  0.015136  0.035603  0.048514  0.028385 -0.174045 -0.110694
                                -0.023953  0.317020 -0.016997 -0.087766  0.087502  0.074798  0.260127  0.243744  0.208582  0.142817
                                 0.074317  0.027842 -0.000977  0.000775 -0.000008 -0.000004  0.000012 -0.000004 -0.000035 -0.000054
                                 0.000415 -0.000002  0.000843 -0.000518 -0.000613 -0.003481  0.001450 -0.002405  0.000522 -0.001887
                                 0.000332 -0.000624

   4.7   0     0.0105   -3.1171 -0.000001 -0.000008 -0.000051 -0.000229 -0.000888 -0.001969 -0.004291 -0.015045  0.037406 -0.004068
                                -0.030105 -0.047293  0.004534  0.030547 -0.043195  0.018842  0.009785  0.062429 -0.161888  0.282767
                                -0.387431  0.602501 -0.892660  1.473024  0.000001 -0.000000 -0.000002  0.000001  0.000005  0.000001
                                -0.000032  0.000004 -0.000029  0.000018 -0.000013  0.000217  0.000002 -0.000009 -0.000034  0.000191
                                 0.000292 -0.000571

                                   1 4f2-    1 4f2-    1 4f2-    1 4f2-    1 4f2-    1 4f2-    1 4f2-    1 4f2-    1 4f2-    1 4f2- 
                                   1 4f2-    1 4f2-    1 4f2-    1 4f2-    1 6h4-    1 6h2-    1 6h4-    1 6h2-    1 6h4-    1 6h2- 


   1.8   +    -0.4977  -78.8035  0.000983  0.015301  0.095960  0.264255  0.392775  0.388496  0.215454  0.018708  0.018231 -0.012348
                                 0.053975 -0.033776  0.019973 -0.007182 -0.000000  0.000021 -0.000000  0.000169 -0.000000  0.000331

   2.8   0     0.0497   -5.2168 -0.000006 -0.000069 -0.000573 -0.000479  0.004481  0.003239 -0.012055 -0.002849 -0.007504  0.034330
                                -0.093271  0.287836 -0.550348  1.307681  0.000000 -0.000000  0.000000 -0.000001  0.000000  0.000000

   3.8   0     0.1216   -7.5807 -0.000023 -0.000430 -0.002399 -0.008918 -0.023997 -0.019647  0.028498  0.005338  0.015166 -0.067364
                                 0.282051 -0.576206  2.016518 -1.185954  0.000000 -0.000000  0.000000 -0.000005 -0.000000  0.000004

 HOMO     11.1    -0.152890 =      -4.1603eV
 LUMO     12.1    -0.071357 =      -1.9417eV
 LUMO-HOMO         0.081533 =       2.2186eV


 **********************************************************************************************************************************
 DATASETS  * FILE   NREC   LENGTH (MB)   RECORD NAMES
              1      23       22.40       500      610      700      900      950      970     1000      129      960     1700   
                                          VAR    BASINP    GEOM    SYMINP    ZMAT    AOBASIS   BASIS     P2S    ABASIS    OPER   
                                         1101     1401     1411     1412     1650     1100     1400     1410     1200     1210   
                                          SR      EKINR    POTR     PVPR    MOLCAS      S      EKIN      POT      H0       H01  
                                         1080     1600     1800   
                                         AOSYM     SMH     GRID   

              2       6        6.41       200      700     1000      520     1800     3202   
                                        OPTIONS   GEOM     BASIS   MCVARS    GRID      RKS  

 PROGRAMS   *        TOTAL       RKS       INT
 CPU TIMES  *       341.06     12.26    328.52
 REAL TIME  *       352.46 SEC
 DISK USED  *        11.10 GB      
 SF USED    *         0.14 MB      
 GA USED    *         0.09 MB       (max)       0.09 MB       (current)
 **********************************************************************************************************************************


 PROGRAM * RHF-SCF (OPEN SHELL)       Authors: W. Meyer, H.-J. Werner


 NUMBER OF ELECTRONS:      36+   28-    SPACE SYMMETRY=8    SPIN SYMMETRY: Nonet   
 CONVERGENCE THRESHOLDS:    1.00E-05 (Density)    1.28E-07 (Energy)
 MAX. NUMBER OF ITERATIONS:       60
 INTERPOLATION TYPE:            DIIS
 INTERPOLATION STEPS:              2 (START)      1 (STEP)
 LEVEL SHIFTS:                 -0.60 (CLOSED) -0.30 (OPEN) 

 Number of closed-shell orbitals:   28 (  10   4   4   2   4   2   2   0 )
 Number of open-shell orbitals:      8 (   1   2   2   0   2   0   0   1 )


 
 Extra symmetries of mos in symmetry 1:   1   1   1   3   2   1   3   2   1   1   3   2
 Extra symmetries of mos in symmetry 2:   1   1   1   1   3   2
 Extra symmetries of mos in symmetry 3:   1   1   1   1   3   2
 Extra symmetries of mos in symmetry 5:   1   1   1   1   3   2
 Molecular orbitals read from record     3202.2  Type=RKS/CANONICAL (state 1.8)

 Molecular orbital dump at record        4202.2

 ITERATION    DDIFF          GRAD             ENERGY        2-EL.EN.            DIPOLE MOMENTS         DIIS   ORB.
    1      0.000D+00      0.000D+00    -11267.31052843   8276.018687    0.00000    0.00000    0.00000    0    start
    2      0.000D+00      0.106D+00    -11267.34304169   8281.505930    0.00000    0.00000    0.00000    1    diag,B
    3      0.286D-01      0.142D-02    -11267.34527575   8277.196750    0.00000    0.00000    0.00000    2    diag,B
    4      0.730D-02      0.555D-03    -11267.34587437   8279.374007    0.00000    0.00000    0.00000    3    diag,B
    5      0.158D-02      0.365D-03    -11267.34621451   8278.521716    0.00000    0.00000    0.00000    4    diag,B
    6      0.963D-03      0.136D-03    -11267.34649008   8278.047897    0.00000    0.00000    0.00000    5    diag,B
    7      0.893D-03      0.813D-04    -11267.34661279   8277.957380    0.00000    0.00000    0.00000    6    diag,B
    8      0.581D-03      0.419D-04    -11267.34666758   8277.771706    0.00000    0.00000    0.00000    7    orth
    9      0.506D-03      0.173D-04    -11267.34667488   8277.743072    0.00000    0.00000    0.00000    8    diag,B
   10      0.812D-03      0.877D-05    -11267.34667708   8277.716918    0.00000    0.00000    0.00000    9    diag,B
   11      0.787D-03      0.427D-05    -11267.34667755   8277.713789    0.00000    0.00000    0.00000    9    diag,B
   12      0.547D-03      0.255D-05    -11267.34667774   8277.709521    0.00000    0.00000    0.00000    9    diag,B
   13      0.352D-03      0.148D-05    -11267.34667781   8277.711137    0.00000    0.00000    0.00000    9    diag,B
   14      0.153D-03      0.915D-06    -11267.34667784   8277.711413    0.00000    0.00000    0.00000    9    diag,B
   15      0.283D-03      0.479D-06    -11267.34667784   8277.711884    0.00000    0.00000    0.00000    9    diag,B
   16      0.220D-03      0.233D-06    -11267.34667784   8277.711982    0.00000    0.00000    0.00000    9    diag,B
   17      0.496D-04      0.113D-06    -11267.34667785   8277.712011    0.00000    0.00000    0.00000    9    diag,B
   18      0.846D-04      0.499D-07    -11267.34667785   8277.712051    0.00000    0.00000    0.00000    9    orth
   19      0.577D-04      0.246D-07    -11267.34667785   8277.711987    0.00000    0.00000    0.00000    9    diag,B
[...]
                                 0.002120 -0.000777  0.000333 -0.000096  0.000000  0.000000  0.000000  0.000000  0.000000  0.000000
                                 0.000000  0.000000  0.000000  0.000000  0.000000  0.000000  0.000000  0.000000  0.000000  0.000000
                                 0.000000  0.000000

   3.7  0.20000     0.086238     0.000012  0.000149  0.000953  0.004320  0.016361  0.038062  0.054477  0.042129 -0.214848 -0.117255
                                -0.005011  0.374587 -0.021547 -0.117119  0.130737  0.068151  0.264406  0.275222  0.161277  0.109823
                                 0.011293  0.007242 -0.002460  0.000706  0.000000  0.000000  0.000000  0.000000  0.000000  0.000000
                                 0.000000  0.000000  0.000000  0.000000  0.000000  0.000000  0.000000  0.000000  0.000000  0.000000
                                 0.000000  0.000000

                                   1 4f2-    1 4f2-    1 4f2-    1 4f2-    1 4f2-    1 4f2-    1 4f2-    1 4f2-    1 4f2-    1 4f2- 
                                   1 4f2-    1 4f2-    1 4f2-    1 4f2-    1 6h4-    1 6h2-    1 6h4-    1 6h2-    1 6h4-    1 6h2- 


   1.8  1.00000    -0.137025     0.000970  0.015310  0.095107  0.264742  0.392801  0.384875  0.199694  0.021210  0.030382 -0.017967
                                 0.043011 -0.028402  0.016201 -0.005671  0.000000  0.000000  0.000000  0.000000  0.000000  0.000000
 
 *** IN SYMMETRY 1 ORBITAL  4 SYMMETRY CONTAMINATION OF 0.347D-03 HAS BEEN REMOVED
 *** IN SYMMETRY 1 ORBITAL  5 SYMMETRY CONTAMINATION OF 0.347D-03 HAS BEEN REMOVED
 *** IN SYMMETRY 1 ORBITAL  7 SYMMETRY CONTAMINATION OF 0.287D-03 HAS BEEN REMOVED
 *** IN SYMMETRY 1 ORBITAL  8 SYMMETRY CONTAMINATION OF 0.287D-03 HAS BEEN REMOVED

 EXTRA SYMMETRY OF MOS IN SYMMETRY 1:   1 1 1 2 3 1 2 3 1 1   3 2 1 2 3 1 3 2 1 2   3 1 2 3 1 5 6 4 2 3   1 4 6 5 1 2 3 4 6 5
                                        1 2 3 5 6 4 1 2 3 6   5 4 1 2 3 5 6 4 1 2   3 5 6 4 1 2 3 5 6 4   1 2 3 5 6 4 1 2 3 1
                                        2 3 2 3 1 2 3 2 3 1   1 2 3 1 3 2 1 1 3 2   1 1 1 3 2 1 1 1 1 1   1 1 1
 EXTRA SYMMETRY OF MOS IN SYMMETRY 2:   1 1 1 1 2 3 1 1 1 2   3 1 1 2 3 1 3 2 1 2   3 1 2 3 1 3 2 1 6 5   4 3 2 1 1 3 2 6 4 5
                                        1 3 2 6 5 4 1 3 2 1   3 2 1 1 2 3 1 1 3 2   1 1 1 1 1 1 1 1 1 1   1 1 1 1
 EXTRA SYMMETRY OF MOS IN SYMMETRY 3:   1 1 1 1 2 3 1 1 2 1   3 1 1 3 2 1 2 3 1 2   3 1 2 3 1 3 2 1 6 5   4 3 2 1 1 3 2 6 5 4
                                        1 3 2 6 5 4 1 3 2 1   3 2 1 1 3 2 1 1 2 3   1 1 1 1 1 1 1 1 1 1   1 1 1 1
 EXTRA SYMMETRY OF MOS IN SYMMETRY 4:   1 1 1 1 1 1 1 2 3 1   2 3 1 2 3 1 3 2 1 3   2 1 3 2 1 3 2 1 3 2   1 3 2 1 1 1 1 1 1 1
                                        1 1
 EXTRA SYMMETRY OF MOS IN SYMMETRY 5:   1 1 1 1 2 3 1 1 1 3   2 1 1 2 3 1 2 3 1 2   3 1 2 3 1 3 2 1 5 4   6 3 2 1 1 3 2 5 6 4
                                        1 3 2 5 4 6 1 2 3 1   2 3 1 1 2 3 1 1 3 2   1 1 1 1 1 1 1 1 1 1   1 1 1 1
 EXTRA SYMMETRY OF MOS IN SYMMETRY 6:   1 1 1 1 1 1 1 2 3 1   2 3 1 2 3 1 3 2 1 3   2 1 3 2 1 3 2 1 3 2   1 3 2 1 1 1 1 1 1 1
                                        1 1
 EXTRA SYMMETRY OF MOS IN SYMMETRY 7:   1 1 1 1 1 1 1 3 2 1   2 3 1 2 3 1 3 2 1 3   2 1 3 2 1 3 2 1 3 2   1 3 2 1 1 1 1 1 1 1
                                        1 1
 EXTRA SYMMETRY OF MOS IN SYMMETRY 8:   1 1 1 1 1 1 1 2 3 1   1 2 3 1 2 3 1 1 1 1

 Natural orbital dump (state averaged) at molpro section  5202.2    (Orbital set 2)


 CI vector for state symmetry 1
 ==============================

 0/ // // 0 // 0 0 /      1.0000000   0.0000000
 /0 // // 0 // 0 0 /      0.0000000   1.0000000

 CI vector for state symmetry 2
 ==============================

 00 // // / // 0 0 /      1.0000000

 CI vector for state symmetry 3
 ==============================

 00 // // 0 // / 0 /      1.0000000

 CI vector for state symmetry 4
 ==============================

 00 // // 0 // 0 / /      1.0000000


 **********************************************************************************************************************************
 DATASETS  * FILE   NREC   LENGTH (MB)   RECORD NAMES
              1      24      316.19       500      610      700      900      950      970     1000      129      960     1700   
                                          VAR    BASINP    GEOM    SYMINP    ZMAT    AOBASIS   BASIS     P2S    ABASIS    OPER   
                                         1101     1401     1411     1412     1650     1100     1400     1410     1200     1210   
                                          SR      EKINR    POTR     PVPR    MOLCAS      S      EKIN      POT      H0       H01  
                                         1080     1600     1800     1380   
                                         AOSYM     SMH     GRID     JKOP   

              2       8       14.08       200      700     1000      520     1800     3202     4202     5202   
                                        OPTIONS   GEOM     BASIS   MCVARS    GRID      RKS      RHF     MCSCF   

 PROGRAMS   *        TOTAL     MULTI       POP       RHF       RKS       INT
 CPU TIMES  *       383.19     32.75      0.00      9.38     12.26    328.52
 REAL TIME  *       414.13 SEC
 DISK USED  *        11.11 GB      
 SF USED    *         1.13 GB      
 GA USED    *         0.09 MB       (max)       0.09 MB       (current)
 **********************************************************************************************************************************


 PROGRAM * RHF-SCF (OPEN SHELL)       Authors: W. Meyer, H.-J. Werner


 NUMBER OF ELECTRONS:      36+   28-    SPACE SYMMETRY=8    SPIN SYMMETRY: Nonet   
 CONVERGENCE THRESHOLDS:    1.00E-05 (Density)    1.28E-07 (Energy)
 MAX. NUMBER OF ITERATIONS:        0
 INTERPOLATION TYPE:            DIIS
 INTERPOLATION STEPS:              2 (START)      1 (STEP)
 LEVEL SHIFTS:                 -0.60 (CLOSED) -0.30 (OPEN) 

 Number of closed-shell orbitals:   28 (  10   4   4   2   4   2   2   0 )
 Number of open-shell orbitals:      8 (   1   2   2   0   2   0   0   1 )


 Molecular orbitals read from record     5202.2  Type=MCSCF/NATURAL  

 Molecular orbital dump at record        2102.2

 ITERATION    DDIFF          GRAD             ENERGY        2-EL.EN.            DIPOLE MOMENTS         DIIS   ORB.
    1      0.000D+00      0.000D+00    -11267.34438672   8277.596439    0.00000    0.00000    0.00000    0    start

 Final alpha occupancy:  11   6   6   2   6   2   2   1
 Final beta  occupancy:  10   4   4   2   4   2   2   0

 !RHF STATE 1.8 Energy               -11267.3443867234    
 Nuclear energy                         0.00000000
 One-electron energy               -15406.14260641
 Two-electron energy                 4138.79821969
 Virial quotient                       -0.78350640
 !RHF STATE 1.8 Dipole moment           0.00000000     0.00000000     0.00000000
 Dipole moment /Debye                   0.00000000     0.00000000     0.00000000

 Orbital energies:

         1.1          2.1          3.1          4.1          5.1          6.1          7.1          8.1          9.1         10.1
  -1855.711771  -310.815239   -70.757061   -45.457932   -45.457932   -15.098841    -6.192381    -6.192381    -2.231252    -0.197039

        11.1         12.1         13.1
      0.086238     0.086238     0.002842

         1.2          2.2          3.2          4.2          5.2          6.2          7.2          8.2
   -276.768154   -59.951473   -11.430081    -1.238988    -0.137025    -0.137025     0.004899     0.013260

         1.3          2.3          3.3          4.3          5.3          6.3          7.3          8.3
   -276.768154   -59.951473   -11.430081    -1.238988    -0.137025    -0.137025     0.004899     0.013260

         1.4          2.4          3.4          4.4
    -45.457932    -6.192381     0.086238     0.011477

         1.5          2.5          3.5          4.5          5.5          6.5          7.5          8.5
   -276.768154   -59.951473   -11.430081    -1.238988    -0.137025    -0.137025     0.004899     0.013260

         1.6          2.6          3.6          4.6
    -45.457932    -6.192381     0.086238     0.011477

         1.7          2.7          3.7          4.7
    -45.457932    -6.192381     0.086238     0.011477

         1.8          2.8          3.8
     -0.137025     0.059621     0.155972

 HOMO     11.1     0.086238 =       2.3467eV
 LUMO      7.2     0.004899 =       0.1333eV
 LUMO-HOMO        -0.081340 =      -2.2134eV


 **********************************************************************************************************************************
 DATASETS  * FILE   NREC   LENGTH (MB)   RECORD NAMES
              1      24      316.19       500      610      700      900      950      970     1000      129      960     1700   
                                          VAR    BASINP    GEOM    SYMINP    ZMAT    AOBASIS   BASIS     P2S    ABASIS    OPER   
                                         1101     1401     1411     1412     1650     1100     1400     1410     1200     1210   
                                          SR      EKINR    POTR     PVPR    MOLCAS      S      EKIN      POT      H0       H01  
                                         1080     1600     1800     1380   
                                         AOSYM     SMH     GRID     JKOP   

              2       9       18.43       200      700     1000      520     1800     3202     4202     5202     2102   
                                        OPTIONS   GEOM     BASIS   MCVARS    GRID      RKS      RHF     MCSCF     RHF  

 PROGRAMS   *        TOTAL       RHF     MULTI       POP       RHF       RKS       INT
 CPU TIMES  *       383.64      0.45     32.75      0.00      9.38     12.26    328.52
 REAL TIME  *       414.64 SEC
 DISK USED  *        11.11 GB      
 SF USED    *         1.13 GB      
 GA USED    *         0.09 MB       (max)       0.09 MB       (current)
 **********************************************************************************************************************************
 SETTING SCF(1)         =    -11267.34438672  AU                              
 SETTING _CC_NORM_MAX   =         2.00000000                                  


 PROGRAM * CCSD (Restricted open-shell coupled cluster)     Authors: C. Hampel, H.-J. Werner, 1991, M. Deegan, P.J. Knowles, 1992


 Convergence thresholds:  THRVAR = 1.00D-08  THRDEN = 1.28D-06

 CCSD(T)     terms to be evaluated (factor= 1.000)


 Number of closed-shell orbitals:  28 (  10   4   4   2   4   2   2   0 )
 Number of active  orbitals:        8 (   1   2   2   0   2   0   0   1 )
 Number of external orbitals:     445 ( 102  68  68  40  68  40  40  19 )

 Memory could be reduced to 649.75 Mwords without degradation in triples

 Number of N-1 electron functions:              64
 Number of N-2 electron functions:            2016
 Number of singly external CSFs:              4763
 Number of doubly external CSFs:          39881458
 Total number of CSFs:                    39886221

 Molecular orbitals read from record     2102.2  Type=RHF/CANONICAL (state 1.8)

 Integral transformation finished. Total CPU:  14.78 sec, npass=  1  Memory used: 151.12 MW

 Starting RMP2 calculation

 Wavefunction is spin-projected

 ITER.      SQ.NORM     CORR.ENERGY   TOTAL ENERGY   ENERGY CHANGE        DEN1      VAR(S)    VAR(P)  DIIS     TIME
   1      1.19476267    -3.38904817-11270.73343489    -3.38904817    -0.00832269  0.16D-03  0.37D-02  1  1    18.43
   2      1.20695494    -3.39820703-11270.74259375    -0.00915886    -0.00053467  0.33D-04  0.44D-03  2  2    21.53
   3      1.21321788    -3.40039108-11270.74477780    -0.00218405    -0.00003442  0.64D-05  0.26D-04  3  3    24.86
   4      1.21494878    -3.40074820-11270.74513492    -0.00035712    -0.00000184  0.12D-05  0.66D-06  4  4    28.52
   5      1.21513500    -3.40077309-11270.74515982    -0.00002490    -0.00000024  0.25D-06  0.31D-07  5  5    33.19
   6      1.21516149    -3.40077405-11270.74516078    -0.00000096    -0.00000003  0.23D-07  0.61D-08  6  6    38.33
   7      1.21516623    -3.40077409-11270.74516081    -0.00000003    -0.00000000  0.92D-09  0.98D-09  6  1    43.02

 Norm of t1 vector:      0.06302657      S-energy:    -0.00703097      T1 diagnostic:  0.00368120
 Norm of t2 vector:      0.45955836      P-energy:    -3.39374311
                                         Alpha-Beta:  -2.13898161
                                         Alpha-Alpha: -0.77461864
                                         Beta-Beta:   -0.48014286

 Spin contamination <S**2-Sz**2-Sz>     0.00000000
  Reference energy                   -11267.3443867234    
  RHF-RMP2 correlation energy          -3.400774086497
 !RHF-RMP2 energy                    -11270.7451608099    
 (NB above energy spin projected)

 Starting RCCSD calculation

 ITER.      SQ.NORM     CORR.ENERGY   TOTAL ENERGY   ENERGY CHANGE        DEN1      VAR(S)    VAR(P)  DIIS     TIME
   1      1.15658577    -3.11867459-11270.46306131    -3.11867459    -0.06132220  0.32D-02  0.63D-02  0  0   114.08
   2      1.17931128    -3.17573903-11270.52012575    -0.05706444    -0.00455281  0.55D-03  0.13D-02  1  1   183.47
   3      1.18747982    -3.17122388-11270.51561061     0.00451515    -0.00105070  0.40D-03  0.46D-03  2  2   253.38
   4      1.20171690    -3.17547657-11270.51986329    -0.00425268    -0.00026417  0.14D-03  0.11D-03  3  3   322.67
   5      1.21055897    -3.17701841-11270.52140514    -0.00154185    -0.00009242  0.62D-04  0.30D-04  4  4   393.54
   6      1.21833451    -3.17770758-11270.52209430    -0.00068916    -0.00002450  0.19D-04  0.62D-05  5  5   464.85
   7      1.22218213    -3.17801962-11270.52240635    -0.00031204    -0.00001046  0.80D-05  0.28D-05  6  6   535.76
   8      1.22438309    -3.17814053-11270.52252725    -0.00012091    -0.00000465  0.38D-05  0.11D-05  7  7   607.01
   9      1.22581755    -3.17816489-11270.52255162    -0.00002436    -0.00000193  0.18D-05  0.28D-06  8  8   677.36
  10      1.22652515    -3.17817881-11270.52256554    -0.00001392    -0.00000096  0.83D-06  0.22D-06  9  9   750.34
  11      1.22691202    -3.17817670-11270.52256342     0.00000212    -0.00000042  0.26D-06  0.17D-06 10 10   831.75
  12      1.22719444    -3.17818765-11270.52257438    -0.00001096    -0.00000012  0.64D-07  0.51D-07 11 11   904.14
  13      1.22729577    -3.17819066-11270.52257738    -0.00000301    -0.00000004  0.24D-07  0.14D-07 12 12   983.35
  14      1.22733234    -3.17819164-11270.52257836    -0.00000098    -0.00000001  0.87D-08  0.32D-08 13 13  1058.75
  15      1.22734547    -3.17819214-11270.52257886    -0.00000050    -0.00000000  0.30D-08  0.94D-09 14 14  1130.50

 Norm of t1 vector:      0.17876967      S-energy:    -0.00854276      T1 diagnostic:  0.01460158
                                                                       D1 diagnostic:  0.10770363
 Norm of t2 vector:      0.44202588      P-energy:    -3.16964938
                                         Alpha-Beta:  -2.04990458
                                         Alpha-Alpha: -0.68178644
                                         Beta-Beta:   -0.43795837

 Singles amplitudes (print threshold =  0.500E-01):

         I         SYM. A    A   T(IA) [Alpha-Alpha]

        10         1        12      0.05653949
        10         1        15     -0.05328692
 
         I         SYM. A    A   T(IA) [Beta-Beta]

        10         1         2      0.09033583

 Spin contamination <S**2-Sz**2-Sz>     0.00000000

 Memory could be reduced to 725.53 Mwords without degradation in triples
 

  Correlated core orbitals:             1.1       2.1       3.1       4.1       5.1       6.1       7.1       8.1       1.2       2.2
                                        3.2       1.3       2.3       3.3       1.4       2.4       1.5       2.5       3.5       1.6
                                        2.6       1.7       2.7
  Orbital energies:                 -1855.7118 -310.8198  -70.8409  -45.5627  -45.5646  -15.3215   -6.5183   -6.5200 -276.7722  -60.0449
                                      -11.6746 -276.7722  -60.0449  -11.6746  -45.5588   -6.5074 -276.7720  -60.0486  -11.6823  -45.5617
                                       -6.5156  -45.5617   -6.5156
 
  RCCSD core-core energy               -1.844366344070
  RCCSD core-valence energy            -0.729608861828
  RCCSD valence correlation energy     -0.604216934751
 

 RESULTS
 =======

  Reference energy                   -11267.3443867234    
  RCCSD singles energy                 -0.008542756041
  RCCSD pair energy                    -3.169649384608
  RCCSD correlation energy             -3.178192140649
  Triples (T) contribution             -0.052048470417
  Total correlation energy             -3.230240611066
 
  RHF-RCCSD energy                   -11270.5225788640    
  RHF-RCCSD[T] energy                -11270.5767078513    
  RHF-RCCSD-T energy                 -11270.5744293063    
 !RHF-RCCSD(T) energy                -11270.5746273344    

 Program statistics:

 Available memory in ccsd:              1999989172
 Min. memory needed in ccsd:             109844881
 Max. memory used in ccsd:               161889858
 Max. memory used in cckext:             125199984 (15 integral passes)
 Max. memory used in cckint:             151123356 ( 1 integral passes)



 **********************************************************************************************************************************
 DATASETS  * FILE   NREC   LENGTH (MB)   RECORD NAMES
              1      24      316.19       500      610      700      900      950      970     1000      129      960     1700   
                                          VAR    BASINP    GEOM    SYMINP    ZMAT    AOBASIS   BASIS     P2S    ABASIS    OPER   
                                         1101     1401     1411     1412     1650     1100     1400     1410     1200     1210   
                                          SR      EKINR    POTR     PVPR    MOLCAS      S      EKIN      POT      H0       H01  
                                         1080     1600     1800     1380   
                                         AOSYM     SMH     GRID     JKOP   

              2       9       18.43       200      700     1000      520     1800     3202     4202     5202     2102   
                                        OPTIONS   GEOM     BASIS   MCVARS    GRID      RKS      RHF     MCSCF     RHF  

 PROGRAMS   *        TOTAL  RCCSD(T)       RHF     MULTI       POP       RHF       RKS       INT
 CPU TIMES  *      6246.34   5862.66      0.45     32.75      0.00      9.38     12.26    328.52
 REAL TIME  *      6855.13 SEC
 DISK USED  *        72.16 GB      
 SF USED    *        14.69 GB      
 GA USED    *         0.09 MB       (max)       0.09 MB       (current)
 **********************************************************************************************************************************
 SETTING CCSD(1)        =    -11270.57462733  AU                              
 Output type csv         
                                                                                                                                                                                                                                                                

          SCF,CCSD
   -11267.34439,   -11270.57463
                                                  

 RCCSD(T)/USERDEF energy= -11270.574627334427

        RCCSD(T)        RHF-SCF         MULTI           RHF-SCF         RKS-SCF 
 -11270.57462733 -11267.34438672 -11267.34438672 -11267.34667785 -11271.14053640
 **********************************************************************************************************************************
 Molpro calculation terminated
 Variable memory released
