
 Primary working directories    : /global/cscratch1/sd/haihan
 Secondary working directories  : /global/cscratch1/sd/haihan
 Wavefunction directory         : /global/homes/h/haihan/Research/ECP/f_group_element_ecps/Nb/Molpro/molecules/NbO/UC/wfu/
 Main file repository           : /global/cscratch1/sd/haihan/

 SHA1      : 19cd028119e0e09f93f0674bd8af7968d9b3eff6
 NAME      : 2015.1.36
 ARCHNAME  : linux/x86_64
 FC        : /opt/cray/pe/craype/2.5.14/bin/ftn
 BLASLIB   : -L/opt/intel/compilers_and_libraries_2018.1.163/linux/mkl/lib/intel64 -Wl,-_start-group -lmkl_intel_ilp64 -lmkl_intel_thread -lmkl_core -Wl,-_end-group -liomp5
 id        : lbl

 Nodes     nprocs
 nid01265    11
 Number of processes for MPI-2 version of Molpro:   nprocs(total)=   12   nprocs(compute)=   11   nprocs(helper)=    1

 Using customized tuning parameters: mindgm=7; mindgv=16; mindgc=1; mindgr=1; noblas=0; minvec=7
 default implementation of scratch files=sf  

 ***,Calculation for all-electron YH molecule, SCF and CCSD(T)
 memory,1,g
 gthresh,twoint=1.0E-15
 gthresh,throvl=1.0E-15
 
 set,dkroll=1,dkho=10,dkhp=4
 basis={
 Including file /global/u2/h/haihan/Research/ECP/f_group_element_ecps/Nb/Molpro/molecules/NbO/UC/r_2.00/../generate/Nb-aug-cc-pwCVTZ.basis
 Including file /global/u2/h/haihan/Research/ECP/f_group_element_ecps/Nb/Molpro/molecules/NbO/UC/r_2.00/../generate/O-aug-cc-pwCVTZ.basis
 }
 
 Nb_ccsd=-3817.706564
 O_ccsd=-75.03694110
 
                                                                                 !These are the wf cards parameters
 ne = 49
 symm = 1
 ss= 3
 
                                                                                 !There are irrep cards paramters
 A1=12
 B1=6
 B2=6
 A2=2
 
 
 geometry={
     2
     NbH molecule
     Nb 0.0 0.0 0.0
     O 0.0 0.0 2.00
 }
 {rhf,nitord=20;
  maxit,200;
  wf,ne,symm,ss
  occ,A1,B1,B2,A2
  closed,A1,B1-1,B2-1,A2-1
  print,orbitals=2
 }
 scf=energy
 _CC_NORM_MAX=2.0
 {rccsd(t),shifts=0.5,shiftp=0.5,thrdis=1.0;diis,1,1,15,1;maxit,200;core,8,3,3,1}
 ccsd=energy
 bind=ccsd-Nb_ccsd-O_ccsd
 
 
 table,2.00,scf,ccsd,bind
 save
 type,csv
 

 Variables initialized (889), CPU time= 0.00 sec
 Commands  initialized (702), CPU time= 0.02 sec, 572 directives.
 Default parameters read. Elapsed time= 0.18 sec

 Checking input...
 Passed
1


                                         ***  PROGRAM SYSTEM MOLPRO  ***
                                       Copyright, TTI GmbH Stuttgart, 2015
                                    Version 2015.1 linked Dec 29 2018 15:55:43


 **********************************************************************************************************************************
 LABEL *   Calculation for all-electron YH molecule, SCF and CCSD(T)                     
  64 bit mpp version                                                                     DATE: 04-Oct-22          TIME: 20:09:40  
 **********************************************************************************************************************************

 SHA1:             19cd028119e0e09f93f0674bd8af7968d9b3eff6
 **********************************************************************************************************************************

 THRESHOLDS:

 ZERO    =  1.00D-12  ONEINT  =  1.00D-12  TWOINT  =  1.00D-15  PREFAC  =  1.00D-14  LOCALI  =  1.00D-09  EORDER  =  1.00D-04
 ENERGY  =  0.00D+00  ETEST   =  0.00D+00  EDENS   =  0.00D+00  THRDEDEF=  1.00D-06  GRADIENT=  1.00D-02  STEP    =  1.00D-03
 ORBITAL =  1.00D-05  CIVEC   =  1.00D-05  COEFF   =  1.00D-04  PRINTCI =  5.00D-02  PUNCHCI =  9.90D+01  OPTGRAD =  3.00D-04
 OPTENERG=  1.00D-06  OPTSTEP =  3.00D-04  THRGRAD =  1.00D-10  COMPRESS=  1.00D-11  VARMIN  =  1.00D-07  VARMAX  =  1.00D-03
 THRDOUB =  0.00D+00  THRDIV  =  1.00D-05  THRRED  =  1.00D-07  THRPSP  =  1.00D+00  THRDC   =  1.00D-10  THRCS   =  1.00D-10
 THRNRM  =  1.00D-08  THREQ   =  0.00D+00  THRDE   =  1.00D+00  THRREF  =  1.00D-05  SPARFAC =  1.00D+00  THRDLP  =  1.00D-07
 THRDIA  =  1.00D-10  THRDLS  =  1.00D-07  THRGPS  =  0.00D+00  THRKEX  =  0.00D+00  THRDIS  =  2.00D-01  THRVAR  =  1.00D-10
 THRLOC  =  1.00D-06  THRGAP  =  1.00D-06  THRLOCT = -1.00D+00  THRGAPT = -1.00D+00  THRORB  =  1.00D-06  THRMLTP =  0.00D+00
 THRCPQCI=  1.00D-10  KEXTA   =  0.00D+00  THRCOARS=  0.00D+00  SYMTOL  =  1.00D-06  GRADTOL =  1.00D-06  THROVL  =  1.00D-08
 THRORTH =  1.00D-08  GRID    =  1.00D-06  GRIDMAX =  1.00D-03  DTMAX   =  0.00D+00  THROCCDE=  1.00D-01  THROCCDE=  1.00D-01



 THRESHOLDS:

 ZERO    =  1.00D-12  ONEINT  =  1.00D-12  TWOINT  =  1.00D-15  PREFAC  =  1.00D-14  LOCALI  =  1.00D-09  EORDER  =  1.00D-04
 ENERGY  =  0.00D+00  ETEST   =  0.00D+00  EDENS   =  0.00D+00  THRDEDEF=  1.00D-06  GRADIENT=  1.00D-02  STEP    =  1.00D-03
 ORBITAL =  1.00D-05  CIVEC   =  1.00D-05  COEFF   =  1.00D-04  PRINTCI =  5.00D-02  PUNCHCI =  9.90D+01  OPTGRAD =  3.00D-04
 OPTENERG=  1.00D-06  OPTSTEP =  3.00D-04  THRGRAD =  1.00D-10  COMPRESS=  1.00D-11  VARMIN  =  1.00D-07  VARMAX  =  1.00D-03
 THRDOUB =  0.00D+00  THRDIV  =  1.00D-05  THRRED  =  1.00D-07  THRPSP  =  1.00D+00  THRDC   =  1.00D-10  THRCS   =  1.00D-10
 THRNRM  =  1.00D-08  THREQ   =  0.00D+00  THRDE   =  1.00D+00  THRREF  =  1.00D-05  SPARFAC =  1.00D+00  THRDLP  =  1.00D-07
 THRDIA  =  1.00D-10  THRDLS  =  1.00D-07  THRGPS  =  0.00D+00  THRKEX  =  0.00D+00  THRDIS  =  2.00D-01  THRVAR  =  1.00D-10
 THRLOC  =  1.00D-06  THRGAP  =  1.00D-06  THRLOCT = -1.00D+00  THRGAPT = -1.00D+00  THRORB  =  1.00D-06  THRMLTP =  0.00D+00
 THRCPQCI=  1.00D-10  KEXTA   =  0.00D+00  THRCOARS=  0.00D+00  SYMTOL  =  1.00D-06  GRADTOL =  1.00D-06  THROVL  =  1.00D-15
 THRORTH =  1.00D-08  GRID    =  1.00D-06  GRIDMAX =  1.00D-03  DTMAX   =  0.00D+00  THROCCDE=  1.00D-01  THROCCDE=  1.00D-01


 SETTING DKROLL         =         1.00000000                                  
 SETTING DKHO           =        10.00000000                                  
 SETTING DKHP           =         4.00000000                                  

 Variable memory set to 1000000000 words,  buffer space   230000 words

 SETTING BASIS          =    USERDEF
 SETTING NB_CCSD        =     -3817.70656400                                  
 SETTING O_CCSD         =       -75.03694110                                  
 SETTING NE             =        49.00000000                                  
 SETTING SYMM           =         1.00000000                                  
 SETTING SS             =         3.00000000                                  
 SETTING A1             =        12.00000000                                  
 SETTING B1             =         6.00000000                                  
 SETTING B2             =         6.00000000                                  
 SETTING A2             =         2.00000000                                  

Geometry recognized as XYZ



 Recomputing integrals since basis changed


 Using spherical harmonics



 PROGRAM * SEWARD (Integral evaluation for generally contracted gaussian basis sets)     Author: Roland Lindh, 1990

 Geometry written to block  1 of record 700


 Point group  C2v 



 ATOMIC COORDINATES

 NR  ATOM    CHARGE       X              Y              Z

   1  NB     41.00    0.000000000    0.000000000    0.000000000
   2  O       8.00    0.000000000    0.000000000    3.779452249

 Bond lengths in Bohr (Angstrom)

 1-2  3.779452249
     ( 2.000000000)

 NUCLEAR CHARGE:                   49
 NUMBER OF PRIMITIVE AOS:         604
 NUMBER OF SYMMETRY AOS:          463
 NUMBER OF CONTRACTIONS:          463   ( 188A1  + 109B1  + 109B2  +  57A2  )
 NUMBER OF CORE ORBITALS:          19   (  10A1  +   4B1  +   4B2  +   1A2  )
 NUMBER OF VALENCE ORBITALS:       10   (   5A1  +   2B1  +   2B2  +   1A2  )


 NUCLEAR REPULSION ENERGY   86.78506259

 One-electron integrals computed with SEWARD

 10nd-order Douglas-Kroll-Hess method activated. McWeeny DKH parametrization is used.

 Computing Douglas-Kroll / X2C integrals

 AO integral compression algorithm  1   Integral accuracy      1.0D-15

     4237.558 MB (compressed) written to integral file ( 35.8%)

     Node minimum: 252.445 MB, node maximum: 983.826 MB


 NUMBER OF SORTED TWO-ELECTRON INTEGRALS:  133772750.     BUFFER LENGTH:  32768
 NUMBER OF SEGMENTS:   5  SEGMENT LENGTH:   31987140      RECORD LENGTH: 524288

 Memory used in sort:      32.54 MW

 SORT1 READ  1479643020. AND WROTE    47810013. INTEGRALS IN    140 RECORDS. CPU TIME:    22.39 SEC, REAL TIME:    29.75 SEC
 SORT2 READ   521500540. AND WROTE  1471510799. INTEGRALS IN  12133 RECORDS. CPU TIME:     1.70 SEC, REAL TIME:     2.87 SEC

 Node minimum:   133705564.  Node maximum:   133852885. integrals

 OPERATOR DM      FOR CENTER  0  COORDINATES:    0.000000    0.000000    0.000000

 EXTRA SYMMETRY OF AOS IN SYMMETRY 1:   1 1 1 1 1 1 1 1 1 1   1 1 1 1 1 1 1 1 1 1   1 1 1 1 1 1 1 1 1 1   1 1 1 1 1 1 1 1 1 1
                                        1 1 1 1 1 1 1 1 1 1   1 1 1 1 1 1 1 1 1 1   1 1 1 1 1 1 2 1 2 1   2 1 2 1 2 1 2 1 2 1
                                        2 1 2 1 2 1 2 1 2 1   2 1 2 1 2 1 2 1 2 1   2 1 2 1 2 1 2 1 2 1   2 1 2 1 2 1 2 1 2 1
                                        2 1 2 1 3 2 1 3 2 1   3 2 1 3 2 1 3 2 2 3   1 2 3 1 2 3 1 4 3 2   1 4 3 2 1 1 1 1 1 1
                                        1 1 1 1 1 1 1 1 1 1   1 1 1 1 1 1 1 2 1 2   1 2 1 2 1 2 1 2
 EXTRA SYMMETRY OF AOS IN SYMMETRY 2:   1 1 1 1 1 1 1 1 1 1   1 1 1 1 1 1 1 1 1 1   1 1 1 1 1 1 1 1 1 1   1 1 1 1 1 1 1 1 1 1
                                        1 1 1 1 1 1 1 1 1 1   1 1 1 1 1 1 1 2 1 2   1 2 1 2 1 2 1 2 1 2   1 2 1 2 1 2 1 2 1 2
                                        3 1 2 3 1 2 3 3 2 1   3 2 1 1 1 1 1 1 1 1   1 1 1 1 1 1 2 1 2
 EXTRA SYMMETRY OF AOS IN SYMMETRY 3:   1 1 1 1 1 1 1 1 1 1   1 1 1 1 1 1 1 1 1 1   1 1 1 1 1 1 1 1 1 1   1 1 1 1 1 1 1 1 1 1
                                        1 1 1 1 1 1 1 1 1 1   1 1 1 1 1 1 1 2 1 2   1 2 1 2 1 2 1 2 1 2   1 2 1 2 1 2 1 2 1 2
                                        3 1 2 3 1 2 3 3 2 1   3 2 1 1 1 1 1 1 1 1   1 1 1 1 1 1 2 1 2
 EXTRA SYMMETRY OF AOS IN SYMMETRY 4:   1 1 1 1 1 1 1 1 1 1   1 1 1 1 1 1 1 1 1 1   1 1 1 1 1 1 1 1 1 1   2 1 2 1 2 1 2 1 2 2
                                        1 2 1 2 1 1 3 2 1 3   2 1 1 1 1 1 1

 Eigenvalues of metric

         1 0.322E-06 0.217E-05 0.525E-05 0.103E-04 0.123E-04 0.256E-04 0.294E-04 0.399E-04
         2 0.338E-06 0.217E-05 0.602E-05 0.126E-04 0.263E-04 0.399E-04 0.495E-04 0.357E-03
         3 0.338E-06 0.217E-05 0.602E-05 0.126E-04 0.263E-04 0.399E-04 0.495E-04 0.357E-03
         4 0.399E-04 0.663E-03 0.112E-02 0.208E-02 0.393E-02 0.741E-02 0.137E-01 0.245E-01


 **********************************************************************************************************************************
 DATASETS  * FILE   NREC   LENGTH (MB)   RECORD NAMES
              1      22       24.16       500      610      700      900      950      970     1000      129      960     1700   
                                          VAR    BASINP    GEOM    SYMINP    ZMAT    AOBASIS   BASIS     P2S    ABASIS    OPER   
                                         1101     1401     1411     1412     1650     1100     1400     1410     1200     1210   
                                          SR      EKINR    POTR     PVPR    MOLCAS      S      EKIN      POT      H0       H01  
                                         1080     1600   
                                         AOSYM     SMH  

 PROGRAMS   *        TOTAL       INT
 CPU TIMES  *       258.92    258.54
 REAL TIME  *       269.24 SEC
 DISK USED  *        10.57 GB      
 GA USED    *         0.00 MB       (max)       0.00 MB       (current)
 **********************************************************************************************************************************


 PROGRAM * RHF-SCF (OPEN SHELL)       Authors: W. Meyer, H.-J. Werner


 NUMBER OF ELECTRONS:      26+   23-    SPACE SYMMETRY=1    SPIN SYMMETRY: Quartet 
 CONVERGENCE THRESHOLDS:    1.00E-05 (Density)    1.00E-07 (Energy)
 MAX. NUMBER OF ITERATIONS:      200
 INTERPOLATION TYPE:            DIIS
 INTERPOLATION STEPS:              2 (START)      1 (STEP)
 LEVEL SHIFTS:                 -0.60 (CLOSED) -0.30 (OPEN) 

 Number of closed-shell orbitals:   23 (  12   5   5   1 )
 Number of open-shell orbitals:      3 (   0   1   1   1 )


 Orbital guess generated from atomic densities. Full valence occupancy:   15   6   6   2

 Molecular orbital dump at record        2100.2

 ITERATION    DDIFF          GRAD             ENERGY        2-EL.EN.            DIPOLE MOMENTS         DIIS   ORB.
    1      0.000D+00      0.000D+00     -3889.54227313   2989.465480    0.00000    0.00000   -6.83002    0    start
    2      0.000D+00      0.147D-01     -3890.25725958   3234.792524    0.00000    0.00000    2.48294    1    diag,B
    3      0.504D-01      0.267D-01     -3891.96557649   3169.729408    0.00000    0.00000   -2.77327    2    diag,B
    4      0.366D-02      0.641D-02     -3892.10467408   3148.073549    0.00000    0.00000   -3.30937    3    diag,B
    5      0.155D-02      0.227D-02     -3892.13156786   3141.301112    0.00000    0.00000   -3.60937    4    diag,B
    6      0.104D-02      0.793D-03     -3892.13824242   3137.261413    0.00000    0.00000   -3.64943    5    diag,B
    7      0.546D-03      0.328D-03     -3892.14065597   3135.803176    0.00000    0.00000   -3.62751    6    diag,B
    8      0.352D-03      0.210D-03     -3892.14187174   3135.269449    0.00000    0.00000   -3.56617    7    diag,B
    9      0.382D-03      0.106D-03     -3892.14225616   3135.055799    0.00000    0.00000   -3.52964    8    diag,B
   10      0.194D-03      0.577D-04     -3892.14237171   3134.811942    0.00000    0.00000   -3.51374    9    orth
   11      0.112D-03      0.289D-04     -3892.14239424   3134.736010    0.00000    0.00000   -3.50868    9    diag,B
   12      0.531D-04      0.164D-04     -3892.14240243   3134.750593    0.00000    0.00000   -3.50880    9    diag,B
   13      0.374D-04      0.975D-05     -3892.14240597   3134.744340    0.00000    0.00000   -3.51016    9    diag,B
   14      0.212D-04      0.484D-05     -3892.14240687   3134.745023    0.00000    0.00000   -3.51173    9    diag,B
   15      0.121D-04      0.218D-05     -3892.14240701   3134.747335    0.00000    0.00000   -3.51290    9    diag,B
   16      0.898D-05      0.949D-06     -3892.14240704   3134.747793    0.00000    0.00000   -3.51337    9    diag,B
   17      0.279D-05      0.422D-06     -3892.14240704   3134.747958    0.00000    0.00000   -3.51343    0    orth

 Final alpha occupancy:  12   6   6   2
 Final beta  occupancy:  12   5   5   1

 !RHF STATE 1.1 Energy              -3892.142407040067
 Nuclear energy                        86.78506259
 One-electron energy                -5546.30144885
 Two-electron energy                 1567.37397922
 Virial quotient                       -0.90896394
 !RHF STATE 1.1 Dipole moment           0.00000000     0.00000000    -3.51343250
 Dipole moment /Debye                   0.00000000     0.00000000    -8.92966978

 ELECTRON ORBITALS
 =================


   Orb  Occ    Energy  Couls-En    Coefficients

                                   1 1s      1 1s      1 1s      1 1s      1 1s      1 1s      1 1s      1 1s      1 1s      1 1s   
                                   1 1s      1 1s      1 1s      1 1s      1 1s      1 1s      1 1s      1 1s      1 1s      1 1s   
                                   1 1s      1 1s      1 1s      1 1s      1 1s      1 1s      1 1s      1 1s      1 1s      1 1s   
                                   1 1s      1 1s      1 2pz     1 2pz     1 2pz     1 2pz     1 2pz     1 2pz     1 2pz     1 2pz  
                                   1 2pz     1 2pz     1 2pz     1 2pz     1 2pz     1 2pz     1 2pz     1 2pz     1 2pz     1 2pz  
                                   1 2pz     1 2pz     1 2pz     1 2pz     1 2pz     1 2pz     1 2pz     1 2pz     1 2pz     1 2pz  
                                   1 2pz     1 2pz     1 2pz     1 2pz     1 2pz     1 3d0     1 3d2+    1 3d0     1 3d2+    1 3d0  
                                   1 3d2+    1 3d0     1 3d2+    1 3d0     1 3d2+    1 3d0     1 3d2+    1 3d0     1 3d2+    1 3d0  
                                   1 3d2+    1 3d0     1 3d2+    1 3d0     1 3d2+    1 3d0     1 3d2+    1 3d0     1 3d2+    1 3d0  
                                   1 3d2+    1 3d0     1 3d2+    1 3d0     1 3d2+    1 3d0     1 3d2+    1 3d0     1 3d2+    1 3d0  
                                   1 3d2+    1 3d0     1 3d2+    1 3d0     1 3d2+    1 3d0     1 3d2+    1 3d0     1 3d2+    1 3d0  
                                   1 3d2+    1 4f0     1 4f2+    1 4f0     1 4f2+    1 4f0     1 4f2+    1 4f0     1 4f2+    1 4f0  
                                   1 4f2+    1 4f0     1 4f2+    1 5g0     1 5g4+    1 5g2+    1 5g0     1 5g4+    1 5g2+    1 5g0  
                                   1 5g4+    1 5g2+    1 5g0     1 5g4+    1 5g2+    1 5g0     1 5g4+    1 5g2+    1 6h2+    1 6h4+ 
                                   1 6h0     1 6h2+    1 6h4+    1 6h0     1 6h2+    1 6h4+    1 6h0     1 7i6+    1 7i4+    1 7i2+ 
                                   1 7i0     1 7i6+    1 7i4+    1 7i2+    1 7i0     2 1s      2 1s      2 1s      2 1s      2 1s   
                                   2 1s      2 1s      2 1s      2 1s      2 1s      2 1s      2 1s      2 1s      2 2pz     2 2pz  
                                   2 2pz     2 2pz     2 2pz     2 2pz     2 2pz     2 2pz     2 3d0     2 3d2+    2 3d0     2 3d2+ 
                                   2 3d0     2 3d2+    2 3d0     2 3d2+    2 4f0     2 4f2+    2 4f0     2 4f2+ 

   1.1   2  -701.5268-1563.6542  0.000042  0.000115  0.000295  0.000468  0.000891  0.001786  0.003710  0.007904  0.017860  0.041501
                                 0.001175  0.099562  0.228266  0.385127  0.362543 -0.047561  0.073102 -0.011086  0.021834 -0.024381
                                 0.010914 -0.009619  0.011177 -0.006347  0.006961 -0.006134  0.001037 -0.000546  0.000193 -0.000077
                                 0.000031 -0.000009 -0.000000 -0.000000 -0.000000  0.000000 -0.000000  0.000000 -0.000001  0.000001
                                -0.000001  0.000007 -0.000009  0.000004 -0.000007  0.000021 -0.000045  0.000039 -0.000029  0.000056
                                -0.000365  0.000827 -0.001443  0.001483 -0.000811  0.000961 -0.001251  0.000710 -0.000216  0.000087
                                -0.000169  0.000000  0.000009 -0.000005  0.000002 -0.000000 -0.000000  0.000000  0.000000 -0.000001
                                -0.000000  0.000001  0.000000 -0.000001 -0.000000  0.000000  0.000000 -0.000001 -0.000000  0.000001
                                 0.000000 -0.000002 -0.000000  0.000002  0.000000 -0.000004 -0.000000  0.000006  0.000000 -0.000010
                                -0.000000  0.000017  0.000000 -0.000033 -0.000000  0.000062  0.000000 -0.000087 -0.000000  0.000038
                                 0.000000 -0.000080 -0.000000  0.000034  0.000000 -0.000005 -0.000000  0.000001  0.000000 -0.000000
                                -0.000000  0.000003 -0.000000 -0.000006  0.000000  0.000007 -0.000000 -0.000020 -0.000000 -0.000009
                                 0.000000  0.000007 -0.000000 -0.000002 -0.000000 -0.000000  0.000009  0.000000  0.000000 -0.000015
                                -0.000000 -0.000000 -0.000001  0.000000  0.000000  0.000003 -0.000000 -0.000000  0.000000 -0.000000
                                -0.000001 -0.000000  0.000000  0.000002 -0.000000 -0.000000 -0.000005  0.000000  0.000000  0.000000
                                 0.000000 -0.000000  0.000000 -0.000000 -0.000001 -0.000000  0.000000 -0.000000  0.000000 -0.000000
                                 0.000003  0.000008  0.000002  0.000004  0.000031  0.000200 -0.000008 -0.000006  0.000000  0.000002
                                -0.000001 -0.000012 -0.000031 -0.000079 -0.000002 -0.000000  0.000002 -0.000000 -0.000000  0.000000
                                 0.000011 -0.000000 -0.000000  0.000000  0.000003  0.000000  0.000005 -0.000000

   2.1   2  -100.9142 -316.9797 -0.000014 -0.000038 -0.000098 -0.000156 -0.000294 -0.000598 -0.001228 -0.002688 -0.005960 -0.015076
                                 0.001570 -0.038170 -0.087731 -0.193965 -0.178875 -0.068013  0.232167  0.724310  0.273547 -0.031050
                                -0.001133  0.019791 -0.026372  0.016288 -0.019575  0.017414 -0.002989  0.001626 -0.000572  0.000229
                                -0.000091  0.000026 -0.000000 -0.000000 -0.000000 -0.000000 -0.000000 -0.000000  0.000001 -0.000002
                                -0.000001 -0.000014  0.000011 -0.000021 -0.000028 -0.000103  0.000066 -0.000171 -0.000065 -0.000156
                                 0.000787 -0.001872  0.003439 -0.003654  0.002083 -0.002620  0.003493 -0.002029  0.000630 -0.000235
                                 0.000507  0.000002 -0.000028  0.000015 -0.000005  0.000000 -0.000000 -0.000000  0.000000  0.000000
                                -0.000000 -0.000001  0.000000  0.000001 -0.000000 -0.000000  0.000000  0.000001 -0.000000  0.000000
                                 0.000000  0.000010 -0.000000 -0.000003 -0.000000  0.000008 -0.000000 -0.000013 -0.000000  0.000024
                                -0.000000 -0.000044  0.000000  0.000090 -0.000000 -0.000183  0.000000  0.000270 -0.000000 -0.000107
                                -0.000000  0.000237  0.000000 -0.000101 -0.000000  0.000013  0.000000 -0.000002 -0.000000  0.000001
                                 0.000000 -0.000006  0.000000  0.000019 -0.000000 -0.000021  0.000000  0.000068  0.000000  0.000028
                                 0.000000 -0.000020 -0.000000  0.000008  0.000003  0.000000 -0.000031 -0.000002 -0.000000  0.000050
                                 0.000001  0.000000  0.000004 -0.000000  0.000000 -0.000009  0.000000  0.000000 -0.000000 -0.000000
                                 0.000003  0.000000  0.000000 -0.000007  0.000000 -0.000000  0.000016  0.000000  0.000000 -0.000000
                                -0.000001  0.000000 -0.000000  0.000000  0.000004  0.000000 -0.000000  0.000000 -0.000000  0.000001
                                -0.000007 -0.000022 -0.000001 -0.000014 -0.000116 -0.000608  0.000020  0.000014 -0.000000 -0.000003
                                -0.000001  0.000041  0.000104  0.000239  0.000003  0.000000 -0.000006  0.000000 -0.000003 -0.000000
                                -0.000033 -0.000000  0.000001 -0.000000 -0.000006 -0.000000 -0.000014  0.000000

   3.1   2   -89.9091 -301.9111 -0.000000 -0.000000 -0.000000 -0.000000 -0.000000 -0.000000 -0.000000 -0.000001 -0.000002 -0.000005
                                 0.000001 -0.000014 -0.000031 -0.000070 -0.000059 -0.000032  0.000097  0.000264  0.000049  0.000025
                                -0.000028  0.000046 -0.000073  0.000059 -0.000093  0.000082 -0.000024  0.000103 -0.000004 -0.000003
                                 0.000001 -0.000000  0.000015  0.000056  0.000199  0.000055  0.000667  0.000582  0.000980  0.002015
                                 0.007616  0.018570  0.000712  0.050136  0.118911  0.237817 -0.002918  0.348767  0.291739  0.103388
                                 0.013349 -0.006087  0.011451 -0.009857  0.004262 -0.002949  0.002926 -0.001277  0.000268 -0.000116
                                 0.000107 -0.000003 -0.000001  0.000000 -0.000000 -0.000000  0.000000 -0.000000 -0.000000 -0.000000
                                 0.000000 -0.000000 -0.000000 -0.000000  0.000000 -0.000001 -0.000000 -0.000002 -0.000000 -0.000003
                                -0.000000 -0.000008 -0.000000 -0.000015 -0.000000 -0.000006 -0.000000 -0.000001 -0.000000  0.000006
                                -0.000000 -0.000003 -0.000000  0.000010 -0.000000 -0.000018  0.000000  0.000020 -0.000000 -0.000005
                                -0.000000  0.000033  0.000000 -0.000010 -0.000000  0.000001  0.000000 -0.000000 -0.000000  0.000000
                                 0.000000 -0.000003  0.000000  0.000014 -0.000000 -0.000002  0.000000  0.000007  0.000000  0.000008
                                 0.000000 -0.000002  0.000000  0.000001 -0.000000  0.000000 -0.000003  0.000000 -0.000000  0.000004
                                -0.000000 -0.000000  0.000002 -0.000000  0.000000 -0.000001 -0.000000  0.000000  0.000000  0.000000
                                 0.000001 -0.000000 -0.000000 -0.000001  0.000000  0.000000  0.000001 -0.000000 -0.000000 -0.000000
                                -0.000000 -0.000000 -0.000000 -0.000000  0.000000  0.000000  0.000000  0.000000  0.000000  0.000000
                                 0.000000 -0.000000 -0.000001 -0.000000 -0.000014 -0.000093  0.000001  0.000000  0.000000  0.000000
                                 0.000001  0.000004  0.000008  0.000029  0.000000  0.000000 -0.000000 -0.000000 -0.000000  0.000000
                                -0.000000 -0.000000 -0.000000  0.000000 -0.000001  0.000000 -0.000002 -0.000000

   4.1   2   -20.4373  -63.2363  0.000000  0.000000  0.000000  0.000000  0.000000  0.000000  0.000000  0.000000  0.000000  0.000000
                                 0.000000  0.000000  0.000000  0.000000  0.000004 -0.000005  0.000002 -0.000012  0.000041 -0.000075
                                 0.000084 -0.000054 -0.000167  0.000537 -0.005677  0.011807 -0.014987  0.003142 -0.000469  0.000240
                                -0.000092  0.000025 -0.000000 -0.000000  0.000000 -0.000000  0.000000 -0.000000  0.000001 -0.000001
                                 0.000001 -0.000007  0.000009 -0.000005  0.000006 -0.000026  0.000056 -0.000053  0.000044 -0.000101
                                 0.000723 -0.001635  0.002679 -0.002445  0.000915 -0.000219  0.000241 -0.000263  0.001641 -0.011299
                                 0.003286  0.000070  0.000030 -0.000018  0.000006 -0.000000  0.000000  0.000000 -0.000000 -0.000003
                                 0.000000  0.000005 -0.000000 -0.000003  0.000000  0.000003  0.000000 -0.000005  0.000000  0.000008
                                 0.000000 -0.000020  0.000000  0.000030  0.000000 -0.000071  0.000000  0.000125  0.000000 -0.000253
                                 0.000000  0.000503  0.000000 -0.000779  0.000000  0.001297  0.000000 -0.004371 -0.000000 -0.001933
                                 0.000000  0.002036 -0.000000 -0.000584  0.000000  0.000256 -0.000000 -0.000068  0.000000  0.000022
                                -0.000000  0.000053 -0.000000 -0.000090  0.000000  0.000049  0.000000 -0.001835 -0.000000  0.000273
                                 0.000000  0.000099 -0.000000 -0.000073 -0.000000 -0.000000  0.000162  0.000000  0.000000 -0.000333
                                -0.000000  0.000000 -0.000057 -0.000000 -0.000000  0.000078 -0.000000  0.000000  0.000000 -0.000000
                                 0.000001 -0.000000  0.000000 -0.000027  0.000000  0.000000  0.000183  0.000000  0.000000  0.000000
                                -0.000028  0.000000  0.000000  0.000000  0.000106  0.000743  0.004238  0.020742  0.079677  0.231875
                                 0.425494  0.336378  0.042649 -0.012867  0.013144 -0.000527  0.008350  0.012716 -0.000055 -0.000101
                                -0.000429  0.000817 -0.007788 -0.000335 -0.000390 -0.000013 -0.000071 -0.000000  0.000184  0.000000
                                 0.002768 -0.000000  0.000036  0.000000  0.000111 -0.000000 -0.000411 -0.000000

   5.1   2   -18.0844 -107.7653  0.000006  0.000016  0.000041  0.000065  0.000124  0.000251  0.000516  0.001131  0.002506  0.006391
                                -0.000735  0.016288  0.037651  0.086229  0.081875  0.037189 -0.139051 -0.606872 -0.320427  0.339189
                                 0.763096  0.537868 -0.311928  0.163349 -0.161857  0.142950 -0.024377  0.012683 -0.004611  0.001863
                                -0.000745  0.000211  0.000000  0.000000  0.000000  0.000000  0.000001 -0.000001  0.000004 -0.000002
                                 0.000010 -0.000013  0.000036  0.000021  0.000119  0.000099  0.000219  0.000100  0.000415 -0.000661
                                 0.002775 -0.008588  0.015656 -0.018295  0.010790 -0.015211  0.020981 -0.012659  0.004226 -0.001839
                                 0.003694 -0.000002 -0.000217  0.000115 -0.000037 -0.000000  0.000000 -0.000000 -0.000000  0.000001
                                 0.000000 -0.000002 -0.000000  0.000001  0.000000 -0.000004  0.000000 -0.000002  0.000000 -0.000020
                                 0.000000 -0.000033  0.000000 -0.000080  0.000000 -0.000037  0.000000 -0.000026  0.000000  0.000117
                                 0.000000 -0.000336  0.000000  0.000592  0.000000 -0.001185 -0.000000  0.001797  0.000000 -0.000853
                                 0.000000  0.001764 -0.000000 -0.000780  0.000000  0.000103 -0.000000 -0.000018  0.000000  0.000005
                                -0.000000  0.000191 -0.000000 -0.000119  0.000000 -0.000084 -0.000000  0.000378 -0.000000  0.000194
                                -0.000000 -0.000160  0.000000  0.000042  0.000011 -0.000000 -0.000213 -0.000057  0.000000  0.000306
                                 0.000026 -0.000000  0.000015 -0.000007  0.000000 -0.000072  0.000002 -0.000000  0.000000 -0.000001
                                 0.000012 -0.000000  0.000001 -0.000031  0.000000  0.000000  0.000090  0.000000 -0.000000  0.000000
                                -0.000005  0.000000 -0.000000  0.000000  0.000018  0.000000 -0.000000  0.000000 -0.000000  0.000002
                                -0.000028 -0.000103 -0.000017 -0.000084 -0.000604 -0.004476  0.000109  0.000060 -0.000003 -0.000025
                                 0.000009  0.000242  0.000680  0.001825  0.000020  0.000001 -0.000031 -0.000000 -0.000014  0.000000
                                -0.000262 -0.000000  0.000004  0.000000 -0.000049  0.000000 -0.000085  0.000000

   6.1   2   -14.3794 -100.9634  0.000000  0.000000  0.000000  0.000000  0.000000  0.000001  0.000001  0.000002  0.000005  0.000014
                                -0.000002  0.000035  0.000079  0.000183  0.000161  0.000097 -0.000314 -0.001315 -0.000815  0.001153
                                 0.001596  0.000776 -0.000730  0.000451 -0.001149  0.001130 -0.000333  0.000929 -0.000045 -0.000033
                                 0.000016 -0.000005 -0.000006 -0.000024 -0.000086 -0.000024 -0.000288 -0.000256 -0.000417 -0.000888
                                -0.003325 -0.008291 -0.000216 -0.022627 -0.055111 -0.115873  0.002918 -0.180450 -0.122306  0.158212
                                 0.461154 -0.007097  0.443948 -0.044982  0.138173 -0.016162  0.025430 -0.010825  0.002753 -0.001137
                                 0.000982 -0.000048 -0.000002  0.000001 -0.000000 -0.000000  0.000000  0.000000 -0.000000 -0.000002
                                 0.000000  0.000001 -0.000000 -0.000003  0.000000 -0.000008 -0.000000 -0.000026 -0.000000 -0.000071
                                -0.000000 -0.000177 -0.000000 -0.000321 -0.000000 -0.000448 -0.000000 -0.000353 -0.000000 -0.000054
                                -0.000000 -0.000126 -0.000000  0.000019 -0.000000 -0.000092 -0.000000  0.000174  0.000000 -0.000088
                                -0.000000  0.000309  0.000000 -0.000106 -0.000000  0.000010  0.000000 -0.000001 -0.000000  0.000000
                                 0.000000  0.000207  0.000000 -0.000250 -0.000000 -0.000046 -0.000000  0.000006 -0.000000  0.000063
                                 0.000000 -0.000026 -0.000000  0.000017  0.000001  0.000000 -0.000043  0.000001  0.000000  0.000047
                                 0.000000 -0.000000  0.000007  0.000000  0.000000 -0.000007 -0.000000 -0.000000 -0.000000  0.000036
                                 0.000047  0.000000 -0.000029 -0.000038  0.000000  0.000005  0.000017  0.000000 -0.000000  0.000000
                                -0.000002  0.000000  0.000001  0.000000  0.000005 -0.000000 -0.000000 -0.000000 -0.000000 -0.000001
                                 0.000002  0.000005 -0.000007  0.000007 -0.000072 -0.000853 -0.000001 -0.000006 -0.000000 -0.000003
                                -0.000005  0.000003  0.000089  0.000297 -0.000000 -0.000000  0.000003  0.000000 -0.000004  0.000000
                                -0.000034 -0.000000 -0.000000 -0.000000 -0.000010 -0.000000  0.000004  0.000000

   7.1   2    -8.3091  -90.3173  0.000000  0.000000  0.000000  0.000000  0.000000  0.000000  0.000000  0.000000  0.000000  0.000000
                                 0.000000  0.000000  0.000001  0.000002  0.000008 -0.000009  0.000010  0.000017  0.000038 -0.000273
                                -0.000113  0.001102 -0.000468 -0.000238  0.000378 -0.000799  0.000376  0.000005  0.000049 -0.000010
                                 0.000003 -0.000001 -0.000000 -0.000000 -0.000000 -0.000000 -0.000000 -0.000000 -0.000000 -0.000001
                                -0.000003 -0.000009  0.000001 -0.000022 -0.000051 -0.000113  0.000011 -0.000178 -0.000123  0.000076
                                 0.000545 -0.000394  0.001272 -0.000739  0.001049 -0.000777  0.000725 -0.000457 -0.000251  0.000262
                                 0.000036  0.000042 -0.000012  0.000005 -0.000001  0.000101  0.000000  0.000016  0.000000  0.001145
                                 0.000000 -0.000756 -0.000000  0.002170  0.000000  0.006186  0.000000  0.020203  0.000000  0.055350
                                 0.000000  0.131396  0.000000  0.237810  0.000000  0.316570  0.000000  0.293030  0.000000  0.154947
                                 0.000000  0.039085  0.000000  0.004212  0.000000  0.000082 -0.000000  0.000187  0.000000  0.000081
                                -0.000000  0.000011  0.000000  0.000027 -0.000000 -0.000004 -0.000000  0.000001  0.000000 -0.000000
                                -0.000000 -0.000461 -0.000000  0.000197  0.000000 -0.000267 -0.000000  0.000116  0.000000  0.000029
                                -0.000000  0.000006 -0.000000 -0.000141 -0.000041 -0.000000 -0.000042  0.000122  0.000000  0.000045
                                -0.000050 -0.000000  0.000024  0.000014  0.000000  0.000002 -0.000004  0.000000  0.000000  0.000001
                                 0.000066 -0.000000 -0.000001 -0.000062  0.000000 -0.000001  0.000038  0.000000  0.000027  0.000000
                                 0.000046 -0.000000 -0.000011 -0.000000 -0.000012 -0.000000 -0.000000 -0.000000 -0.000001 -0.000001
                                -0.000016 -0.000041 -0.000006 -0.000036 -0.000191 -0.000054  0.000035  0.000025 -0.000001 -0.000008
                                -0.000009  0.000031  0.000010 -0.000043  0.000004  0.000000 -0.000008 -0.000000  0.000026 -0.000000
                                 0.000049 -0.000000  0.000002  0.000000  0.000000 -0.000000 -0.000047  0.000000

   8.1   2    -8.3054  -90.2718  0.000000  0.000000  0.000000  0.000000 -0.000000  0.000000 -0.000000  0.000000  0.000000 -0.000000
                                 0.000000 -0.000000  0.000000  0.000000  0.000000 -0.000000 -0.000000 -0.000000  0.000000  0.000000
                                 0.000000  0.000000 -0.000000 -0.000000  0.000000 -0.000000  0.000000 -0.000000  0.000000 -0.000000
                                 0.000000 -0.000000 -0.000000  0.000000 -0.000000  0.000000 -0.000000  0.000000 -0.000000  0.000000
                                -0.000000  0.000000 -0.000000  0.000000 -0.000000  0.000000 -0.000000  0.000000 -0.000000  0.000000
                                -0.000000  0.000000 -0.000000  0.000000 -0.000000  0.000000 -0.000000  0.000000 -0.000000  0.000000
                                -0.000000 -0.000000  0.000000 -0.000000  0.000000 -0.000000  0.000101 -0.000000  0.000016  0.000000
                                 0.001144 -0.000000 -0.000755  0.000000  0.002168 -0.000000  0.006182 -0.000000  0.020190 -0.000000
                                 0.055314 -0.000000  0.131309 -0.000000  0.237658 -0.000000  0.316419 -0.000000  0.292975 -0.000000
                                 0.155144 -0.000000  0.039644  0.000000  0.004226 -0.000000  0.000277  0.000000  0.000013 -0.000000
                                -0.000005  0.000000  0.000003 -0.000000 -0.000003  0.000000  0.000001 -0.000000 -0.000000 -0.000000
                                 0.000000  0.000000 -0.000696  0.000000  0.000425  0.000000 -0.000179 -0.000000  0.000037 -0.000000
                                -0.000016  0.000000  0.000007  0.000000  0.000000 -0.000147 -0.000000 -0.000000  0.000159 -0.000000
                                 0.000000 -0.000080 -0.000000 -0.000000  0.000024 -0.000000 -0.000000 -0.000006  0.000043 -0.000000
                                -0.000000 -0.000044  0.000000  0.000000  0.000006  0.000000 -0.000000  0.000064 -0.000000  0.000029
                                 0.000000 -0.000025  0.000000 -0.000012 -0.000000 -0.000000 -0.000000 -0.000000 -0.000000 -0.000000
                                -0.000000 -0.000000 -0.000000  0.000000  0.000000  0.000000  0.000000  0.000000 -0.000000 -0.000000
                                 0.000000 -0.000000  0.000000 -0.000000  0.000000  0.000000  0.000000 -0.000001  0.000000  0.000000
                                -0.000000 -0.000012 -0.000000  0.000000 -0.000000  0.000000 -0.000000  0.000002

   9.1   2    -2.7526  -42.6367 -0.000002 -0.000006 -0.000016 -0.000025 -0.000048 -0.000097 -0.000199 -0.000435 -0.000968 -0.002446
                                 0.000233 -0.006228 -0.014621 -0.033346 -0.034074 -0.012028  0.054828  0.270298  0.113555 -0.099898
                                -0.656765 -0.567903  0.549913  0.556004  1.042793 -0.628656  0.114841 -0.056363  0.020325 -0.008329
                                 0.003364 -0.000956 -0.000000 -0.000000 -0.000000 -0.000000 -0.000002  0.000000 -0.000007  0.000001
                                -0.000024 -0.000000 -0.000058 -0.000094 -0.000340 -0.000472 -0.000350 -0.000655 -0.000963  0.001902
                                -0.003147  0.016142 -0.029081  0.037414 -0.025155  0.033892 -0.056522  0.027213 -0.020875  0.006722
                                -0.016802 -0.000286  0.001108 -0.000581  0.000186  0.000000  0.000000  0.000000  0.000000  0.000002
                                 0.000000 -0.000000  0.000000  0.000005  0.000000  0.000021  0.000000  0.000060  0.000000  0.000177
                                 0.000000  0.000410  0.000000  0.000757  0.000000  0.000928  0.000000  0.000781  0.000000 -0.000399
                                 0.000000 -0.001015  0.000000 -0.007043 -0.000000  0.000958  0.000000 -0.005976 -0.000000  0.002994
                                 0.000000 -0.007682 -0.000000  0.003274  0.000000 -0.000401 -0.000000  0.000068 -0.000000 -0.000020
                                 0.000000  0.000002 -0.000000 -0.000544  0.000000 -0.001133 -0.000000 -0.000932 -0.000000 -0.000947
                                -0.000000  0.000705 -0.000000 -0.000375 -0.000270 -0.000000  0.000192 -0.000713 -0.000000 -0.001167
                                -0.000483  0.000000 -0.000194 -0.000093  0.000000  0.000328  0.000016 -0.000000 -0.000000 -0.000002
                                -0.000057  0.000000  0.000013  0.000219 -0.000000  0.000063  0.000028  0.000000 -0.000003  0.000000
                                -0.000003 -0.000000 -0.000002 -0.000000  0.000079 -0.000002 -0.000010 -0.000047 -0.000186 -0.000587
                                -0.001218 -0.001385  0.001040  0.004951  0.005119  0.020931 -0.000168 -0.000197 -0.000088 -0.000643
                                -0.001924 -0.004492 -0.004535 -0.008201 -0.000048 -0.000016  0.000360  0.000000  0.001344  0.000000
                                 0.001352  0.000000  0.000013 -0.000000 -0.000140 -0.000000 -0.000035 -0.000000

  10.1   2    -1.6732  -37.5899 -0.000000 -0.000000 -0.000000 -0.000000 -0.000001 -0.000002 -0.000004 -0.000008 -0.000018 -0.000047
                                 0.000005 -0.000119 -0.000277 -0.000635 -0.000627 -0.000260  0.001071  0.005162  0.002489 -0.002522
                                -0.012942 -0.013153  0.015854  0.015962  0.013491 -0.008337 -0.022586 -0.007496 -0.001255  0.000526
                                -0.000176  0.000046  0.000002  0.000008  0.000030  0.000008  0.000101  0.000090  0.000147  0.000313
                                 0.001172  0.002925  0.000077  0.008008  0.019602  0.041546 -0.001125  0.065483  0.041831 -0.077782
                                -0.213849 -0.022297 -0.203850 -0.021776  0.107582  0.459671 -0.017127  0.434485  0.166466  0.012686
                                -0.002279 -0.001614  0.000780 -0.000354  0.000109  0.000001 -0.000000  0.000000  0.000000  0.000005
                                -0.000000 -0.000000  0.000000  0.000011 -0.000000  0.000045 -0.000000  0.000132 -0.000000  0.000389
                                -0.000000  0.000897 -0.000000  0.001686 -0.000000  0.002054 -0.000000  0.001919 -0.000000 -0.001468
                                -0.000000 -0.003741 -0.000000 -0.011467 -0.000000 -0.004419  0.000000 -0.006576 -0.000000 -0.003461
                                 0.000000  0.000461 -0.000000 -0.001360  0.000000  0.000581 -0.000000 -0.000144  0.000000  0.000046
                                 0.000000 -0.001041 -0.000000 -0.000669  0.000000 -0.007529 -0.000000 -0.006484  0.000000 -0.000512
                                -0.000000 -0.000090  0.000000  0.000104  0.000029  0.000000  0.000692  0.000004 -0.000000  0.000273
                                 0.000067 -0.000000 -0.000115  0.000022 -0.000000  0.000085 -0.000002 -0.000000  0.000000  0.000101
                                 0.000057 -0.000000  0.000186  0.000547 -0.000000 -0.000118  0.000357 -0.000000 -0.000009 -0.000000
                                -0.000060  0.000000 -0.000000 -0.000000  0.000286 -0.000016 -0.000090 -0.000444 -0.001739 -0.005523
                                -0.011324 -0.012422  0.015054  0.047731  0.038669  0.011743 -0.003197 -0.002372 -0.000563 -0.004051
                                -0.013632 -0.023616 -0.019081 -0.002131 -0.000491 -0.000114  0.001335  0.000000  0.004792 -0.000000
                                 0.002866  0.000000  0.000072  0.000000 -0.000772  0.000000 -0.000673  0.000000

  11.1   2    -1.0599  -19.5876  0.000000  0.000000  0.000001  0.000002  0.000003  0.000006  0.000013  0.000028  0.000063  0.000160
                                -0.000014  0.000406  0.000957  0.002179  0.002265  0.000741 -0.003572 -0.017984 -0.006979  0.005492
                                 0.047753  0.037879 -0.033716 -0.065626 -0.102106  0.083366 -0.020715  0.028602 -0.010893  0.004376
                                -0.001629  0.000448 -0.000000 -0.000001 -0.000005 -0.000001 -0.000018 -0.000016 -0.000024 -0.000056
                                -0.000202 -0.000524  0.000005 -0.001403 -0.003398 -0.007287  0.000317 -0.011521 -0.007163  0.013469
                                 0.039718 -0.000965  0.046201 -0.007367 -0.014656 -0.091201 -0.001350 -0.077220 -0.023418 -0.021879
                                 0.018933 -0.002795  0.001107 -0.000469  0.000140 -0.000002 -0.000000 -0.000001  0.000000 -0.000019
                                -0.000000  0.000005  0.000000 -0.000043 -0.000000 -0.000158 -0.000000 -0.000472 -0.000000 -0.001366
                                -0.000000 -0.003163 -0.000000 -0.005885 -0.000000 -0.007228 -0.000000 -0.006499 -0.000000  0.002737
                                -0.000000  0.012461 -0.000000  0.024543  0.000000  0.029715 -0.000000  0.007989  0.000000  0.001754
                                -0.000000  0.010637  0.000000 -0.004949 -0.000000  0.001734 -0.000000 -0.000423  0.000000  0.000135
                                -0.000000  0.002395  0.000000 -0.001588 -0.000000  0.010738 -0.000000  0.006617  0.000000  0.001919
                                 0.000000  0.000225  0.000000  0.000742 -0.000022  0.000000  0.001209  0.000034 -0.000000  0.001866
                                 0.000048  0.000000  0.001166 -0.000003 -0.000000 -0.000000 -0.000003  0.000000 -0.000000 -0.000022
                                 0.000009  0.000000 -0.000044  0.000249  0.000000  0.000048  0.001183 -0.000000  0.000008  0.000000
                                 0.000083 -0.000000  0.000044 -0.000000  0.000082 -0.000160 -0.000914 -0.004535 -0.017781 -0.056518
                                -0.117349 -0.131795  0.169737  0.523511  0.406465  0.036836 -0.031921 -0.023114 -0.000418 -0.002978
                                -0.009073 -0.018459 -0.049566 -0.003253 -0.000104 -0.000072  0.000386 -0.000000  0.006912 -0.000000
                                 0.015632 -0.000000  0.000056 -0.000000 -0.000342 -0.000000 -0.003547  0.000000

  12.1   2    -0.3570  -19.2566 -0.000000 -0.000001 -0.000002 -0.000003 -0.000006 -0.000012 -0.000024 -0.000052 -0.000116 -0.000291
                                 0.000025 -0.000740 -0.001749 -0.003975 -0.004175 -0.001301  0.006497  0.033077  0.012247 -0.008969
                                -0.090905 -0.070345  0.061407  0.142586  0.172415 -0.035598 -0.146512 -0.136162  0.020586 -0.015089
                                 0.006668 -0.001937  0.000000  0.000001  0.000004  0.000001  0.000012  0.000010  0.000020  0.000035
                                 0.000145  0.000332  0.000039  0.000957  0.002401  0.004966  0.000048  0.007793  0.005210 -0.010117
                                -0.023672 -0.010535 -0.011977 -0.016775  0.023611  0.062821  0.013802  0.055375  0.024495 -0.049365
                                -0.026703  0.000761 -0.001890  0.001189 -0.000396  0.000009  0.000000  0.000003  0.000000  0.000098
                                -0.000000 -0.000054  0.000000  0.000195 -0.000000  0.000606 -0.000000  0.001925 -0.000000  0.005396
                                -0.000000  0.012787 -0.000000  0.023273 -0.000000  0.029353 -0.000000  0.024612 -0.000000 -0.010840
                                -0.000000 -0.057381  0.000000 -0.105009  0.000000 -0.110310  0.000000 -0.107249  0.000000 -0.053304
                                 0.000000 -0.020158 -0.000000  0.002283  0.000000 -0.003624  0.000000  0.001306 -0.000000 -0.000447
                                 0.000000 -0.003812 -0.000000  0.001818  0.000000 -0.017643 -0.000000 -0.029233  0.000000 -0.001525
                                 0.000000 -0.001837 -0.000000 -0.001553  0.000028  0.000000  0.001050 -0.000036 -0.000000 -0.007529
                                -0.000314  0.000000 -0.003276 -0.000125 -0.000000  0.000509  0.000017 -0.000000 -0.000000  0.000020
                                -0.000256  0.000000  0.000035  0.000004  0.000000 -0.000063 -0.001953  0.000000 -0.000036  0.000000
                                -0.000177 -0.000000 -0.000165 -0.000000 -0.000044 -0.000023 -0.000132 -0.000662 -0.002572 -0.008352
                                -0.015840 -0.014315  0.034552  0.084457  0.135576  0.086692 -0.011244 -0.006522  0.009609  0.070429
                                 0.242715  0.381061  0.296550  0.053008  0.008380  0.001922 -0.004152 -0.000000 -0.016698 -0.000000
                                -0.017878  0.000000 -0.000325 -0.000000  0.001676 -0.000000  0.005906  0.000000

  13.1   0    -0.0592  -12.5014 -0.000000 -0.000001 -0.000003 -0.000005 -0.000009 -0.000018 -0.000038 -0.000082 -0.000183 -0.000461
                                 0.000042 -0.001173 -0.002764 -0.006294 -0.006542 -0.002147  0.010339  0.052168  0.020381 -0.016142
                                -0.141016 -0.121178  0.123068  0.183923  0.396550 -0.155815 -0.111167 -0.533810 -0.366411 -0.149711
                                -0.005455 -0.000598 -0.000000 -0.000001 -0.000004 -0.000001 -0.000012 -0.000010 -0.000019 -0.000035
                                -0.000139 -0.000329 -0.000025 -0.000928 -0.002304 -0.004816  0.000027 -0.007575 -0.004960  0.009598
                                 0.023832  0.007793  0.014839  0.014185 -0.023882 -0.053301 -0.016748 -0.061206 -0.023558  0.038858
                                 0.146232  0.178469  0.035588  0.002951 -0.000620 -0.000004  0.000000 -0.000000 -0.000000 -0.000047
                                 0.000000  0.000035 -0.000000 -0.000085  0.000000 -0.000225 -0.000000 -0.000760  0.000000 -0.002063
                                 0.000000 -0.005003  0.000000 -0.008912  0.000000 -0.011577  0.000000 -0.009103 -0.000000  0.003221
                                 0.000000  0.024666 -0.000000  0.034737  0.000000  0.051827 -0.000000  0.031841  0.000000  0.049943
                                -0.000000 -0.005547  0.000000  0.010353 -0.000000 -0.000791  0.000000 -0.001972 -0.000000  0.000537
                                 0.000000 -0.000328 -0.000000 -0.000154  0.000000 -0.001610 -0.000000 -0.019785  0.000000 -0.028675
                                -0.000000 -0.005061 -0.000000  0.000291  0.000806  0.000000  0.001411  0.001010 -0.000000  0.001205
                                 0.003148  0.000000  0.001549  0.002259 -0.000000  0.000011 -0.000018  0.000000 -0.000000 -0.000009
                                -0.000006  0.000000 -0.000042  0.000126 -0.000000 -0.000462 -0.000592 -0.000000 -0.000001  0.000000
                                 0.000019  0.000000  0.000014 -0.000000 -0.000082 -0.000007 -0.000038 -0.000186 -0.000732 -0.002318
                                -0.005003 -0.006119  0.006671  0.024671  0.023765  0.103859 -0.000643 -0.000652 -0.001102 -0.008115
                                -0.027809 -0.044906 -0.050109 -0.043595 -0.000918 -0.000218  0.000603 -0.000000  0.003312 -0.000000
                                 0.007068  0.000000  0.000047 -0.000000 -0.000306  0.000000 -0.000938  0.000000

  14.1   0    -0.0011   -2.7498 -0.000000 -0.000000 -0.000001 -0.000001 -0.000002 -0.000003 -0.000007 -0.000015 -0.000035 -0.000086
                                 0.000006 -0.000219 -0.000523 -0.001179 -0.001300 -0.000305  0.001874  0.009965  0.002779 -0.001065
                                -0.028739 -0.015431  0.006352  0.055395 -0.020643  0.097540 -0.105381  0.017849 -0.275324  0.183389
                                -0.510731  1.088207 -0.000000 -0.000000 -0.000000 -0.000000 -0.000001 -0.000000 -0.000002 -0.000000
                                -0.000008 -0.000005 -0.000015 -0.000039 -0.000124 -0.000199 -0.000087 -0.000293 -0.000321  0.000665
                                -0.000360  0.004338 -0.007373  0.010134 -0.007494  0.007650 -0.016559  0.006822 -0.002704 -0.011671
                                 0.036727  0.036382 -0.088628 -0.048582 -0.585221 -0.000001 -0.000000 -0.000000  0.000000 -0.000014
                                -0.000000  0.000010  0.000000 -0.000026 -0.000000 -0.000071 -0.000000 -0.000236 -0.000000 -0.000647
                                -0.000000 -0.001559 -0.000000 -0.002793 -0.000000 -0.003601 -0.000000 -0.002869 -0.000000  0.001063
                                 0.000000  0.007690  0.000000  0.011296  0.000000  0.015946  0.000000  0.008023 -0.000000  0.010078
                                 0.000000  0.030675 -0.000000 -0.018233  0.000000  0.049406 -0.000000  0.025655  0.000000  0.167613
                                -0.000000 -0.000161 -0.000000 -0.000055 -0.000000 -0.000770 -0.000000 -0.006344 -0.000000 -0.001129
                                -0.000000 -0.010523 -0.000000 -0.000155  0.000193  0.000000  0.000611  0.000232 -0.000000 -0.001569
                                 0.000635  0.000000  0.000445  0.000475 -0.000000 -0.002165  0.000100 -0.000000 -0.000000 -0.000002
                                -0.000010  0.000000 -0.000004  0.000045 -0.000000 -0.000077 -0.000257 -0.000000 -0.000000 -0.000000
                                 0.000002  0.000000  0.000000 -0.000000 -0.000020 -0.000001 -0.000007 -0.000036 -0.000142 -0.000455
                                -0.000937 -0.001037  0.001553  0.004306  0.008357 -0.000176 -0.000322 -0.000216  0.000004  0.000025
                                 0.000155 -0.000058 -0.008457  0.011540  0.000014  0.000001  0.000136  0.000000  0.000913  0.000000
                                 0.004043  0.000000  0.000011  0.000000 -0.000063 -0.000000 -0.000307  0.000000

                                   1 2px     1 2px     1 2px     1 2px     1 2px     1 2px     1 2px     1 2px     1 2px     1 2px  
                                   1 2px     1 2px     1 2px     1 2px     1 2px     1 2px     1 2px     1 2px     1 2px     1 2px  
                                   1 2px     1 2px     1 2px     1 2px     1 2px     1 2px     1 2px     1 2px     1 2px     1 2px  
                                   1 2px     1 2px     1 2px     1 3d1+    1 3d1+    1 3d1+    1 3d1+    1 3d1+    1 3d1+    1 3d1+ 
                                   1 3d1+    1 3d1+    1 3d1+    1 3d1+    1 3d1+    1 3d1+    1 3d1+    1 3d1+    1 3d1+    1 3d1+ 
                                   1 3d1+    1 3d1+    1 3d1+    1 3d1+    1 3d1+    1 3d1+    1 4f1+    1 4f3+    1 4f1+    1 4f3+ 
                                   1 4f1+    1 4f3+    1 4f1+    1 4f3+    1 4f1+    1 4f3+    1 4f1+    1 4f3+    1 5g1+    1 5g3+ 
                                   1 5g1+    1 5g3+    1 5g1+    1 5g3+    1 5g1+    1 5g3+    1 5g1+    1 5g3+    1 6h1+    1 6h3+ 
                                   1 6h5+    1 6h1+    1 6h3+    1 6h5+    1 6h1+    1 6h3+    1 6h5+    1 7i5+    1 7i3+    1 7i1+ 
                                   1 7i5+    1 7i3+    1 7i1+    2 2px     2 2px     2 2px     2 2px     2 2px     2 2px     2 2px  
                                   2 2px     2 3d1+    2 3d1+    2 3d1+    2 3d1+    2 4f1+    2 4f3+    2 4f1+    2 4f3+ 

   1.2   2   -89.9084 -301.9083  0.000015  0.000056  0.000199  0.000055  0.000667  0.000582  0.000980  0.002015  0.007616  0.018571
                                 0.000711  0.050137  0.118911  0.237821 -0.002923  0.348772  0.291726  0.103403  0.013279 -0.005903
                                 0.011103 -0.009488  0.004047 -0.002687  0.002579 -0.001078  0.000209 -0.000078  0.000028 -0.000005
                                 0.000003 -0.000002  0.000001 -0.000000 -0.000000 -0.000000 -0.000000 -0.000000 -0.000002 -0.000005
                                -0.000012 -0.000019 -0.000006 -0.000000 -0.000002 -0.000003 -0.000001  0.000001  0.000001  0.000003
                                -0.000001  0.000003  0.000002 -0.000000  0.000000 -0.000000  0.000003 -0.000004 -0.000009  0.000014
                                 0.000001  0.000000 -0.000001  0.000002  0.000002 -0.000001  0.000001  0.000000  0.000001 -0.000000
                                -0.000001  0.000000  0.000001 -0.000000  0.000000 -0.000000  0.000001 -0.000000  0.000000 -0.000000
                                 0.000001 -0.000000  0.000000 -0.000000  0.000000 -0.000000  0.000000 -0.000000 -0.000000 -0.000000
                                -0.000000 -0.000000  0.000000 -0.000000 -0.000000 -0.000000 -0.000001 -0.000000 -0.000006  0.000000
                                 0.000000 -0.000000  0.000000  0.000001  0.000000  0.000000  0.000000 -0.000000 -0.000000

   2.2   2   -14.3796 -100.9399 -0.000006 -0.000024 -0.000086 -0.000024 -0.000288 -0.000256 -0.000417 -0.000888 -0.003326 -0.008288
                                -0.000219 -0.022624 -0.055111 -0.115859  0.002896 -0.180426 -0.122315  0.158263  0.460821 -0.006203
                                 0.442014 -0.043127  0.137098 -0.014140  0.022915 -0.009259  0.002103 -0.000733  0.000299 -0.000041
                                 0.000032 -0.000017  0.000005 -0.000000 -0.000000 -0.000000  0.000000 -0.000001 -0.000004 -0.000011
                                -0.000033 -0.000071 -0.000157 -0.000226 -0.000435 -0.000258  0.000017 -0.000004 -0.000018  0.000026
                                 0.000017  0.000024  0.000033 -0.000008  0.000002 -0.000001 -0.000058  0.000183 -0.000033 -0.000129
                                 0.000019 -0.000053  0.000031 -0.000027  0.000023  0.000006  0.000011 -0.000002  0.000006  0.000002
                                -0.000047  0.000002  0.000038  0.000001  0.000003  0.000000  0.000010 -0.000000  0.000037 -0.000009
                                 0.000057 -0.000033  0.000007 -0.000046  0.000014 -0.000001  0.000008 -0.000000  0.000000 -0.000001
                                 0.000001 -0.000000  0.000004 -0.000000 -0.000001  0.000003 -0.000002 -0.000043 -0.000084  0.000001
                                 0.000000 -0.000001  0.000011  0.000031  0.000000  0.000001 -0.000000 -0.000011  0.000001

   3.2   2    -8.3159  -90.3494 -0.000000 -0.000000 -0.000000 -0.000000 -0.000000 -0.000000 -0.000001 -0.000001 -0.000004 -0.000010
                                -0.000000 -0.000028 -0.000068 -0.000145  0.000004 -0.000229 -0.000146  0.000262  0.000751 -0.000015
                                 0.000515 -0.000292 -0.000072 -0.000036 -0.000024  0.000006 -0.000066  0.000029 -0.000003  0.000002
                                -0.000001  0.000000 -0.000000  0.000101  0.000016  0.001146 -0.000757  0.002172  0.006193  0.020226
                                 0.055415  0.131556  0.238076  0.316829  0.292898  0.154293  0.038956  0.004175  0.000320  0.000072
                                 0.000070 -0.000002  0.000016 -0.000004  0.000001 -0.000000 -0.000509 -0.000002  0.000236  0.000003
                                -0.000255  0.000005  0.000053  0.000003  0.000004 -0.000000  0.000004  0.000000 -0.000147  0.000025
                                 0.000029 -0.000075 -0.000010  0.000031  0.000022 -0.000009 -0.000003  0.000002  0.000060 -0.000001
                                -0.000001 -0.000056  0.000001  0.000001  0.000026  0.000001  0.000000  0.000037 -0.000009  0.000040
                                -0.000014  0.000003 -0.000012 -0.000000 -0.000001 -0.000012 -0.000014 -0.000095 -0.000030 -0.000002
                                -0.000000 -0.000001  0.000009  0.000043  0.000000 -0.000001  0.000000 -0.000004 -0.000001

   4.2   2    -1.6804  -37.8648  0.000002  0.000009  0.000031  0.000009  0.000103  0.000091  0.000151  0.000316  0.001192  0.002959
                                 0.000095  0.008128  0.019927  0.042165 -0.001039  0.066435  0.042591 -0.079230 -0.215364 -0.027527
                                -0.197163 -0.033601  0.116835  0.451123  0.004508  0.435906  0.167246  0.017649  0.001565  0.000298
                                -0.000072  0.000027 -0.000008  0.000000  0.000000  0.000001  0.000001  0.000003  0.000015  0.000041
                                 0.000126  0.000276  0.000548  0.000625  0.000726 -0.000065 -0.000430 -0.002288 -0.005468 -0.004543
                                -0.001060 -0.000055  0.000408 -0.000123  0.000031 -0.000010 -0.000102 -0.001073  0.000644 -0.000206
                                -0.001649 -0.005500  0.000203 -0.004189  0.000475  0.000400  0.000058 -0.000229 -0.000202  0.000071
                                -0.000728  0.000043 -0.000114  0.000250 -0.000154  0.000088  0.000127 -0.000010  0.000080 -0.000027
                                 0.000165  0.000205 -0.000041  0.000312 -0.000012  0.000042 -0.000160 -0.000008  0.000001 -0.000038
                                -0.000002  0.000005  0.000138  0.000104  0.000767  0.002442  0.004209  0.002613 -0.000688  0.000062
                                 0.000019 -0.000303 -0.001228 -0.000491 -0.000020  0.000263 -0.000006  0.000302  0.000018

   5.2   2    -0.3409  -17.4072 -0.000000 -0.000001 -0.000002 -0.000001 -0.000007 -0.000007 -0.000009 -0.000024 -0.000083 -0.000225
                                 0.000011 -0.000588 -0.001410 -0.003060  0.000184 -0.004852 -0.002933  0.005578  0.017681 -0.002719
                                 0.024697 -0.009319 -0.002555 -0.053027  0.024556 -0.062904 -0.004219  0.019754  0.063077  0.006189
                                 0.000016  0.000331 -0.000134 -0.000006 -0.000001 -0.000071  0.000047 -0.000135 -0.000385 -0.001263
                                -0.003481 -0.008352 -0.015021 -0.019257 -0.015542  0.006019  0.040115  0.063093  0.071556  0.075909
                                 0.038302  0.025742 -0.019391  0.004756 -0.000837  0.000250  0.002827  0.000000 -0.001692  0.000033
                                 0.010971 -0.000078  0.024723 -0.000258  0.004933 -0.000297 -0.004005 -0.000012  0.000722 -0.000080
                                 0.000495 -0.000051  0.008278 -0.000078 -0.000667  0.000018 -0.001733  0.000015  0.000026  0.000005
                                -0.000015  0.000305  0.000003 -0.000050  0.003846  0.000054  0.000133  0.000028 -0.000009 -0.000031
                                 0.000160 -0.000026  0.001032  0.009767  0.071620  0.247758  0.389222  0.335547  0.098893  0.008595
                                 0.001957 -0.003437 -0.013202 -0.016477 -0.000248  0.001378 -0.000002  0.002991  0.000010

   6.2   +    -0.3101  -24.3431 -0.000000 -0.000001 -0.000004 -0.000001 -0.000013 -0.000014 -0.000014 -0.000048 -0.000148 -0.000437
                                 0.000054 -0.001091 -0.002546 -0.005683  0.000564 -0.009069 -0.005152  0.009787  0.036389 -0.014811
                                 0.065351 -0.039951  0.009192 -0.123678  0.072318 -0.136424  0.018591  0.086991  0.194671  0.050767
                                -0.011546  0.005548 -0.001747  0.000024  0.000004  0.000269 -0.000179  0.000510  0.001454  0.004771
                                 0.013146  0.031558  0.056744  0.072610  0.058027 -0.025532 -0.158448 -0.256395 -0.285160 -0.230205
                                -0.149500 -0.047172 -0.018027  0.003204 -0.000650  0.000199  0.004659 -0.000402 -0.002397  0.000449
                                 0.020660 -0.001909  0.052665 -0.005281  0.027145 -0.002189 -0.001721  0.000056  0.002215  0.001306
                                 0.002088  0.000985  0.011717  0.002565  0.007338  0.001579 -0.000288 -0.000034 -0.000016 -0.000008
                                -0.000001  0.000034 -0.000050 -0.000074  0.001172 -0.000251 -0.000170 -0.000011  0.000004  0.000059
                                 0.000005 -0.000000 -0.000005  0.002930  0.021457  0.075861  0.116788  0.115088  0.047885  0.002800
                                 0.000600  0.000953  0.004542 -0.001529  0.000065 -0.000799  0.000005 -0.000835 -0.000011

   7.2   0     0.0024   -2.3158 -0.000000 -0.000000 -0.000000 -0.000000 -0.000000 -0.000002  0.000005 -0.000009 -0.000000 -0.000071
                                 0.000067 -0.000085 -0.000078 -0.000455  0.000433 -0.000818  0.000094 -0.000380  0.008758 -0.018541
                                 0.039625 -0.044052  0.028015 -0.050302  0.072353 -0.054554  0.026877 -0.032398  0.039005 -0.038264
                                 0.208122 -0.322137  1.082272 -0.000001  0.000000 -0.000017  0.000016 -0.000027 -0.000056 -0.000210
                                -0.000542 -0.001367 -0.002348 -0.003191 -0.002220  0.000654  0.007752  0.009112  0.016445  0.001716
                                 0.019779 -0.031110  0.043911 -0.093157  0.038801 -0.406929 -0.000221 -0.000033  0.000099  0.000027
                                -0.000865 -0.000159 -0.002832 -0.000488 -0.005803 -0.000311  0.006195  0.000030 -0.000102 -0.000048
                                -0.000049 -0.000045 -0.000771 -0.000042 -0.000809  0.000010  0.001168 -0.000011 -0.000004  0.000000
                                 0.000001  0.000005  0.000004 -0.000007 -0.000251  0.000014 -0.000009  0.000001 -0.000000  0.000002
                                 0.000003 -0.000000 -0.000025 -0.000299 -0.002206 -0.007569 -0.011969 -0.010095 -0.006442 -0.000245
                                -0.000059 -0.000037 -0.000334 -0.000348 -0.000005  0.000009 -0.000001  0.000145 -0.000000

   8.2   0     0.0095   -2.3275 -0.000000 -0.000000 -0.000000  0.000000 -0.000001  0.000003 -0.000012  0.000009 -0.000024  0.000067
                                -0.000120 -0.000012 -0.000261 -0.000040 -0.000743  0.000114 -0.001014  0.002294 -0.011028  0.033271
                                -0.065730  0.078269 -0.052142  0.077357 -0.125836  0.083201 -0.053973  0.053957 -0.025443  0.261124
                                -0.442536  1.496832 -1.311947 -0.000001  0.000000 -0.000022  0.000021 -0.000036 -0.000074 -0.000278
                                -0.000713 -0.001804 -0.003088 -0.004218 -0.002902  0.000818  0.010298  0.011955  0.021124  0.003676
                                 0.035825 -0.028648  0.141926 -0.182508  0.132453 -0.750523 -0.000303 -0.000045  0.000201  0.000037
                                -0.001265 -0.000218 -0.000515 -0.000673  0.013794 -0.000430  0.039072 -0.000006 -0.000050 -0.000062
                                -0.000627 -0.000059  0.000784 -0.000052  0.003487  0.000017  0.018244 -0.000013  0.000038  0.000000
                                 0.000001 -0.000138  0.000005 -0.000009  0.000487  0.000019 -0.000012  0.000001 -0.000000 -0.000013
                                 0.000004 -0.000000  0.000052 -0.000371 -0.002747 -0.009291 -0.014537 -0.018895 -0.121818 -0.000275
                                -0.000071  0.000016 -0.001078  0.009010 -0.000015  0.000199 -0.000001 -0.001043  0.000000

                                   1 2py     1 2py     1 2py     1 2py     1 2py     1 2py     1 2py     1 2py     1 2py     1 2py  
                                   1 2py     1 2py     1 2py     1 2py     1 2py     1 2py     1 2py     1 2py     1 2py     1 2py  
                                   1 2py     1 2py     1 2py     1 2py     1 2py     1 2py     1 2py     1 2py     1 2py     1 2py  
                                   1 2py     1 2py     1 2py     1 3d1-    1 3d1-    1 3d1-    1 3d1-    1 3d1-    1 3d1-    1 3d1- 
                                   1 3d1-    1 3d1-    1 3d1-    1 3d1-    1 3d1-    1 3d1-    1 3d1-    1 3d1-    1 3d1-    1 3d1- 
                                   1 3d1-    1 3d1-    1 3d1-    1 3d1-    1 3d1-    1 3d1-    1 4f1-    1 4f3-    1 4f1-    1 4f3- 
                                   1 4f1-    1 4f3-    1 4f1-    1 4f3-    1 4f1-    1 4f3-    1 4f1-    1 4f3-    1 5g1-    1 5g3- 
                                   1 5g1-    1 5g3-    1 5g1-    1 5g3-    1 5g1-    1 5g3-    1 5g1-    1 5g3-    1 6h1-    1 6h3- 
                                   1 6h5-    1 6h1-    1 6h3-    1 6h5-    1 6h1-    1 6h3-    1 6h5-    1 7i5-    1 7i3-    1 7i1- 
                                   1 7i5-    1 7i3-    1 7i1-    2 2py     2 2py     2 2py     2 2py     2 2py     2 2py     2 2py  
                                   2 2py     2 3d1-    2 3d1-    2 3d1-    2 3d1-    2 4f1-    2 4f3-    2 4f1-    2 4f3- 

   1.3   2   -89.9084 -301.9083  0.000015  0.000056  0.000199  0.000055  0.000667  0.000582  0.000980  0.002015  0.007616  0.018571
                                 0.000711  0.050137  0.118911  0.237821 -0.002923  0.348772  0.291726  0.103403  0.013279 -0.005903
                                 0.011103 -0.009488  0.004047 -0.002687  0.002579 -0.001078  0.000209 -0.000078  0.000028 -0.000005
                                 0.000003 -0.000002  0.000001 -0.000000 -0.000000 -0.000000 -0.000000 -0.000000 -0.000002 -0.000005
                                -0.000012 -0.000019 -0.000006 -0.000000 -0.000002 -0.000003 -0.000001  0.000001  0.000001  0.000003
                                -0.000001  0.000003  0.000002 -0.000000  0.000000 -0.000000  0.000003  0.000004 -0.000009 -0.000014
                                 0.000001 -0.000000 -0.000001 -0.000002  0.000002  0.000001  0.000001 -0.000000  0.000001  0.000000
                                -0.000001 -0.000000  0.000001  0.000000  0.000000  0.000000  0.000001  0.000000  0.000000  0.000000
                                 0.000001 -0.000000 -0.000000 -0.000000  0.000000  0.000000  0.000000 -0.000000  0.000000 -0.000000
                                -0.000000  0.000000  0.000000 -0.000000 -0.000000 -0.000000 -0.000001 -0.000000 -0.000006  0.000000
                                 0.000000 -0.000000  0.000000  0.000001  0.000000  0.000000 -0.000000 -0.000000  0.000000

   2.3   2   -14.3796 -100.9399 -0.000006 -0.000024 -0.000086 -0.000024 -0.000288 -0.000256 -0.000417 -0.000888 -0.003326 -0.008288
                                -0.000219 -0.022624 -0.055111 -0.115859  0.002896 -0.180426 -0.122315  0.158263  0.460821 -0.006203
                                 0.442014 -0.043127  0.137098 -0.014140  0.022915 -0.009259  0.002103 -0.000733  0.000299 -0.000041
                                 0.000032 -0.000017  0.000005 -0.000000 -0.000000 -0.000000  0.000000 -0.000001 -0.000004 -0.000011
                                -0.000033 -0.000071 -0.000157 -0.000226 -0.000435 -0.000258  0.000017 -0.000004 -0.000018  0.000026
                                 0.000017  0.000024  0.000033 -0.000008  0.000002 -0.000001 -0.000058 -0.000183 -0.000033  0.000129
                                 0.000019  0.000053  0.000031  0.000027  0.000023 -0.000006  0.000011  0.000002  0.000006 -0.000002
                                -0.000047 -0.000002  0.000038 -0.000001  0.000003 -0.000000  0.000010  0.000000  0.000037  0.000009
                                 0.000057 -0.000033 -0.000007 -0.000046  0.000014  0.000001  0.000008 -0.000000 -0.000000 -0.000001
                                 0.000001  0.000000  0.000004 -0.000000 -0.000001  0.000003 -0.000002 -0.000043 -0.000084  0.000001
                                 0.000000 -0.000001  0.000011  0.000031  0.000000  0.000001  0.000000 -0.000011 -0.000001

   3.3   2    -8.3159  -90.3494 -0.000000 -0.000000 -0.000000 -0.000000 -0.000000 -0.000000 -0.000001 -0.000001 -0.000004 -0.000010
                                -0.000000 -0.000028 -0.000068 -0.000145  0.000004 -0.000229 -0.000146  0.000262  0.000751 -0.000015
                                 0.000515 -0.000292 -0.000072 -0.000036 -0.000024  0.000006 -0.000066  0.000029 -0.000003  0.000002
                                -0.000001  0.000000 -0.000000  0.000101  0.000016  0.001146 -0.000757  0.002172  0.006193  0.020226
                                 0.055415  0.131556  0.238076  0.316829  0.292898  0.154293  0.038956  0.004175  0.000320  0.000072
                                 0.000070 -0.000002  0.000016 -0.000004  0.000001 -0.000000 -0.000509  0.000002  0.000236 -0.000003
                                -0.000255 -0.000005  0.000053 -0.000003  0.000004  0.000000  0.000004 -0.000000 -0.000147 -0.000025
                                 0.000029  0.000075 -0.000010 -0.000031  0.000022  0.000009 -0.000003 -0.000002  0.000060  0.000001
                                -0.000001 -0.000056 -0.000001  0.000001  0.000026 -0.000001  0.000000  0.000037  0.000009  0.000040
                                -0.000014 -0.000003 -0.000012 -0.000000 -0.000001 -0.000012 -0.000014 -0.000095 -0.000030 -0.000002
                                -0.000000 -0.000001  0.000009  0.000043  0.000000 -0.000001 -0.000000 -0.000004  0.000001

   4.3   2    -1.6804  -37.8648  0.000002  0.000009  0.000031  0.000009  0.000103  0.000091  0.000151  0.000316  0.001192  0.002959
                                 0.000095  0.008128  0.019927  0.042165 -0.001039  0.066435  0.042591 -0.079230 -0.215364 -0.027527
                                -0.197163 -0.033601  0.116835  0.451123  0.004508  0.435906  0.167246  0.017649  0.001565  0.000298
                                -0.000072  0.000027 -0.000008  0.000000  0.000000  0.000001  0.000001  0.000003  0.000015  0.000041
                                 0.000126  0.000276  0.000548  0.000625  0.000726 -0.000065 -0.000430 -0.002288 -0.005468 -0.004543
                                -0.001060 -0.000055  0.000408 -0.000123  0.000031 -0.000010 -0.000102  0.001073  0.000644  0.000206
                                -0.001649  0.005500  0.000203  0.004189  0.000475 -0.000400  0.000058  0.000229 -0.000202 -0.000071
                                -0.000728 -0.000043 -0.000114 -0.000250 -0.000154 -0.000088  0.000127  0.000010  0.000080  0.000027
                                 0.000165  0.000205  0.000041  0.000312 -0.000012 -0.000042 -0.000160 -0.000008 -0.000001 -0.000038
                                -0.000002 -0.000005  0.000138  0.000104  0.000767  0.002442  0.004209  0.002613 -0.000688  0.000062
                                 0.000019 -0.000303 -0.001228 -0.000491 -0.000020  0.000263  0.000006  0.000302 -0.000018

   5.3   2    -0.3409  -17.4072 -0.000000 -0.000001 -0.000002 -0.000001 -0.000007 -0.000007 -0.000009 -0.000024 -0.000083 -0.000225
                                 0.000011 -0.000588 -0.001410 -0.003060  0.000184 -0.004852 -0.002933  0.005578  0.017681 -0.002719
                                 0.024697 -0.009319 -0.002555 -0.053027  0.024556 -0.062904 -0.004219  0.019754  0.063077  0.006189
                                 0.000016  0.000331 -0.000134 -0.000006 -0.000001 -0.000071  0.000047 -0.000135 -0.000385 -0.001263
                                -0.003481 -0.008352 -0.015021 -0.019257 -0.015542  0.006019  0.040115  0.063093  0.071556  0.075909
                                 0.038302  0.025742 -0.019391  0.004756 -0.000837  0.000250  0.002827 -0.000000 -0.001692 -0.000033
                                 0.010971  0.000078  0.024723  0.000258  0.004933  0.000297 -0.004005  0.000012  0.000722  0.000080
                                 0.000495  0.000051  0.008278  0.000078 -0.000667 -0.000018 -0.001733 -0.000015  0.000026 -0.000005
                                -0.000015  0.000305 -0.000003 -0.000050  0.003846 -0.000054  0.000133  0.000028  0.000009 -0.000031
                                 0.000160  0.000026  0.001032  0.009767  0.071620  0.247758  0.389222  0.335547  0.098893  0.008595
                                 0.001957 -0.003437 -0.013202 -0.016477 -0.000248  0.001378  0.000002  0.002991 -0.000010

   6.3   +    -0.3101  -24.3431 -0.000000 -0.000001 -0.000004 -0.000001 -0.000013 -0.000014 -0.000014 -0.000048 -0.000148 -0.000437
                                 0.000054 -0.001091 -0.002546 -0.005683  0.000564 -0.009069 -0.005152  0.009787  0.036389 -0.014811
                                 0.065351 -0.039951  0.009192 -0.123678  0.072318 -0.136424  0.018591  0.086991  0.194671  0.050767
                                -0.011546  0.005548 -0.001747  0.000024  0.000004  0.000269 -0.000179  0.000510  0.001454  0.004771
                                 0.013146  0.031558  0.056744  0.072610  0.058027 -0.025532 -0.158448 -0.256395 -0.285160 -0.230205
                                -0.149500 -0.047172 -0.018027  0.003204 -0.000650  0.000199  0.004659  0.000402 -0.002397 -0.000449
                                 0.020660  0.001909  0.052665  0.005281  0.027145  0.002189 -0.001721 -0.000056  0.002215 -0.001306
                                 0.002088 -0.000985  0.011717 -0.002565  0.007338 -0.001579 -0.000288  0.000034 -0.000016  0.000008
                                -0.000001  0.000034  0.000050 -0.000074  0.001172  0.000251 -0.000170 -0.000011 -0.000004  0.000059
                                 0.000005  0.000000 -0.000005  0.002930  0.021457  0.075861  0.116788  0.115088  0.047885  0.002800
                                 0.000600  0.000953  0.004542 -0.001529  0.000065 -0.000799 -0.000005 -0.000835  0.000011

   7.3   0     0.0024   -2.3158 -0.000000 -0.000000 -0.000000 -0.000000 -0.000000 -0.000002  0.000005 -0.000009 -0.000000 -0.000071
                                 0.000067 -0.000085 -0.000078 -0.000455  0.000433 -0.000818  0.000094 -0.000380  0.008758 -0.018541
                                 0.039625 -0.044052  0.028015 -0.050302  0.072353 -0.054554  0.026877 -0.032398  0.039005 -0.038264
                                 0.208122 -0.322137  1.082272 -0.000001  0.000000 -0.000017  0.000016 -0.000027 -0.000056 -0.000210
                                -0.000542 -0.001367 -0.002348 -0.003191 -0.002220  0.000654  0.007752  0.009112  0.016445  0.001716
                                 0.019779 -0.031110  0.043911 -0.093157  0.038801 -0.406929 -0.000221  0.000033  0.000099 -0.000027
                                -0.000865  0.000159 -0.002832  0.000488 -0.005803  0.000311  0.006195 -0.000030 -0.000102  0.000048
                                -0.000049  0.000045 -0.000771  0.000042 -0.000809 -0.000010  0.001168  0.000011 -0.000004 -0.000000
                                 0.000001  0.000005 -0.000004 -0.000007 -0.000251 -0.000014 -0.000009  0.000001  0.000000  0.000002
                                 0.000003  0.000000 -0.000025 -0.000299 -0.002206 -0.007569 -0.011969 -0.010095 -0.006442 -0.000245
                                -0.000059 -0.000037 -0.000334 -0.000348 -0.000005  0.000009  0.000001  0.000145  0.000000

   8.3   0     0.0095   -2.3275 -0.000000 -0.000000 -0.000000  0.000000 -0.000001  0.000003 -0.000012  0.000009 -0.000024  0.000067
                                -0.000120 -0.000012 -0.000261 -0.000040 -0.000743  0.000114 -0.001014  0.002294 -0.011028  0.033271
                                -0.065730  0.078269 -0.052142  0.077357 -0.125836  0.083201 -0.053973  0.053957 -0.025443  0.261124
                                -0.442536  1.496832 -1.311947 -0.000001  0.000000 -0.000022  0.000021 -0.000036 -0.000074 -0.000278
                                -0.000713 -0.001804 -0.003088 -0.004218 -0.002902  0.000818  0.010298  0.011955  0.021124  0.003676
                                 0.035825 -0.028648  0.141926 -0.182508  0.132453 -0.750523 -0.000303  0.000045  0.000201 -0.000037
                                -0.001265  0.000218 -0.000515  0.000673  0.013794  0.000430  0.039072  0.000006 -0.000050  0.000062
                                -0.000627  0.000059  0.000784  0.000052  0.003487 -0.000017  0.018244  0.000013  0.000038 -0.000000
                                 0.000001 -0.000138 -0.000005 -0.000009  0.000487 -0.000019 -0.000012  0.000001  0.000000 -0.000013
                                 0.000004  0.000000  0.000052 -0.000371 -0.002747 -0.009291 -0.014537 -0.018895 -0.121818 -0.000275
                                -0.000071  0.000016 -0.001078  0.009010 -0.000015  0.000199  0.000001 -0.001043 -0.000000

                                   1 3d2-    1 3d2-    1 3d2-    1 3d2-    1 3d2-    1 3d2-    1 3d2-    1 3d2-    1 3d2-    1 3d2- 
                                   1 3d2-    1 3d2-    1 3d2-    1 3d2-    1 3d2-    1 3d2-    1 3d2-    1 3d2-    1 3d2-    1 3d2- 
                                   1 3d2-    1 3d2-    1 3d2-    1 4f2-    1 4f2-    1 4f2-    1 4f2-    1 4f2-    1 4f2-    1 5g2- 
                                   1 5g4-    1 5g2-    1 5g4-    1 5g2-    1 5g4-    1 5g2-    1 5g4-    1 5g2-    1 5g4-    1 6h4- 
                                   1 6h2-    1 6h4-    1 6h2-    1 6h4-    1 6h2-    1 7i2-    1 7i6-    1 7i4-    1 7i2-    1 7i6- 
                                   1 7i4-    2 3d2-    2 3d2-    2 3d2-    2 3d2-    2 4f2-    2 4f2- 

   1.4   2    -8.3160  -90.3321  0.000101  0.000016  0.001146 -0.000757  0.002172  0.006193  0.020226  0.055414  0.131559  0.238072
                                 0.316832  0.292799  0.154211  0.039194  0.004309  0.000354  0.000075  0.000019  0.000013 -0.000003
                                 0.000001 -0.000000  0.000000 -0.000684  0.000420 -0.000186  0.000029 -0.000018  0.000007 -0.000118
                                 0.000000  0.000077 -0.000000 -0.000044  0.000000  0.000014 -0.000000 -0.000003 -0.000000 -0.000000
                                 0.000042  0.000000 -0.000043 -0.000000  0.000009  0.000023  0.000064 -0.000000 -0.000010 -0.000024
                                 0.000000 -0.000001 -0.000001 -0.000013 -0.000000 -0.000000  0.000005

   2.4   +    -0.3842  -26.2866 -0.000026 -0.000004 -0.000291  0.000191 -0.000554 -0.001592 -0.005207 -0.014371 -0.034460 -0.062026
                                -0.079264 -0.063602  0.027900  0.171385  0.280761  0.311993  0.254126  0.142546  0.043202  0.004225
                                -0.000005  0.000006 -0.000001 -0.002482  0.001987 -0.010916 -0.035381 -0.015082  0.001214  0.000103
                                -0.000000 -0.000724  0.000000 -0.003696 -0.000000 -0.001890  0.000000  0.000494 -0.000000 -0.000000
                                 0.000046  0.000000 -0.000273  0.000000 -0.000641 -0.000046  0.000022 -0.000000 -0.000005  0.000047
                                 0.000000  0.000527  0.002606  0.001657  0.000044 -0.000369 -0.000988

   3.4   0     0.0086   -1.9652  0.000000 -0.000002  0.000023 -0.000034  0.000026 -0.000015  0.000059  0.000006  0.000284  0.000055
                                 0.000856 -0.000670  0.001817 -0.004785  0.006592 -0.017505  0.030554 -0.062511  0.116899 -0.196790
                                 0.263169 -0.496280  1.282991  0.000046 -0.000120  0.000152 -0.000689  0.003320 -0.013668 -0.000007
                                 0.000000  0.000041 -0.000000 -0.000019  0.000000  0.000346 -0.000000 -0.000880  0.000000 -0.000000
                                 0.000003 -0.000000 -0.000008 -0.000000  0.000043 -0.000000 -0.000000 -0.000000  0.000002 -0.000001
                                 0.000000 -0.000014  0.000134 -0.000425  0.000002  0.000004  0.000007

   4.4   0     0.0266   -3.0982 -0.000000  0.000005 -0.000048  0.000081 -0.000045  0.000101  0.000050  0.000549  0.000612  0.002291
                                 0.000873  0.004235 -0.005931  0.005606 -0.028594  0.033200 -0.090930  0.163490 -0.313781  0.560803
                                -0.715136  1.856946 -0.990238  0.000194 -0.000543  0.000637 -0.003251  0.014075 -0.071962 -0.000010
                                 0.000000  0.000108 -0.000000  0.000103  0.000000  0.001042 -0.000000 -0.003716  0.000000  0.000000
                                 0.000013  0.000000 -0.000036 -0.000000  0.000211 -0.000003 -0.000001  0.000000  0.000016 -0.000003
                                -0.000000 -0.000004  0.000296 -0.001153  0.000005 -0.000046  0.000139

 HOMO      6.2    -0.310050 =      -8.4369eV
 LUMO     13.1    -0.059177 =      -1.6103eV
 LUMO-HOMO         0.250874 =       6.8266eV


 **********************************************************************************************************************************
 DATASETS  * FILE   NREC   LENGTH (MB)   RECORD NAMES
              1      22       24.16       500      610      700      900      950      970     1000      129      960     1700   
                                          VAR    BASINP    GEOM    SYMINP    ZMAT    AOBASIS   BASIS     P2S    ABASIS    OPER   
                                         1101     1401     1411     1412     1650     1100     1400     1410     1200     1210   
                                          SR      EKINR    POTR     PVPR    MOLCAS      S      EKIN      POT      H0       H01  
                                         1080     1600   
                                         AOSYM     SMH  

              2       4        4.60       700     1000      520     2100   
                                         GEOM     BASIS   MCVARS     RHF  

 PROGRAMS   *        TOTAL       RHF       INT
 CPU TIMES  *       271.09     12.16    258.54
 REAL TIME  *       282.20 SEC
 DISK USED  *        10.99 GB      
 SF USED    *         0.25 MB      
 GA USED    *         0.00 MB       (max)       0.00 MB       (current)
 **********************************************************************************************************************************
 SETTING SCF            =     -3892.14240704  AU                              
 SETTING _CC_NORM_MAX   =         2.00000000                                  


 PROGRAM * CCSD (Restricted open-shell coupled cluster)     Authors: C. Hampel, H.-J. Werner, 1991, M. Deegan, P.J. Knowles, 1992


 Convergence thresholds:  THRVAR = 1.00D-08  THRDEN = 1.00D-06

 CCSD(T)     terms to be evaluated (factor= 1.000)


 Number of core orbitals:          15 (   8   3   3   1 )
 Number of closed-shell orbitals:   8 (   4   2   2   0 )
 Number of active  orbitals:        3 (   0   1   1   1 )
 Number of external orbitals:     437 ( 176 103 103  55 )

 Memory could be reduced to 396.03 Mwords without degradation in triples

 Number of N-1 electron functions:              19
 Number of N-2 electron functions:             171
 Number of singly external CSFs:              2504
 Number of doubly external CSFs:           6359952
 Total number of CSFs:                     6362456

 Molecular orbitals read from record     2100.2  Type=RHF/CANONICAL (state 1.1)

 Integral transformation finished. Total CPU:  15.33 sec, npass=  1  Memory used:  40.42 MW

 Starting RMP2 calculation

 Wavefunction is spin-projected

 ITER.      SQ.NORM     CORR.ENERGY   TOTAL ENERGY   ENERGY CHANGE        DEN1      VAR(S)    VAR(P)  DIIS     TIME
   1      1.19688732    -0.70929407 -3892.85170111    -0.70929407    -0.01114473  0.90D-04  0.48D-02  1  1    16.63
   2      1.21203690    -0.72252369 -3892.86493073    -0.01322962    -0.00020584  0.61D-05  0.12D-03  2  2    17.45
   3      1.21452810    -0.72372216 -3892.86612920    -0.00119847    -0.00000425  0.53D-06  0.24D-05  3  3    18.12
   4      1.21471267    -0.72376297 -3892.86617001    -0.00004080    -0.00000016  0.57D-07  0.73D-07  4  4    18.88
   5      1.21472287    -0.72376410 -3892.86617114    -0.00000113    -0.00000001  0.53D-08  0.22D-08  5  5    19.73
   6      1.21472370    -0.72376410 -3892.86617114    -0.00000000    -0.00000000  0.42D-09  0.84D-10  6  6    20.80

 Norm of t1 vector:      0.04924902      S-energy:    -0.00519639      T1 diagnostic:  0.00073911
 Norm of t2 vector:      0.46075832      P-energy:    -0.71856771
                                         Alpha-Beta:  -0.51291325
                                         Alpha-Alpha: -0.12306172
                                         Beta-Beta:   -0.08259274

 Spin contamination <S**2-Sz**2-Sz>     0.00000000
  Reference energy                  -3892.142407040074
  RHF-RMP2 correlation energy          -0.723764096881
 !RHF-RMP2 energy                   -3892.866171136955
 (NB above energy spin projected)

 Starting RCCSD calculation

 ITER.      SQ.NORM     CORR.ENERGY   TOTAL ENERGY   ENERGY CHANGE        DEN1      VAR(S)    VAR(P)  DIIS     TIME
   1      1.16823066    -0.67517153 -3892.81757857    -0.67517153    -0.02113275  0.78D-02  0.28D-02  1  1    28.72
   2      1.18993643    -0.69260546 -3892.83501250    -0.01743392    -0.00338485  0.91D-03  0.10D-02  2  2    36.51
   3      1.20786124    -0.69668364 -3892.83909068    -0.00407818    -0.00115099  0.90D-03  0.11D-03  3  3    44.20
   4      1.22727277    -0.69998989 -3892.84239693    -0.00330626    -0.00027230  0.18D-03  0.38D-04  4  4    52.48
   5      1.23968296    -0.70098094 -3892.84338798    -0.00099105    -0.00007558  0.56D-04  0.82D-05  5  5    60.52
   6      1.24741920    -0.70152381 -3892.84393085    -0.00054287    -0.00001875  0.13D-04  0.26D-05  6  6    68.25
   7      1.25051909    -0.70168384 -3892.84409088    -0.00016003    -0.00000589  0.43D-05  0.88D-06  7  7    76.04
   8      1.25168117    -0.70173115 -3892.84413819    -0.00004731    -0.00000235  0.18D-05  0.31D-06  8  8    84.11
   9      1.25232763    -0.70177367 -3892.84418071    -0.00004252    -0.00000097  0.76D-06  0.16D-06  9  9    92.38
  10      1.25254928    -0.70178171 -3892.84418875    -0.00000804    -0.00000038  0.33D-06  0.49D-07 10 10   100.86
  11      1.25270600    -0.70178972 -3892.84419676    -0.00000801    -0.00000019  0.16D-06  0.29D-07 11 11   109.40
  12      1.25275509    -0.70179525 -3892.84420229    -0.00000553    -0.00000009  0.79D-07  0.12D-07 12 12   117.70
  13      1.25279176    -0.70179449 -3892.84420153     0.00000076    -0.00000004  0.29D-07  0.55D-08 13 13   126.32
  14      1.25283745    -0.70179556 -3892.84420260    -0.00000107    -0.00000001  0.12D-07  0.19D-08 14 14   140.59
  15      1.25284505    -0.70179518 -3892.84420222     0.00000038    -0.00000001  0.40D-08  0.85D-09 15 15   151.02

 Norm of t1 vector:      0.24923835      S-energy:    -0.00541835      T1 diagnostic:  0.03929615
                                                                       D1 diagnostic:  0.09942311
 Norm of t2 vector:      0.43672108      P-energy:    -0.69637683
                                         Alpha-Beta:  -0.51798037
                                         Alpha-Alpha: -0.10958406
                                         Beta-Beta:   -0.06881240

 Singles amplitudes (print threshold =  0.500E-01):

         I         SYM. A    A   T(IA) [Alpha-Alpha]

         4         1        13      0.05253509
         4         1        18     -0.05169192
 
         I         SYM. A    A   T(IA) [Beta-Beta]

         6         2         1     -0.11302117
         9         3         1     -0.11302117

 Spin contamination <S**2-Sz**2-Sz>     0.00000000

 Memory could be reduced to 411.17 Mwords without degradation in triples
 

  Correlated core orbitals:             9.1      10.1       4.2       4.3
  Orbital energies:                    -2.8108   -1.7450   -1.7608   -1.7608
 
  RCCSD core-core energy               -0.181240783546
  RCCSD core-valence energy            -0.162422581460
  RCCSD valence correlation energy     -0.358131812208
 

 RESULTS
 =======

  Reference energy                  -3892.142407040074
  RCCSD singles energy                 -0.005418350373
  RCCSD pair energy                    -0.696376826841
  RCCSD correlation energy             -0.701795177214
  Triples (T) contribution             -0.041991037810
  Total correlation energy             -0.743786215024
 
  RHF-RCCSD energy                  -3892.844202217288
  RHF-RCCSD[T] energy               -3892.896865019616
  RHF-RCCSD-T energy                -3892.883957827274
 !RHF-RCCSD(T) energy               -3892.886193255098

 Program statistics:

 Available memory in ccsd:               999998822
 Min. memory needed in ccsd:              18952844
 Max. memory used in ccsd:                26722179
 Max. memory used in cckext:              24162151 (15 integral passes)
 Max. memory used in cckint:              40417637 ( 1 integral passes)



 **********************************************************************************************************************************
 DATASETS  * FILE   NREC   LENGTH (MB)   RECORD NAMES
              1      22       24.16       500      610      700      900      950      970     1000      129      960     1700   
                                          VAR    BASINP    GEOM    SYMINP    ZMAT    AOBASIS   BASIS     P2S    ABASIS    OPER   
                                         1101     1401     1411     1412     1650     1100     1400     1410     1200     1210   
                                          SR      EKINR    POTR     PVPR    MOLCAS      S      EKIN      POT      H0       H01  
                                         1080     1600   
                                         AOSYM     SMH  

              2       4        4.60       700     1000      520     2100   
                                         GEOM     BASIS   MCVARS     RHF  

 PROGRAMS   *        TOTAL  RCCSD(T)       RHF       INT
 CPU TIMES  *       566.04    294.87     12.16    258.54
 REAL TIME  *       747.12 SEC
 DISK USED  *        33.03 GB      
 SF USED    *         6.49 GB      
 GA USED    *         0.00 MB       (max)       0.00 MB       (current)
 **********************************************************************************************************************************
 SETTING CCSD           =     -3892.88619326  AU                              
 SETTING BIND           =        -0.14268816  AU                              
 Output type csv         
                                                                                                                                                                                                                                                                

  2.00,SCF,CCSD,BIND
   2.0,   -3892.142407,   -3892.886193,   -0.14268816
                                                  

 RCCSD(T)/USERDEF energy=  -3892.886193255098

        RCCSD(T)        RHF-SCF 
  -3892.88619326  -3892.14240704
 **********************************************************************************************************************************
 Molpro calculation terminated
 Variable memory released
