<?xml version="1.0"?>
<molpro xmlns="http://www.molpro.net/schema/molpro-output"
  xmlns:xsd="http://www.w3.org/1999/XMLSchema"
  xmlns:cml="http://www.xml-cml.org/schema"
  xmlns:stm="http://www.xml-cml.org/schema"
  xmlns:xhtml="http://www.w3.org/1999/xhtml">
 <!--

 Nodes     nprocs
 nid02073     3
 Number of processes for MPI-2 version of Molpro:   nprocs(total)=    4   nprocs(compute)=    3   nprocs(helper)=    1

 Using customized tuning parameters: mindgm=7; mindgv=16; mindgc=1; mindgr=1; noblas=0; minvec=7
 default implementation of scratch files=sf

 --><job>
  <!--

 Variables initialized (889), CPU time= 0.01 sec
 Commands  initialized (702), CPU time= 0.01 sec, 572 directives.
 Default parameters read. Elapsed time= 0.09 sec

 Checking input...
 Passed
1


                                         ***  PROGRAM SYSTEM MOLPRO  ***
                                       Copyright, TTI GmbH Stuttgart, 2015
                                    Version 2015.1 linked Dec 29 2018 15:55:43


 **********************************************************************************************************************************
 LABEL *   Calculation for Ta atom, singlet and triplet
  64 bit mpp version                                                                     DATE: 09-Oct-22          TIME: 08:51:12
 **********************************************************************************************************************************

 SHA1:             19cd028119e0e09f93f0674bd8af7968d9b3eff6
 **********************************************************************************************************************************
  -->
  <!--

 THRESHOLDS:

 ZERO    =  1.00D-12  ONEINT  =  1.00D-12  TWOINT  =  1.00D-15  PREFAC  =  1.00D-14  LOCALI  =  1.00D-09  EORDER  =  1.00D-04
 ENERGY  =  0.00D+00  ETEST   =  0.00D+00  EDENS   =  0.00D+00  THRDEDEF=  1.00D-06  GRADIENT=  1.00D-02  STEP    =  1.00D-03
 ORBITAL =  1.00D-05  CIVEC   =  1.00D-05  COEFF   =  1.00D-04  PRINTCI =  5.00D-02  PUNCHCI =  9.90D+01  OPTGRAD =  3.00D-04
 OPTENERG=  1.00D-06  OPTSTEP =  3.00D-04  THRGRAD =  1.00D-10  COMPRESS=  1.00D-11  VARMIN  =  1.00D-07  VARMAX  =  1.00D-03
 THRDOUB =  0.00D+00  THRDIV  =  1.00D-05  THRRED  =  1.00D-07  THRPSP  =  1.00D+00  THRDC   =  1.00D-10  THRCS   =  1.00D-10
 THRNRM  =  1.00D-08  THREQ   =  0.00D+00  THRDE   =  1.00D+00  THRREF  =  1.00D-05  SPARFAC =  1.00D+00  THRDLP  =  1.00D-07
 THRDIA  =  1.00D-10  THRDLS  =  1.00D-07  THRGPS  =  0.00D+00  THRKEX  =  0.00D+00  THRDIS  =  2.00D-01  THRVAR  =  1.00D-10
 THRLOC  =  1.00D-06  THRGAP  =  1.00D-06  THRLOCT = -1.00D+00  THRGAPT = -1.00D+00  THRORB  =  1.00D-06  THRMLTP =  0.00D+00
 THRCPQCI=  1.00D-10  KEXTA   =  0.00D+00  THRCOARS=  0.00D+00  SYMTOL  =  1.00D-06  GRADTOL =  1.00D-06  THROVL  =  1.00D-08
 THRORTH =  1.00D-08  GRID    =  1.00D-06  GRIDMAX =  1.00D-03  DTMAX   =  0.00D+00  THROCCDE=  1.00D-01  THROCCDE=  1.00D-01



 THRESHOLDS:

 ZERO    =  1.00D-12  ONEINT  =  1.00D-15  TWOINT  =  1.00D-15  PREFAC  =  1.00D-14  LOCALI  =  1.00D-09  EORDER  =  1.00D-04
 ENERGY  =  0.00D+00  ETEST   =  0.00D+00  EDENS   =  0.00D+00  THRDEDEF=  1.00D-06  GRADIENT=  1.00D-02  STEP    =  1.00D-03
 ORBITAL =  1.00D-05  CIVEC   =  1.00D-05  COEFF   =  1.00D-04  PRINTCI =  5.00D-02  PUNCHCI =  9.90D+01  OPTGRAD =  3.00D-04
 OPTENERG=  1.00D-06  OPTSTEP =  3.00D-04  THRGRAD =  1.00D-10  COMPRESS=  1.00D-11  VARMIN  =  1.00D-07  VARMAX  =  1.00D-03
 THRDOUB =  0.00D+00  THRDIV  =  1.00D-05  THRRED  =  1.00D-07  THRPSP  =  1.00D+00  THRDC   =  1.00D-10  THRCS   =  1.00D-10
 THRNRM  =  1.00D-08  THREQ   =  0.00D+00  THRDE   =  1.00D+00  THRREF  =  1.00D-05  SPARFAC =  1.00D+00  THRDLP  =  1.00D-07
 THRDIA  =  1.00D-10  THRDLS  =  1.00D-07  THRGPS  =  0.00D+00  THRKEX  =  0.00D+00  THRDIS  =  2.00D-01  THRVAR  =  1.00D-10
 THRLOC  =  1.00D-06  THRGAP  =  1.00D-06  THRLOCT = -1.00D+00  THRGAPT = -1.00D+00  THRORB  =  1.00D-06  THRMLTP =  0.00D+00
 THRCPQCI=  1.00D-10  KEXTA   =  0.00D+00  THRCOARS=  0.00D+00  SYMTOL  =  1.00D-06  GRADTOL =  1.00D-06  THROVL  =  1.00D-08
 THRORTH =  1.00D-08  GRID    =  1.00D-06  GRIDMAX =  1.00D-03  DTMAX   =  0.00D+00  THROCCDE=  1.00D-01  THROCCDE=  1.00D-01



Geometry recognized as XYZ


 Variable memory set to 1000000000 words,  buffer space   230000 words

 SETTING BASIS          =    USERDEF

 DO I                   =         1.00000000

 Running procedure=ID3S2
 SETTING BASIS          =    USERDEF
  --><jobstep command="RKS-SCF" commandset="SCFPRO">
   <!--


 Recomputing integrals since basis changed


 Using spherical harmonics



 PROGRAM * SEWARD (Integral evaluation for generally contracted gaussian basis sets)     Author: Roland Lindh, 1990

 Geometry written to block  1 of record 700

 Orientation using atomic masses
 Molecule type: Atom
 Symmetry elements: X,Y,Z
 Rotational constants:       0.0000000      0.0000000      0.0000000 GHz  (calculated with average atomic masses)

 Point group  D2h


   --><cml:molecule>
    <cml:symmetry pointGroup="D2h"/>
    <cml:atomArray>
     <cml:atom id="a1" elementType="Ta" x3="0.0" y3="0.0" z3="0.0"/>
    </cml:atomArray>
    <cml:bondArray>
    </cml:bondArray>
   </cml:molecule><!--

 ATOMIC COORDINATES

 NR  ATOM    CHARGE       X              Y              Z

   1  TA     73.00    0.000000000    0.000000000    0.000000000

 NUCLEAR CHARGE:                   73
 NUMBER OF PRIMITIVE AOS:         455
 NUMBER OF SYMMETRY AOS:          370
 NUMBER OF CONTRACTIONS:          138   (  38Ag  +  18B3u +  18B2u +  14B1g +  18B1u +  14B2g +  14B3g +   4Au  )
 NUMBER OF CORE ORBITALS:          34   (   9Ag  +   6B3u +   6B2u +   2B1g +   6B1u +   2B2g +   2B3g +   1Au  )
 NUMBER OF VALENCE ORBITALS:        6   (   3Ag  +   0B3u +   0B2u +   1B1g +   0B1u +   1B2g +   1B3g +   0Au  )


 NUCLEAR REPULSION ENERGY    0.00000000

 EXTRA SYMMETRY OF AOS IN SYMMETRY 1:   1 1 1 1 1 1 1 1 1 1   1 1 1 2 3 2 3 2 3 2   3 2 3 2 3 2 3 2 3 4   5 6 4 5 6 4 5 6
 EXTRA SYMMETRY OF AOS IN SYMMETRY 2:   1 1 1 1 1 1 1 1 1 1   2 3 2 3 2 3 2 3
 EXTRA SYMMETRY OF AOS IN SYMMETRY 3:   1 1 1 1 1 1 1 1 1 1   2 3 2 3 2 3 2 3
 EXTRA SYMMETRY OF AOS IN SYMMETRY 4:   1 1 1 1 1 1 1 1 2 3   2 3 2 3
 EXTRA SYMMETRY OF AOS IN SYMMETRY 5:   1 1 1 1 1 1 1 1 1 1   2 3 2 3 2 3 2 3
 EXTRA SYMMETRY OF AOS IN SYMMETRY 6:   1 1 1 1 1 1 1 1 2 3   2 3 2 3
 EXTRA SYMMETRY OF AOS IN SYMMETRY 7:   1 1 1 1 1 1 1 1 2 3   2 3 2 3

 Eigenvalues of metric

         1 0.204E-05 0.603E-04 0.139E-03 0.178E-03 0.178E-03 0.400E-02 0.702E-02 0.702E-02
         2 0.771E-04 0.761E-03 0.535E-02 0.838E-01 0.247E+00 0.247E+00 0.601E+00 0.703E+00
         3 0.771E-04 0.761E-03 0.535E-02 0.838E-01 0.247E+00 0.247E+00 0.601E+00 0.703E+00
         4 0.178E-03 0.702E-02 0.282E+00 0.282E+00 0.620E+00 0.891E+00 0.891E+00 0.905E+00
         5 0.771E-04 0.761E-03 0.535E-02 0.838E-01 0.247E+00 0.247E+00 0.601E+00 0.703E+00
         6 0.178E-03 0.702E-02 0.282E+00 0.282E+00 0.620E+00 0.891E+00 0.891E+00 0.905E+00
         7 0.178E-03 0.702E-02 0.282E+00 0.282E+00 0.620E+00 0.891E+00 0.891E+00 0.905E+00
         8 0.247E+00 0.703E+00 0.111E+01 0.194E+01


 Contracted 2-electron integrals neglected if value below      1.0D-15
 AO integral compression algorithm  1   Integral accuracy      1.0D-15

     66.847 MB (compressed) written to integral file ( 75.5%)

     Node minimum: 18.874 MB, node maximum: 24.379 MB


 NUMBER OF SORTED TWO-ELECTRON INTEGRALS:    2009345.     BUFFER LENGTH:  32768
 NUMBER OF SEGMENTS:   1  SEGMENT LENGTH:    2009345      RECORD LENGTH: 524288

 Memory used in sort:       2.57 MW

 SORT1 READ    11127267. AND WROTE     1491410. INTEGRALS IN      5 RECORDS. CPU TIME:     0.22 SEC, REAL TIME:     0.25 SEC
 SORT2 READ     4469215. AND WROTE     6048064. INTEGRALS IN    279 RECORDS. CPU TIME:     0.05 SEC, REAL TIME:     0.13 SEC

 Node minimum:     2009345.  Node maximum:     2019908. integrals

 OPERATOR DM      FOR CENTER  0  COORDINATES:    0.000000    0.000000    0.000000


 **********************************************************************************************************************************
 DATASETS  * FILE   NREC   LENGTH (MB)   RECORD NAMES
              1      18       20.13       500      610      700      900      950      970     1000      129      960     1100
                                          VAR    BASINP    GEOM    SYMINP    ZMAT    AOBASIS   BASIS     P2S    ABASIS      S
                                         1400     1410     1200     1210     1080     1600     1650     1700
                                           T        V       H0       H01     AOSYM     SMH    MOLCAS    OPER

 PROGRAMS   *        TOTAL       INT
 CPU TIMES  *        19.34     19.02
 REAL TIME  *        20.31 SEC
 DISK USED  *       118.24 MB
 GA USED    *         0.00 MB       (max)       0.00 MB       (current)
 **********************************************************************************************************************************

 Density functional group PBE0=PBEX+PBEC
 Functional: PBEX(Automatically generated (new) PBEX)                          Gradient terms: 1
 Functional: PBEC(Automatically generated (new) PBEC)                          Gradient terms: 1
 Use grid at  1800.2


 Exact exchange will be calculated, factor:  0.2500

 Functional: PBEX                      Factor:  0.7500
 Functional: PBEC                      Factor:  1.0000

 Generated new metagrid on record  1800.2 with target accuracy 1.0D-06 and 780 points in CPU time    0.0
 Computed new grid on record 1800.1 in CPU time    0.0
  123117 words reserved for DFT integration

 PROGRAM * RKS-SCF (Restricted open shell Kohn-Sham)     Authors: W. Meyer, H.-J. Werner, P.J. Knowles, 1993

 NUMBER OF ELECTRONS:       8+    5-    SPACE SYMMETRY=4    SPIN SYMMETRY: Quartet
 CONVERGENCE THRESHOLDS:    1.00E-05 (Density)    1.46E-06 (Energy)
 MAX. NUMBER OF ITERATIONS:       60
 INTERPOLATION TYPE:            DIIS
 INTERPOLATION STEPS:              2 (START)      1 (STEP)
 LEVEL SHIFTS:                 -0.60 (CLOSED) -0.30 (OPEN)

 Number of closed-shell orbitals:    5 (   2   1   1   0   1   0   0   0 )
 Number of open-shell orbitals:      3 (   1   0   0   0   0   1   1   0 )



 Extra symmetries of mos in symmetry 1:   1   1   3   2
 Use fine grid record 1800.2 for energy threshold  1.0D-06
 Orbital guess generated from atomic densities. Full valence occupancy:   12   6   6   3   6   3   3   1


 Molecular orbital dump at record        3202.2

 ITERATION    DDIFF          GRAD             ENERGY        2-EL.EN.            DIPOLE MOMENTS         DIIS   ORB.
    1      0.000D+00      0.000D+00    -10683.14532262   1793.422561    0.00000    0.00000    0.00000    0    start
    2      0.000D+00      0.115D+01    -10688.55887993   1826.799569    0.00000    0.00000    0.00000    1    diag,B
    3      0.351D+00      0.343D-01    -10688.56016270   1826.286029    0.00000    0.00000    0.00000    2    diag,B
    4      0.446D-02      0.129D-03    -10688.56016278   1826.287601    0.00000    0.00000    0.00000    3    diag,B
    5      0.394D-04      0.484D-06    -10688.56016278   1826.287607    0.00000    0.00000    0.00000    4    diag,B
    6      0.106D-06      0.140D-08    -10688.56016278   1826.287607    0.00000    0.00000    0.00000    0    orth

 Final alpha occupancy:   3   1   1   0   1   1   1   0
 Final beta  occupancy:   2   1   1   0   1   0   0   0

 !RKS STATE 1.4 Energy               -10688.5601627762
   --><property name="Energy" method="RKS" principal="true" stateSymmetry="4" stateNumber="1"
     value="-10688.5601627762"/><!--
 Nuclear energy                         0.00000000
 One-electron energy               -11499.68353857
 Two-electron energy                  913.14380370
 Density functional                  -102.02042791     PBEX=-135.29411290 PBEC=  -0.54984323
 Virial quotient                       -1.01026399
 !RKS STATE 1.4 Dipole moment           0.00000000     0.00000000     0.00000000
 Dipole moment /Debye                   0.00000000     0.00000000     0.00000000
   --><property name="Dipole moment" method="RKS" principal="true" stateSymmetry="4"
     stateNumber="1" value="0.0 0.0 0.0"/><!--

 ELECTRON ORBITALS
 =================


   Orb  Occ    Energy  Couls-En    Coefficients

                                   1 1s      1 1s      1 1s      1 1s      1 1s      1 1s      1 1s      1 1s      1 1s      1 1s
                                   1 1s      1 1s      1 1s      1 3d0     1 3d2+    1 3d0     1 3d2+    1 3d0     1 3d2+    1 3d0
                                   1 3d2+    1 3d0     1 3d2+    1 3d0     1 3d2+    1 3d0     1 3d2+    1 3d0     1 3d2+    1 5g0
                                   1 5g4+    1 5g2+    1 5g0     1 5g4+    1 5g2+    1 5g0     1 5g4+    1 5g2+

   1.1   2 -2459.8585-5124.1859  0.999916 -0.001203 -0.001923 -0.007864 -0.018233  0.000780 -0.002513 -0.004463 -0.002413  0.023215
                                -0.015483  0.008369 -0.000152  0.000000 -0.000000  0.000000 -0.000000  0.000000 -0.000000  0.000000
                                -0.000000 -0.000000  0.000000  0.000000 -0.000000 -0.000000  0.000000 -0.000000  0.000000 -0.000000
                                 0.000000 -0.000000  0.000000 -0.000000  0.000000 -0.000000  0.000000 -0.000000

   2.1   2  -541.2450-1205.3991  0.003479  1.017192  0.047161  0.178248  0.336977 -0.016737  0.133711 -0.033793  0.152756 -0.506947
                                 0.085682 -0.074557  0.004439 -0.000001 -0.000000 -0.000000 -0.000000 -0.000002 -0.000000 -0.000001
                                -0.000000  0.000018  0.000000 -0.000019 -0.000000  0.000004  0.000000  0.000000  0.000000 -0.000000
                                 0.000000 -0.000000  0.000000 -0.000000  0.000000 -0.000000  0.000000 -0.000000

   3.1   +  -212.1999 -499.2097 -0.000000 -0.000000 -0.000000 -0.000000 -0.000000  0.000000 -0.000000 -0.000000 -0.000000  0.000000
                                -0.000000  0.000000 -0.000000 -0.000000  0.998160  0.000000 -0.010855 -0.000000  0.287585 -0.000000
                                 0.099615  0.000000 -1.983768 -0.000000  2.096725  0.000000 -0.446621  0.000000 -0.021988  0.000000
                                 0.000000  0.000001 -0.000000 -0.000000 -0.000001  0.000000 -0.000000  0.000000

   4.1   0  -210.4393 -497.4161  0.000053  0.000327  0.000719  0.002926  0.004985 -0.000264  0.002536 -0.001270  0.002934 -0.007903
                                -0.000246 -0.000608  0.000075  0.998266  0.000000 -0.010908 -0.000000  0.283862  0.000000  0.098341
                                 0.000000 -1.957742 -0.000000  2.069209  0.000000 -0.440790 -0.000000 -0.021699 -0.000000 -0.000002
                                -0.000005 -0.000000  0.000001  0.000003  0.000000 -0.000000 -0.000001 -0.000000

   5.1   0  -224.0414 -515.3818 -0.035634 -0.202036  0.269731 -1.721063 -2.594605  0.141986 -1.447209  0.873382 -1.657981  4.050892
                                 0.668622  0.270036 -0.039265  0.000474 -0.000000 -0.000024  0.000000 -0.000136  0.000000 -0.000041
                                -0.000000  0.001113 -0.000000 -0.001178  0.000000  0.000231 -0.000000  0.000012 -0.000000 -0.000006
                                 0.000006 -0.000000  0.000004 -0.000004  0.000000 -0.000001  0.000001 -0.000000

                                   1 2px     1 2px     1 2px     1 2px     1 2px     1 2px     1 2px     1 2px     1 2px     1 2px
                                   1 4f1+    1 4f3+    1 4f1+    1 4f3+    1 4f1+    1 4f3+    1 4f1+    1 4f3+

   1.2   2  -527.8027-1191.4178  1.001053 -0.006232  0.061762  0.125134 -0.015258 -0.009450 -0.231517  0.092771  0.001853 -0.000055
                                 0.000027  0.000035 -0.000011 -0.000014  0.000004  0.000006 -0.000002 -0.000002

   2.2   0  -218.7989 -507.9398  0.001408  0.839471 -0.883710 -1.699053  0.204647  0.107134  3.288719 -1.346311 -0.071668  0.000296
                                 0.000841  0.001080 -0.000310 -0.000398  0.000121  0.000156 -0.000043 -0.000055

   3.2   0  -116.1889 -268.5673  0.072059  0.824602  4.415106  7.647489 -0.900353 -0.315521-15.897909  6.662051  0.553280  0.001419
                                 0.001478  0.001996 -0.000464 -0.000626  0.000163  0.000219 -0.000057 -0.000076

                                   1 2py     1 2py     1 2py     1 2py     1 2py     1 2py     1 2py     1 2py     1 2py     1 2py
                                   1 4f1-    1 4f3-    1 4f1-    1 4f3-    1 4f1-    1 4f3-    1 4f1-    1 4f3-

   1.3   2  -527.8027-1191.4178  1.001053 -0.006232  0.061762  0.125134 -0.015258 -0.009450 -0.231517  0.092771  0.001853 -0.000055
                                 0.000027 -0.000035 -0.000011  0.000014  0.000004 -0.000006 -0.000002  0.000002

   2.3   0  -218.7989 -507.9398  0.001408  0.839471 -0.883710 -1.699053  0.204647  0.107134  3.288719 -1.346311 -0.071668  0.000296
                                 0.000841 -0.001080 -0.000310  0.000398  0.000121 -0.000156 -0.000043  0.000055

   3.3   0  -116.1889 -268.5673  0.072059  0.824602  4.415106  7.647489 -0.900353 -0.315521-15.897909  6.662051  0.553280  0.001419
                                 0.001478 -0.001996 -0.000464  0.000626  0.000163 -0.000219 -0.000057  0.000076

                                   1 3d2-    1 3d2-    1 3d2-    1 3d2-    1 3d2-    1 3d2-    1 3d2-    1 3d2-    1 5g2-    1 5g4-
                                   1 5g2-    1 5g4-    1 5g2-    1 5g4-

   1.4   0  -210.4353 -497.4163  0.998254 -0.010875  0.284376  0.098509 -1.961575  2.073265 -0.441621 -0.021742  0.000006 -0.000000
                                -0.000003  0.000000  0.000001  0.000000

   2.4   0  -108.9671 -252.2950  0.088552  0.353440 -1.688182 -0.646722  9.824552-10.365493  2.419719  0.106724  0.000069  0.000000
                                -0.000039 -0.000000  0.000014  0.000000

                                   1 2pz     1 2pz     1 2pz     1 2pz     1 2pz     1 2pz     1 2pz     1 2pz     1 2pz     1 2pz
                                   1 4f0     1 4f2+    1 4f0     1 4f2+    1 4f0     1 4f2+    1 4f0     1 4f2+

   1.5   2  -527.8027-1191.4179  1.001054 -0.006231  0.061775  0.125161 -0.015261 -0.009453 -0.231568  0.092791  0.001854 -0.000055
                                -0.000045 -0.000000  0.000018  0.000000 -0.000007 -0.000000  0.000003  0.000000

   2.5   0  -218.8100 -507.9474  0.001435  0.839723 -0.882425 -1.696424  0.204327  0.106935  3.283855 -1.344354 -0.071634  0.000295
                                -0.001230 -0.000000  0.000454  0.000000 -0.000177 -0.000000  0.000063  0.000000

   3.5   0  -116.2066 -268.5895  0.072092  0.824811  4.416726  7.651131 -0.900800 -0.315813-15.904583  6.664766  0.553278  0.001418
                                -0.001334 -0.000000  0.000415  0.000000 -0.000145 -0.000000  0.000050  0.000000

                                   1 3d1+    1 3d1+    1 3d1+    1 3d1+    1 3d1+    1 3d1+    1 3d1+    1 3d1+    1 5g1+    1 5g3+
                                   1 5g1+    1 5g3+    1 5g1+    1 5g3+

   1.6   +  -212.2041 -499.2141  0.998160 -0.010855  0.287611  0.099624 -1.983943  2.096909 -0.446660 -0.021990 -0.000000  0.000001
                                 0.000000 -0.000001 -0.000000  0.000000

   2.6   0  -109.1773 -252.4883  0.089743  0.351172 -1.692905 -0.648071  9.864572-10.407924  2.428003  0.107168 -0.000006  0.000009
                                 0.000004 -0.000005 -0.000002  0.000002

   3.6   0   -59.8686 -136.0930 -0.066943 -1.703953 -3.917180 -1.546026 20.762810-21.916628  5.520506  0.218547  0.000065 -0.000097
                                -0.000022  0.000037  0.000005 -0.000011

                                   1 3d1-    1 3d1-    1 3d1-    1 3d1-    1 3d1-    1 3d1-    1 3d1-    1 3d1-    1 5g1-    1 5g3-
                                   1 5g1-    1 5g3-    1 5g1-    1 5g3-

   1.7   +  -212.2041 -499.2141  0.998160 -0.010855  0.287611  0.099624 -1.983943  2.096909 -0.446660 -0.021990 -0.000000 -0.000001
                                 0.000000  0.000001 -0.000000 -0.000000

   2.7   0  -109.1773 -252.4883  0.089743  0.351172 -1.692905 -0.648071  9.864572-10.407924  2.428003  0.107168 -0.000006 -0.000009
                                 0.000004  0.000005 -0.000002 -0.000002

   3.7   0   -59.8686 -136.0930 -0.066943 -1.703953 -3.917180 -1.546026 20.762810-21.916628  5.520506  0.218547  0.000065  0.000097
                                -0.000022 -0.000037  0.000005  0.000011

                                   1 4f2-    1 4f2-    1 4f2-    1 4f2-

   1.8   0   -92.3395 -212.3925  1.058045 -0.302793  0.098864 -0.034109

   2.8   0   -34.1262  -76.4483 -0.106323  1.192392 -0.356360  0.102478

 HOMO      3.1  -212.199897 =   -5774.2531eV
 LUMO      2.5  -218.810010 =   -5954.1234eV
 LUMO-HOMO        -6.610113 =    -179.8703eV


 **********************************************************************************************************************************
 DATASETS  * FILE   NREC   LENGTH (MB)   RECORD NAMES
              1      19       20.14       500      610      700      900      950      970     1000      129      960     1100
                                          VAR    BASINP    GEOM    SYMINP    ZMAT    AOBASIS   BASIS     P2S    ABASIS      S
                                         1400     1410     1200     1210     1080     1600     1650     1700     1800
                                           T        V       H0       H01     AOSYM     SMH    MOLCAS    OPER     GRID

              2       6        5.47       200      700     1000      520     1800     3202
                                        OPTIONS   GEOM     BASIS   MCVARS    GRID      RKS

 PROGRAMS   *        TOTAL       RKS       INT
 CPU TIMES  *        19.56      0.22     19.02
 REAL TIME  *        20.59 SEC
 DISK USED  *       196.32 MB
 SF USED    *         0.01 MB
 GA USED    *         0.09 MB       (max)       0.09 MB       (current)
 **********************************************************************************************************************************
   -->
   <time start="08:51:13" end="08:51:33" cpu="19.56" system="0.87" real="20.59"/>
   <storage units="megabyte" memory="8001.84" sf="0.01" df="78.09" eaf="118.24" ga="0.09"/>
  </jobstep><!--
  --><jobstep command="RHF-SCF" commandset="SCFPRO">
   <!--


 PROGRAM * RHF-SCF (OPEN SHELL)       Authors: W. Meyer, H.-J. Werner


 NUMBER OF ELECTRONS:       8+    5-    SPACE SYMMETRY=4    SPIN SYMMETRY: Quartet
 CONVERGENCE THRESHOLDS:    1.00E-05 (Density)    1.00E-07 (Energy)
 MAX. NUMBER OF ITERATIONS:       60
 INTERPOLATION TYPE:            DIIS
 INTERPOLATION STEPS:              2 (START)      1 (STEP)
 LEVEL SHIFTS:                 -0.60 (CLOSED) -0.30 (OPEN)

 Number of closed-shell orbitals:    5 (   2   1   1   0   1   0   0   0 )
 Number of open-shell orbitals:      3 (   1   0   0   0   0   1   1   0 )



 Extra symmetries of mos in symmetry 1:   1   1   3   2
 Molecular orbitals read from record     3202.2  Type=RKS/CANONICAL (state 1.4)

 Molecular orbital dump at record        4202.2

 ITERATION    DDIFF          GRAD             ENERGY        2-EL.EN.            DIPOLE MOMENTS         DIIS   ORB.
    1      0.000D+00      0.000D+00    -10687.88120376   1623.604670    0.00000    0.00000    0.00000    0    start
    2      0.000D+00      0.333D-01    -10687.88219457   1623.698878    0.00000    0.00000    0.00000    1    diag,B
    3      0.498D-02      0.511D-03    -10687.88219485   1623.698976    0.00000    0.00000    0.00000    2    diag,B
    4      0.504D-04      0.197D-05    -10687.88219485   1623.698984    0.00000    0.00000    0.00000    3    diag,B
    5      0.162D-06      0.838D-08    -10687.88219485   1623.698984    0.00000    0.00000    0.00000    0    orth

 Final alpha occupancy:   3   1   1   0   1   1   1   0
 Final beta  occupancy:   2   1   1   0   1   0   0   0

 !RHF STATE 1.4 Energy               -10687.8821948547
   --><property name="Energy" method="RHF" principal="true" stateSymmetry="4" stateNumber="1"
     value="-10687.8821948547"/><!--
 Nuclear energy                         0.00000000
 One-electron energy               -11499.73168685
 Two-electron energy                  811.84949199
 Virial quotient                       -1.01009101
 !RHF STATE 1.4 Dipole moment           0.00000000     0.00000000     0.00000000
 Dipole moment /Debye                   0.00000000     0.00000000     0.00000000
   --><property name="Dipole moment" method="RHF" principal="true" stateSymmetry="4"
     stateNumber="1" value="0.0 0.0 0.0"/><!--

 ELECTRON ORBITALS
 =================


   Orb  Occ    Energy  Couls-En    Coefficients

                                   1 1s      1 1s      1 1s      1 1s      1 1s      1 1s      1 1s      1 1s      1 1s      1 1s
                                   1 1s      1 1s      1 1s      1 3d0     1 3d2+    1 3d0     1 3d2+    1 3d0     1 3d2+    1 3d0
                                   1 3d2+    1 3d0     1 3d2+    1 3d0     1 3d2+    1 3d0     1 3d2+    1 3d0     1 3d2+    1 5g0
                                   1 5g4+    1 5g2+    1 5g0     1 5g4+    1 5g2+    1 5g0     1 5g4+    1 5g2+

   1.1   2 -2474.2321-5138.5580  0.999879 -0.001336 -0.002797 -0.010601 -0.023846  0.001043 -0.004288 -0.004478 -0.004376  0.030957
                                -0.017902  0.010224 -0.000211 -0.000000 -0.000000  0.000000 -0.000000  0.000000 -0.000000 -0.000000
                                -0.000000 -0.000000  0.000000  0.000000 -0.000000 -0.000000  0.000000 -0.000000  0.000000 -0.000000
                                 0.000000 -0.000000  0.000000 -0.000000  0.000000 -0.000000  0.000000 -0.000000

   2.1   2  -546.5595-1210.7607  0.003647  1.018889  0.052575  0.195537  0.369822 -0.018322  0.145420 -0.035812  0.165666 -0.551974
                                 0.094741 -0.084759  0.004788 -0.000000 -0.000000 -0.000000 -0.000000 -0.000000 -0.000000 -0.000000
                                -0.000000  0.000000  0.000000 -0.000000 -0.000000  0.000000  0.000000  0.000000  0.000000 -0.000000
                                 0.000000 -0.000000  0.000000 -0.000000  0.000000 -0.000000  0.000000 -0.000000

   3.1   +  -213.4801 -500.4924 -0.000000  0.000000  0.000000 -0.000000 -0.000000  0.000000 -0.000000  0.000000 -0.000000  0.000000
                                 0.000000  0.000000 -0.000000 -0.000000  0.998147  0.000000 -0.010930 -0.000000  0.287767 -0.000000
                                 0.099717  0.000000 -1.983704 -0.000000  2.096653  0.000000 -0.446779  0.000000 -0.021985  0.000000
                                -0.000000  0.000001 -0.000000  0.000000 -0.000001  0.000000 -0.000000  0.000000

   4.1   0  -208.3621 -495.2584 -0.000000 -0.000000 -0.000000 -0.000000 -0.000000  0.000000 -0.000000  0.000000 -0.000000  0.000000
                                 0.000000 -0.000000 -0.000000  0.998490  0.000000 -0.011356 -0.000000  0.274513  0.000000  0.095273
                                 0.000000 -1.888169 -0.000000  1.995624  0.000000 -0.425726 -0.000000 -0.020923 -0.000000 -0.000001
                                -0.000002 -0.000000  0.000001  0.000001  0.000000 -0.000000 -0.000000 -0.000000

   5.1   0  -222.3079 -513.4837 -0.034260 -0.191978  0.302192 -1.642381 -2.461162  0.134876 -1.377799  0.837674 -1.577322  3.835705
                                 0.659276  0.256544 -0.037185  0.000000 -0.000000 -0.000000  0.000000  0.000000  0.000000  0.000000
                                 0.000000 -0.000000 -0.000000  0.000000  0.000000 -0.000000 -0.000000 -0.000000 -0.000000 -0.000003
                                 0.000002 -0.000000  0.000001 -0.000001  0.000000 -0.000001  0.000000 -0.000000

                                   1 2px     1 2px     1 2px     1 2px     1 2px     1 2px     1 2px     1 2px     1 2px     1 2px
                                   1 4f1+    1 4f3+    1 4f1+    1 4f3+    1 4f1+    1 4f3+    1 4f1+    1 4f3+

   1.2   2  -532.3349-1195.9416  1.001032 -0.006290  0.060523  0.122538 -0.014938 -0.009228 -0.226915  0.090981  0.001844 -0.000053
                                 0.000077  0.000100 -0.000030 -0.000039  0.000012  0.000016 -0.000004 -0.000006

   2.2   0  -217.1238 -506.1649  0.001898  0.846306 -0.848646 -1.628501  0.196070  0.102042  3.156469 -1.292819 -0.070346  0.000273
                                 0.000964  0.001245 -0.000356 -0.000459  0.000139  0.000180 -0.000049 -0.000063

   3.2   0  -115.4411 -267.8435  0.070497  0.806368  4.344627  7.486174 -0.880460 -0.301876-15.607176  6.544390  0.554919  0.001478
                                -0.000890 -0.001149  0.000284  0.000367 -0.000101 -0.000130  0.000035  0.000045

                                   1 2py     1 2py     1 2py     1 2py     1 2py     1 2py     1 2py     1 2py     1 2py     1 2py
                                   1 4f1-    1 4f3-    1 4f1-    1 4f3-    1 4f1-    1 4f3-    1 4f1-    1 4f3-

   1.3   2  -532.3349-1195.9416  1.001032 -0.006290  0.060523  0.122538 -0.014938 -0.009228 -0.226915  0.090981  0.001844 -0.000053
                                 0.000077 -0.000100 -0.000030  0.000039  0.000012 -0.000016 -0.000004  0.000006

   2.3   0  -217.1238 -506.1649  0.001898  0.846306 -0.848646 -1.628501  0.196070  0.102042  3.156469 -1.292819 -0.070346  0.000273
                                 0.000964 -0.001245 -0.000356  0.000459  0.000139 -0.000180 -0.000049  0.000063

   3.3   0  -115.4411 -267.8435  0.070497  0.806368  4.344627  7.486174 -0.880460 -0.301876-15.607176  6.544390  0.554919  0.001478
                                -0.000890  0.001149  0.000284 -0.000367 -0.000101  0.000130  0.000035 -0.000045

                                   1 3d2-    1 3d2-    1 3d2-    1 3d2-    1 3d2-    1 3d2-    1 3d2-    1 3d2-    1 5g2-    1 5g4-
                                   1 5g2-    1 5g4-    1 5g2-    1 5g4-

   1.4   0  -208.3621 -495.2584  0.998490 -0.011356  0.274513  0.095273 -1.888169  1.995624 -0.425726 -0.020923  0.000002 -0.000000
                                -0.000001  0.000000  0.000000 -0.000000

   2.4   0  -108.4005 -251.7743  0.085287  0.360080 -1.674258 -0.642811  9.704384-10.238081  2.395097  0.105388 -0.000006 -0.000000
                                 0.000003  0.000000 -0.000001 -0.000000

                                   1 2pz     1 2pz     1 2pz     1 2pz     1 2pz     1 2pz     1 2pz     1 2pz     1 2pz     1 2pz
                                   1 4f0     1 4f2+    1 4f0     1 4f2+    1 4f0     1 4f2+    1 4f0     1 4f2+

   1.5   2  -532.3349-1195.9416  1.001032 -0.006290  0.060523  0.122538 -0.014938 -0.009228 -0.226915  0.090981  0.001844 -0.000053
                                -0.000126 -0.000000  0.000050  0.000000 -0.000020 -0.000000  0.000007  0.000000

   2.5   0  -217.1238 -506.1649  0.001898  0.846306 -0.848646 -1.628501  0.196070  0.102042  3.156469 -1.292819 -0.070346  0.000273
                                -0.001575 -0.000000  0.000581  0.000000 -0.000227 -0.000000  0.000080  0.000000

   3.5   0  -115.4411 -267.8435  0.070497  0.806368  4.344627  7.486174 -0.880460 -0.301876-15.607176  6.544390  0.554919  0.001478
                                 0.001454 -0.000000 -0.000464  0.000000  0.000164 -0.000000 -0.000057  0.000000

                                   1 3d1+    1 3d1+    1 3d1+    1 3d1+    1 3d1+    1 3d1+    1 3d1+    1 3d1+    1 5g1+    1 5g3+
                                   1 5g1+    1 5g3+    1 5g1+    1 5g3+

   1.6   +  -213.4801 -500.4924  0.998147 -0.010930  0.287767  0.099717 -1.983704  2.096653 -0.446779 -0.021985 -0.000000  0.000001
                                 0.000000 -0.000001 -0.000000  0.000000

   2.6   0  -108.5078 -251.7846  0.090163  0.358234 -1.676901 -0.643433  9.730709-10.266024  2.400163  0.105682  0.000001 -0.000003
                                -0.000001  0.000001  0.000000 -0.000000

   3.6   0   -59.7207 -135.9629 -0.066525 -1.700469 -3.917828 -1.548361 20.713572-21.863600  5.514757  0.217997 -0.000002  0.000006
                                 0.000001 -0.000003 -0.000000  0.000001

                                   1 3d1-    1 3d1-    1 3d1-    1 3d1-    1 3d1-    1 3d1-    1 3d1-    1 3d1-    1 5g1-    1 5g3-
                                   1 5g1-    1 5g3-    1 5g1-    1 5g3-

   1.7   +  -213.4801 -500.4924  0.998147 -0.010930  0.287767  0.099717 -1.983704  2.096653 -0.446779 -0.021985 -0.000000 -0.000001
                                 0.000000  0.000001 -0.000000 -0.000000

   2.7   0  -108.5078 -251.7846  0.090163  0.358234 -1.676901 -0.643433  9.730709-10.266024  2.400163  0.105682  0.000001  0.000003
                                -0.000001 -0.000001  0.000000  0.000000

   3.7   0   -59.7207 -135.9629 -0.066525 -1.700469 -3.917828 -1.548361 20.713572-21.863600  5.514757  0.217997 -0.000002 -0.000006
                                 0.000001  0.000003 -0.000000 -0.000001

                                   1 4f2-    1 4f2-    1 4f2-    1 4f2-

   1.8   0   -91.8553 -211.9075  1.057978 -0.302026  0.098425 -0.033952

   2.8   0   -34.0901  -76.4128 -0.106921  1.192490 -0.356216  0.102432

 HOMO      3.1  -213.480053 =   -5809.0879eV
 LUMO      2.2  -217.123755 =   -5908.2381eV
 LUMO-HOMO        -3.643702 =     -99.1502eV


 **********************************************************************************************************************************
 DATASETS  * FILE   NREC   LENGTH (MB)   RECORD NAMES
              1      19       20.14       500      610      700      900      950      970     1000      129      960     1100
                                          VAR    BASINP    GEOM    SYMINP    ZMAT    AOBASIS   BASIS     P2S    ABASIS      S
                                         1400     1410     1200     1210     1080     1600     1650     1700     1800
                                           T        V       H0       H01     AOSYM     SMH    MOLCAS    OPER     GRID

              2       7        8.09       200      700     1000      520     1800     3202     4202
                                        OPTIONS   GEOM     BASIS   MCVARS    GRID      RKS      RHF

 PROGRAMS   *        TOTAL       RHF       RKS       INT
 CPU TIMES  *        19.66      0.09      0.22     19.02
 REAL TIME  *        20.70 SEC
 DISK USED  *       204.11 MB
 SF USED    *         0.01 MB
 GA USED    *         0.09 MB       (max)       0.09 MB       (current)
 **********************************************************************************************************************************
   -->
   <time start="08:51:33" end="08:51:33" cpu="0.1" system="0.01" real="0.11"/>
   <storage units="megabyte" memory="8001.84" sf="0.01" df="85.87" eaf="118.24" ga="0.09"/>
  </jobstep><!--
  --><jobstep command="POP" commandset="POP">
   <!--


 PROGRAM * POP (Mulliken population analysis)


 Density matrix read from record         4202.2  Type=RHF/CHARGE (state 1.4)

 Population analysis by basis function type

 Unique atom        s        p        d        f        g    Total    Charge
   1  TA      4.00000  6.00000  3.00000  0.00000  0.00000 13.00000  +60.00000


 **********************************************************************************************************************************
 DATASETS  * FILE   NREC   LENGTH (MB)   RECORD NAMES
              1      19       20.14       500      610      700      900      950      970     1000      129      960     1100
                                          VAR    BASINP    GEOM    SYMINP    ZMAT    AOBASIS   BASIS     P2S    ABASIS      S
                                         1400     1410     1200     1210     1080     1600     1650     1700     1800
                                           T        V       H0       H01     AOSYM     SMH    MOLCAS    OPER     GRID

              2       7        8.09       200      700     1000      520     1800     3202     4202
                                        OPTIONS   GEOM     BASIS   MCVARS    GRID      RKS      RHF

 PROGRAMS   *        TOTAL       POP       RHF       RKS       INT
 CPU TIMES  *        19.67      0.01      0.09      0.22     19.02
 REAL TIME  *        20.71 SEC
 DISK USED  *       204.11 MB
 SF USED    *         0.01 MB
 GA USED    *         0.09 MB       (max)       0.09 MB       (current)
 **********************************************************************************************************************************
   -->
   <time start="08:51:33" end="08:51:33" cpu="0.01" system="0.0" real="0.01"/>
   <storage units="megabyte" memory="8001.84" sf="0.01" df="85.87" eaf="118.24" ga="0.09"/>
  </jobstep><!--
 SETTING BASIS          =    USERDEF
  --><jobstep command="MULTI" commandset="MULTI">
   <!--


 Recomputing integrals since basis changed


 Using spherical harmonics



 PROGRAM * SEWARD (Integral evaluation for generally contracted gaussian basis sets)     Author: Roland Lindh, 1990

 Geometry written to block  1 of record 700

 Orientation using atomic masses
 Molecule type: Atom
 Symmetry elements: X,Y,Z
 Rotational constants:       0.0000000      0.0000000      0.0000000 GHz  (calculated with average atomic masses)

 Point group  D2h



 ATOMIC COORDINATES

 NR  ATOM    CHARGE       X              Y              Z

   1  TA     73.00    0.000000000    0.000000000    0.000000000

 NUCLEAR CHARGE:                   73
 NUMBER OF PRIMITIVE AOS:         455
 NUMBER OF SYMMETRY AOS:          370
 NUMBER OF CONTRACTIONS:          370   (  88Ag  +  61B3u +  61B2u +  28B1g +  61B1u +  28B2g +  28B3g +  15Au  )
 NUMBER OF CORE ORBITALS:          34   (   9Ag  +   6B3u +   6B2u +   2B1g +   6B1u +   2B2g +   2B3g +   1Au  )
 NUMBER OF VALENCE ORBITALS:        6   (   3Ag  +   0B3u +   0B2u +   1B1g +   0B1u +   1B2g +   1B3g +   0Au  )


 NUCLEAR REPULSION ENERGY    0.00000000

 EXTRA SYMMETRY OF AOS IN SYMMETRY 1:   1 1 1 1 1 1 1 1 1 1   1 1 1 1 1 1 1 1 1 1   1 1 1 1 1 1 1 1 1 1   1 1 1 1 1 2 3 2 3 2
                                        3 2 3 2 3 2 3 2 3 2   3 2 3 2 3 2 3 2 3 2   3 2 3 2 3 2 3 2 3 2   3 2 3 2 3 2 3 2 3 4
                                        5 6 4 5 6 4 5 6
 EXTRA SYMMETRY OF AOS IN SYMMETRY 2:   1 1 1 1 1 1 1 1 1 1   1 1 1 1 1 1 1 1 1 1   1 1 1 1 1 1 1 1 1 1   1 2 3 2 3 2 3 2 3 2
                                        3 2 3 2 3 2 3 2 3 2   3 2 3 2 3 2 3 2 3 2   3
 EXTRA SYMMETRY OF AOS IN SYMMETRY 3:   1 1 1 1 1 1 1 1 1 1   1 1 1 1 1 1 1 1 1 1   1 1 1 1 1 1 1 1 1 1   1 2 3 2 3 2 3 2 3 2
                                        3 2 3 2 3 2 3 2 3 2   3 2 3 2 3 2 3 2 3 2   3
 EXTRA SYMMETRY OF AOS IN SYMMETRY 4:   1 1 1 1 1 1 1 1 1 1   1 1 1 1 1 1 1 1 1 1   1 1 2 3 2 3 2 3
 EXTRA SYMMETRY OF AOS IN SYMMETRY 5:   1 1 1 1 1 1 1 1 1 1   1 1 1 1 1 1 1 1 1 1   1 1 1 1 1 1 1 1 1 1   1 2 3 2 3 2 3 2 3 2
                                        3 2 3 2 3 2 3 2 3 2   3 2 3 2 3 2 3 2 3 2   3
 EXTRA SYMMETRY OF AOS IN SYMMETRY 6:   1 1 1 1 1 1 1 1 1 1   1 1 1 1 1 1 1 1 1 1   1 1 2 3 2 3 2 3
 EXTRA SYMMETRY OF AOS IN SYMMETRY 7:   1 1 1 1 1 1 1 1 1 1   1 1 1 1 1 1 1 1 1 1   1 1 2 3 2 3 2 3

 Eigenvalues of metric

         1 0.694E-06 0.139E-04 0.139E-04 0.237E-04 0.481E-04 0.143E-03 0.143E-03 0.146E-03
         2 0.469E-06 0.114E-04 0.100E-03 0.100E-03 0.132E-03 0.442E-03 0.112E-02 0.146E-02
         3 0.469E-06 0.114E-04 0.100E-03 0.100E-03 0.132E-03 0.442E-03 0.112E-02 0.146E-02
         4 0.139E-04 0.143E-03 0.607E-03 0.227E-02 0.654E-02 0.151E-01 0.281E-01 0.503E-01
         5 0.469E-06 0.114E-04 0.100E-03 0.100E-03 0.132E-03 0.442E-03 0.112E-02 0.146E-02
         6 0.139E-04 0.143E-03 0.607E-03 0.227E-02 0.654E-02 0.151E-01 0.281E-01 0.503E-01
         7 0.139E-04 0.143E-03 0.607E-03 0.227E-02 0.654E-02 0.151E-01 0.281E-01 0.503E-01
         8 0.100E-03 0.146E-02 0.736E-02 0.189E-01 0.417E-01 0.101E+00 0.199E+00 0.345E+00


 Contracted 2-electron integrals neglected if value below      1.0D-15
 AO integral compression algorithm  1   Integral accuracy      1.0D-15

     2357.199 MB (compressed) written to integral file ( 47.5%)

     Node minimum: 666.370 MB, node maximum: 856.687 MB


 NUMBER OF SORTED TWO-ELECTRON INTEGRALS:  101278730.     BUFFER LENGTH:  32768
 NUMBER OF SEGMENTS:   4  SEGMENT LENGTH:   31994552      RECORD LENGTH: 524288

 Memory used in sort:      32.55 MW

 SORT1 READ   620842336. AND WROTE    63395032. INTEGRALS IN    184 RECORDS. CPU TIME:    11.50 SEC, REAL TIME:    13.57 SEC
 SORT2 READ   190734154. AND WROTE   304061875. INTEGRALS IN   7626 RECORDS. CPU TIME:     1.51 SEC, REAL TIME:     2.46 SEC

 Node minimum:   101278730.  Node maximum:   101423660. integrals

 OPERATOR DM      FOR CENTER  0  COORDINATES:    0.000000    0.000000    0.000000


 **********************************************************************************************************************************
 DATASETS  * FILE   NREC   LENGTH (MB)   RECORD NAMES
              1      18       20.81       500      610      700      900      950      970     1001      129      960     1100
                                          VAR    BASINP    GEOM    SYMINP    ZMAT    AOBASIS   BASIS     P2S    ABASIS      S
                                         1400     1410     1200     1210     1080     1600     1650     1700
                                           T        V       H0       H01     AOSYM     SMH    MOLCAS    OPER

              2       8        8.20       200      700     1000      520     1800     3202     4202     1001
                                        OPTIONS   GEOM     BASIS   MCVARS    GRID      RKS      RHF     BASIS

 PROGRAMS   *        TOTAL       INT       POP       RHF       RKS       INT
 CPU TIMES  *       197.17    177.49      0.01      0.09      0.22     19.02
 REAL TIME  *       202.48 SEC
 DISK USED  *         4.72 GB
 SF USED    *         0.01 MB
 GA USED    *         0.09 MB       (max)       0.00 MB       (current)
 **********************************************************************************************************************************


 PROGRAM * MULTI (Direct Multiconfiguration SCF)       Authors: P.J. Knowles, H.-J. Werner (1984)     S.T. Elbert (1988)


 TOO MANY CORE OR CLOSED-SHELL ORBITALS IN SYMMETRY 8
   --><error/><!--
  --></jobstep><!--
  -->
  <input>
  <!--
 --></job><!--
--></molpro>
