<?xml version="1.0"?>
<molpro xmlns="http://www.molpro.net/schema/molpro-output"
  xmlns:xsd="http://www.w3.org/1999/XMLSchema"
  xmlns:cml="http://www.xml-cml.org/schema"
  xmlns:stm="http://www.xml-cml.org/schema"
  xmlns:xhtml="http://www.w3.org/1999/xhtml">
 <!--

 Nodes     nprocs
 nid00789    11
 Number of processes for MPI-2 version of Molpro:   nprocs(total)=   12   nprocs(compute)=   11   nprocs(helper)=    1

 Using customized tuning parameters: mindgm=7; mindgv=16; mindgc=1; mindgr=1; noblas=0; minvec=7
 default implementation of scratch files=sf

 --><job>
  <!--

 Variables initialized (889), CPU time= 0.02 sec
 Commands  initialized (702), CPU time= 0.01 sec, 572 directives.
 Default parameters read. Elapsed time= 0.12 sec

 Checking input...
 Passed
1


                                         ***  PROGRAM SYSTEM MOLPRO  ***
                                       Copyright, TTI GmbH Stuttgart, 2015
                                    Version 2015.1 linked Dec 29 2018 15:55:43


 **********************************************************************************************************************************
 LABEL *   Calculation for GdH3 atom, singlet and triplet
  64 bit mpp version                                                                     DATE: 31-Dec-22          TIME: 01:47:54
 **********************************************************************************************************************************

 SHA1:             19cd028119e0e09f93f0674bd8af7968d9b3eff6
 **********************************************************************************************************************************
  -->
  <!--

 THRESHOLDS:

 ZERO    =  1.00D-12  ONEINT  =  1.00D-12  TWOINT  =  1.00D-15  PREFAC  =  1.00D-14  LOCALI  =  1.00D-09  EORDER  =  1.00D-04
 ENERGY  =  0.00D+00  ETEST   =  0.00D+00  EDENS   =  0.00D+00  THRDEDEF=  1.00D-06  GRADIENT=  1.00D-02  STEP    =  1.00D-03
 ORBITAL =  1.00D-05  CIVEC   =  1.00D-05  COEFF   =  1.00D-04  PRINTCI =  5.00D-02  PUNCHCI =  9.90D+01  OPTGRAD =  3.00D-04
 OPTENERG=  1.00D-06  OPTSTEP =  3.00D-04  THRGRAD =  1.00D-10  COMPRESS=  1.00D-11  VARMIN  =  1.00D-07  VARMAX  =  1.00D-03
 THRDOUB =  0.00D+00  THRDIV  =  1.00D-05  THRRED  =  1.00D-07  THRPSP  =  1.00D+00  THRDC   =  1.00D-10  THRCS   =  1.00D-10
 THRNRM  =  1.00D-08  THREQ   =  0.00D+00  THRDE   =  1.00D+00  THRREF  =  1.00D-05  SPARFAC =  1.00D+00  THRDLP  =  1.00D-07
 THRDIA  =  1.00D-10  THRDLS  =  1.00D-07  THRGPS  =  0.00D+00  THRKEX  =  0.00D+00  THRDIS  =  2.00D-01  THRVAR  =  1.00D-10
 THRLOC  =  1.00D-06  THRGAP  =  1.00D-06  THRLOCT = -1.00D+00  THRGAPT = -1.00D+00  THRORB  =  1.00D-06  THRMLTP =  0.00D+00
 THRCPQCI=  1.00D-10  KEXTA   =  0.00D+00  THRCOARS=  0.00D+00  SYMTOL  =  1.00D-06  GRADTOL =  1.00D-06  THROVL  =  1.00D-08
 THRORTH =  1.00D-08  GRID    =  1.00D-06  GRIDMAX =  1.00D-03  DTMAX   =  0.00D+00  THROCCDE=  1.00D-01  THROCCDE=  1.00D-01



 THRESHOLDS:

 ZERO    =  1.00D-12  ONEINT  =  1.00D-12  TWOINT  =  1.00D-15  PREFAC  =  1.00D-14  LOCALI  =  1.00D-09  EORDER  =  1.00D-04
 ENERGY  =  0.00D+00  ETEST   =  0.00D+00  EDENS   =  0.00D+00  THRDEDEF=  1.00D-06  GRADIENT=  1.00D-02  STEP    =  1.00D-03
 ORBITAL =  1.00D-05  CIVEC   =  1.00D-05  COEFF   =  1.00D-04  PRINTCI =  5.00D-02  PUNCHCI =  9.90D+01  OPTGRAD =  3.00D-04
 OPTENERG=  1.00D-06  OPTSTEP =  3.00D-04  THRGRAD =  1.00D-10  COMPRESS=  1.00D-11  VARMIN  =  1.00D-07  VARMAX  =  1.00D-03
 THRDOUB =  0.00D+00  THRDIV  =  1.00D-05  THRRED  =  1.00D-07  THRPSP  =  1.00D+00  THRDC   =  1.00D-10  THRCS   =  1.00D-10
 THRNRM  =  1.00D-08  THREQ   =  0.00D+00  THRDE   =  1.00D+00  THRREF  =  1.00D-05  SPARFAC =  1.00D+00  THRDLP  =  1.00D-07
 THRDIA  =  1.00D-10  THRDLS  =  1.00D-07  THRGPS  =  0.00D+00  THRKEX  =  0.00D+00  THRDIS  =  2.00D-01  THRVAR  =  1.00D-10
 THRLOC  =  1.00D-06  THRGAP  =  1.00D-06  THRLOCT = -1.00D+00  THRGAPT = -1.00D+00  THRORB  =  1.00D-06  THRMLTP =  0.00D+00
 THRCPQCI=  1.00D-10  KEXTA   =  0.00D+00  THRCOARS=  0.00D+00  SYMTOL  =  1.00D-06  GRADTOL =  1.00D-06  THROVL  =  1.00D-15
 THRORTH =  1.00D-08  GRID    =  1.00D-06  GRIDMAX =  1.00D-03  DTMAX   =  0.00D+00  THROCCDE=  1.00D-01  THROCCDE=  1.00D-01



 Variable memory set to 1000000000 words,  buffer space   230000 words

 SETTING BASIS          =    USERDEF
 SETTING GD_CCSD        =      -108.94859710
 SETTING H_CCSD         =        -0.49982987
 SETTING NE             =        21.00000000
 SETTING SYMM           =         1.00000000
 SETTING SS             =         5.00000000
 SETTING A1             =         6.00000000
 SETTING B1             =         3.00000000
 SETTING B2             =         3.00000000
 SETTING A2             =         1.00000000
 ZUNIT=ANG

  --><jobstep command="RHF-SCF" commandset="SCFPRO">
   <!--


 Recomputing integrals since basis changed


 Using spherical harmonics



 PROGRAM * SEWARD (Integral evaluation for generally contracted gaussian basis sets)     Author: Roland Lindh, 1990

 Geometry written to block  1 of record 700

 Orientation using atomic masses
 Molecule type: Symmetric top,     Order of principal axis = 3
 Symmetry elements: Y,Z
 Rotational constants:      58.0321641     58.0321641     29.0160820 GHz  (calculated with average atomic masses)

 Point group  C2v


   --><cml:molecule>
    <cml:symmetry pointGroup="C2v"/>
    <cml:atomArray>
     <cml:atom id="a1" elementType="Gd" x3="-0.550785678440913E-17" y3="0.0" z3="0.0"/>
     <cml:atom id="a2" elementType="H" x3="2.4" y3="0.0" z3="0.0"/>
     <cml:atom id="a3" elementType="H" x3="-1.2" y3="-2.07846096908265" z3="0.0"/>
     <cml:atom id="a4" elementType="H" x3="-1.2" y3="2.07846096908265" z3="0.0"/>
    </cml:atomArray>
    <cml:bondArray>
     <cml:bond atomRefs2="a1 a2"/>
     <cml:bond atomRefs2="a1 a3"/>
     <cml:bond atomRefs2="a1 a4"/>
    </cml:bondArray>
   </cml:molecule><!--

 ATOMIC COORDINATES

 NR  ATOM    CHARGE       X              Y              Z

   1  GD     18.00   -0.000000000    0.000000000    0.000000000
   2  H1      1.00    4.535342699    0.000000000    0.000000000
   3  H2      1.00   -2.267671349   -3.927721992    0.000000000
   4  H3      1.00   -2.267671349    3.927721992    0.000000000

 Bond lengths in Bohr (Angstrom)

 1-2  4.535342699  1-3  4.535342699  1-4  4.535342699
     ( 2.400000000)     ( 2.400000000)     ( 2.400000000)

 Bond angles

  2-1-3  120.00000000   2-1-4  120.00000000   3-1-4  120.00000000

 NUCLEAR CHARGE:                   21
 NUMBER OF PRIMITIVE AOS:         673
 NUMBER OF SYMMETRY AOS:          519
 NUMBER OF CONTRACTIONS:          519   ( 201A1  + 130B1  + 119B2  +  69A2  )
 NUMBER OF CORE ORBITALS:           0   (   0A1  +   0B1  +   0B2  +   0A2  )
 NUMBER OF VALENCE ORBITALS:       20   (   9A1  +   5B1  +   4B2  +   2A2  )


 NUCLEAR REPULSION ENERGY   12.28838800


 Eigenvalues of metric

         1 0.113E-06 0.297E-06 0.611E-06 0.724E-06 0.725E-06 0.737E-06 0.130E-05 0.355E-05
         2 0.611E-06 0.724E-06 0.432E-05 0.133E-04 0.237E-04 0.333E-04 0.719E-04 0.108E-03
         3 0.616E-06 0.727E-06 0.439E-05 0.139E-04 0.238E-04 0.447E-04 0.883E-04 0.148E-03
         4 0.727E-06 0.238E-04 0.148E-03 0.538E-03 0.825E-03 0.912E-03 0.410E-02 0.874E-02


 Contracted 2-electron integrals neglected if value below      1.0D-15
 AO integral compression algorithm  1   Integral accuracy      1.0D-15

     9798.681 MB (compressed) written to integral file ( 51.4%)

     Node minimum: 552.600 MB, node maximum: 1138.229 MB


 NUMBER OF SORTED TWO-ELECTRON INTEGRALS:  209958844.     BUFFER LENGTH:  32768
 NUMBER OF SEGMENTS:   7  SEGMENT LENGTH:   31983120      RECORD LENGTH: 524288

 Memory used in sort:      32.54 MW

 SORT1 READ  2385076976. AND WROTE   117988482. INTEGRALS IN    341 RECORDS. CPU TIME:    50.36 SEC, REAL TIME:    73.69 SEC
 SORT2 READ  1285815469. AND WROTE  2310732286. INTEGRALS IN  40337 RECORDS. CPU TIME:     8.45 SEC, REAL TIME:    24.32 SEC

 Node minimum:   209948383.  Node maximum:   210299431. integrals

 OPERATOR DM      FOR CENTER  0  COORDINATES:    0.000000    0.000000    0.000000


 **********************************************************************************************************************************
 DATASETS  * FILE   NREC   LENGTH (MB)   RECORD NAMES
              1      19       23.13       500      610      700      900      950      970     1000      129      960     1100
                                          VAR    BASINP    GEOM    SYMINP    ZMAT    AOBASIS   BASIS     P2S    ABASIS      S
                                         1400     1410     1420     1200     1210     1080     1600     1650     1700
                                           T        V       ECP      H0       H01     AOSYM     SMH    MOLCAS    OPER

 PROGRAMS   *        TOTAL       INT
 CPU TIMES  *       202.86    202.57
 REAL TIME  *       244.45 SEC
 DISK USED  *        25.26 GB
 GA USED    *         0.00 MB       (max)       0.00 MB       (current)
 **********************************************************************************************************************************


 PROGRAM * RHF-SCF (OPEN SHELL)       Authors: W. Meyer, H.-J. Werner


 NUMBER OF ELECTRONS:      12+    8-    SPACE SYMMETRY=1    SPIN SYMMETRY: Quintet
 CONVERGENCE THRESHOLDS:    1.00E-05 (Density)    1.00E-07 (Energy)
 MAX. NUMBER OF ITERATIONS:      200
 INTERPOLATION TYPE:            DIIS
 INTERPOLATION STEPS:              2 (START)      1 (STEP)
 LEVEL SHIFTS:                 -0.60 (CLOSED) -0.30 (OPEN)

 Number of closed-shell orbitals:    8 (   4   2   2   0 )
 Number of open-shell orbitals:      4 (   1   1   1   1 )


 Guess basis ATOMIC-GUESS,GD=ECP46_GUESS not found. No density guess!


 Molecular orbital dump at record        3202.2

 ITERATION    DDIFF          GRAD             ENERGY        2-EL.EN.            DIPOLE MOMENTS         DIIS   ORB.
    1      0.000D+00      0.000D+00       -64.05001532    406.061857   -0.00161    0.00000    0.00000    0    start
    2      0.000D+00      0.234D+00       -25.22478896     36.845376   -1.15881    0.00000    0.00000    0    diag,B
    3      0.212D+00      0.447D-01       -64.11312016    405.898803    0.00266    0.00000    0.00000    1    diag,B
    4      0.212D+00      0.234D+00       -66.42438249    401.187490    0.00250    0.00000    0.00000    2    diag,B
    5      0.617D-02      0.224D+00       -69.24525643    395.191238    0.00195    0.00000    0.00000    3    diag,B
    6      0.940D-02      0.214D+00       -69.27593374    395.119349    0.00215    0.00000    0.00000    4    diag,B
    7      0.488D-03      0.214D+00       -69.41860885    394.805512    0.00211    0.00000    0.00000    5    diag,B
    8      0.768D-03      0.213D+00       -69.45788981    394.718213    0.00214    0.00000    0.00000    6    diag,B
    9      0.376D-03      0.213D+00       -69.48681970    394.654224    0.00195    0.00000    0.00000    7    diag,B
   10      0.230D-03      0.213D+00       -69.48747596    394.652782    0.00207    0.00000    0.00000    8    orth
   11      0.277D-04      0.213D+00       -69.63218544    394.334265    0.00962    0.00000    0.00000    9    diag,B
   12      0.784D-03      0.212D+00       -69.65255060    394.289423    0.00275    0.00000    0.00000    9    diag,B
   13      0.135D-03      0.212D+00       -69.19380891    395.290661   -0.00407    0.00000    0.00000    9    diag,B
   14      0.193D-02      0.214D+00       -70.10174259    393.300702    0.00224    0.00000    0.00000    9    diag,B
   15      0.351D-02      0.211D+00       -70.08749951    393.331840    0.00187    0.00000    0.00000    9    diag,B
   16      0.200D-03      0.211D+00       -70.12731551    393.244295    0.00180    0.00000    0.00000    9    diag,B
   17      0.456D-03      0.211D+00       -70.12265265    393.255144    0.00201    0.00000    0.00000    9    diag,B
   18      0.398D-03      0.211D+00       -70.08814581    393.332743    0.00135    0.00000    0.00000    9    diag,B
   19      0.437D-03      0.211D+00       -69.96457885    393.604120    0.00546    0.00000    0.00000    9    diag,B
   20      0.735D-03      0.211D+00       -69.87586861    393.799234    0.01192    0.00000    0.00000    9    orth
   21      0.994D-03      0.212D+00       -70.18744057    393.112073    0.01348    0.00000    0.00000    9    diag,B
   22      0.115D-02      0.210D+00       -69.76374343    394.047990    0.00144    0.00000    0.00000    9    diag,B
   23      0.157D-02      0.212D+00       -69.15744781    395.368366   -0.00096    0.00000    0.00000    9    diag,B
   24      0.254D-02      0.214D+00       -69.67487337    394.241108   -0.01523    0.00000    0.00000    9    diag,B
   25      0.233D-02      0.212D+00       -70.24628896    392.981890    0.00222    0.00000    0.00000    9    diag,B
   26      0.226D-02      0.210D+00       -69.31673476    395.023543    0.00714    0.00000    0.00000    9    diag,B
   27      0.318D-02      0.214D+00       -70.21457790    393.051308    0.00022    0.00000    0.00000    9    diag,B
   28      0.305D-02      0.210D+00       -69.87006252    393.813629   -0.00279    0.00000    0.00000    9    diag,B
   29      0.187D-02      0.212D+00       -69.17629941    395.331399    0.00564    0.00000    0.00000    9    diag,B
   30      0.249D-02      0.214D+00       -70.29208234    392.879326    0.00806    0.00000    0.00000    9    orth
   31      0.434D-02      0.210D+00       -70.11292372    393.277260    0.00178    0.00000    0.00000    9    diag,B
   32      0.133D-02      0.211D+00       -68.91301653    395.899045    0.00459    0.00000    0.00000    9    diag,B
   33      0.470D-02      0.215D+00       -70.10982509    393.284117    0.00790    0.00000    0.00000    9    diag,B
   34      0.555D-02      0.211D+00       -69.99132700    393.547097    0.00146    0.00000    0.00000    9    diag,B
   35      0.675D-03      0.211D+00       -69.76608560    394.036244    0.00178    0.00000    0.00000    9    diag,B
   36      0.261D-02      0.212D+00       -69.23451564    395.202884    0.01083    0.00000    0.00000    9    diag,B
   37      0.319D-02      0.214D+00       -69.72804694    394.126837    0.00199    0.00000    0.00000    9    diag,B
   38      0.186D-02      0.212D+00       -70.35605718    392.734545    0.00476    0.00000    0.00000    9    diag,B
   39      0.222D-02      0.210D+00       -69.21896461    395.228750    0.00914    0.00000    0.00000    9    diag,B
   40      0.380D-02      0.214D+00       -69.58717120    394.434717   -0.00012    0.00000    0.00000    9    orth
   41      0.166D-02      0.213D+00       -70.23683989    393.002396    0.00629    0.00000    0.00000    9    diag,B
   42      0.197D-02      0.210D+00       -69.32985426    394.987979    0.00964    0.00000    0.00000    9    diag,B
   43      0.298D-02      0.214D+00       -69.58213448    394.444450    0.00110    0.00000    0.00000    9    diag,B
   44      0.123D-02      0.213D+00       -70.03527191    393.444749    0.02231    0.00000    0.00000    9    diag,B
   45      0.164D-02      0.211D+00       -69.29570361    395.064825    0.01781    0.00000    0.00000    9    diag,B
   46      0.260D-02      0.214D+00       -69.30579901    395.047744    0.01900    0.00000    0.00000    9    diag,B
   47      0.641D-03      0.214D+00       -69.93160493    393.673554    0.02128    0.00000    0.00000    9    diag,B
   48      0.210D-02      0.211D+00       -69.46714243    394.692250    0.01496    0.00000    0.00000    9    diag,B
   49      0.191D-02      0.213D+00       -69.51105700    394.599189    0.01645    0.00000    0.00000    9    diag,B
   50      0.611D-03      0.213D+00       -69.74580950    394.081398    0.02308    0.00000    0.00000    9    orth
   51      0.138D-02      0.212D+00       -69.33818918    394.973822    0.01660    0.00000    0.00000    9    diag,B
   52      0.175D-02      0.214D+00       -69.58175426    394.444234    0.01729    0.00000    0.00000    9    diag,B
   53      0.107D-02      0.213D+00       -69.80675537    393.947556    0.02143    0.00000    0.00000    9    diag,B
   54      0.111D-02      0.212D+00       -69.29953534    395.057803    0.01625    0.00000    0.00000    9    diag,B
   55      0.193D-02      0.214D+00       -69.54829258    394.517387    0.01799    0.00000    0.00000    9    diag,B
   56      0.108D-02      0.213D+00       -69.79398974    393.975644    0.02151    0.00000    0.00000    9    diag,B
   57      0.109D-02      0.212D+00       -69.35939221    394.927638    0.01568    0.00000    0.00000    9    diag,B
   58      0.171D-02      0.214D+00       -69.54723358    394.519606    0.01806    0.00000    0.00000    9    diag,B
   59      0.900D-03      0.213D+00       -69.75684365    394.057032    0.02188    0.00000    0.00000    9    fixocc
   60      0.104D-02      0.212D+00       -69.37399474    394.896073    0.01550    0.00000    0.00000    9    orth
   61      0.156D-02      0.214D+00       -69.55713348    394.497850    0.01820    0.00000    0.00000    9    diag,B
   62      0.880D-03      0.213D+00       -69.74998343    394.071939    0.02188    0.00000    0.00000    9    diag,B
   63      0.101D-02      0.212D+00       -69.37063941    394.903593    0.01529    0.00000    0.00000    9    diag,B
   64      0.153D-02      0.214D+00       -69.55531388    394.501741    0.01844    0.00000    0.00000    9    diag,B
   65      0.881D-03      0.213D+00       -69.74875051    394.074533    0.02189    0.00000    0.00000    9    diag,B
   66      0.101D-02      0.212D+00       -69.37445886    394.895496    0.01506    0.00000    0.00000    9    diag,B
   67      0.150D-02      0.214D+00       -69.55049254    394.512186    0.01862    0.00000    0.00000    9    diag,B
   68      0.860D-03      0.213D+00       -69.74386766    394.085130    0.02195    0.00000    0.00000    9    diag,B
   69      0.102D-02      0.212D+00       -69.37891876    394.886027    0.01489    0.00000    0.00000    9    diag,B
   70      0.146D-02      0.214D+00       -69.54596258    394.521977    0.01874    0.00000    0.00000    9    orth
   71      0.844D-03      0.213D+00       -69.73980253    394.093935    0.02199    0.00000    0.00000    9    diag,B
   72      0.104D-02      0.212D+00       -69.38167030    394.880289    0.01479    0.00000    0.00000    9    diag,B
   73      0.143D-02      0.214D+00       -69.53986639    394.535177    0.01882    0.00000    0.00000    9    diag,B
   74      0.835D-03      0.213D+00       -69.73666154    394.100723    0.02201    0.00000    0.00000    9    diag,B
   75      0.106D-02      0.212D+00       -69.38501879    394.873251    0.01474    0.00000    0.00000    9    diag,B
   76      0.140D-02      0.214D+00       -69.53207781    394.552066    0.01885    0.00000    0.00000    9    diag,B
   77      0.830D-03      0.213D+00       -69.73316374    394.108303    0.02203    0.00000    0.00000    9    diag,B
   78      0.110D-02      0.212D+00       -69.38948784    394.863765    0.01476    0.00000    0.00000    9    diag,B
   79      0.136D-02      0.214D+00       -69.52325628    394.571206    0.01882    0.00000    0.00000    9    diag,B
   80      0.830D-03      0.213D+00       -69.72932328    394.116642    0.02203    0.00000    0.00000    9    orth
   81      0.113D-02      0.212D+00       -69.39481409    394.852399    0.01483    0.00000    0.00000    9    diag,B
   82      0.132D-02      0.214D+00       -69.51376041    394.591820    0.01873    0.00000    0.00000    9    diag,B
   83      0.838D-03      0.213D+00       -69.72536164    394.125251    0.02203    0.00000    0.00000    9    diag,B
   84      0.117D-02      0.212D+00       -69.40097151    394.839198    0.01497    0.00000    0.00000    9    diag,B
   85      0.128D-02      0.213D+00       -69.50394972    394.613127    0.01859    0.00000    0.00000    9    diag,B
   86      0.854D-03      0.213D+00       -69.72132665    394.134025    0.02201    0.00000    0.00000    9    diag,B
   87      0.121D-02      0.212D+00       -69.40787555    394.824342    0.01514    0.00000    0.00000    9    diag,B
   88      0.124D-02      0.213D+00       -69.49425553    394.634192    0.01842    0.00000    0.00000    9    diag,B
   89      0.875D-03      0.213D+00       -69.71729118    394.142803    0.02199    0.00000    0.00000    9    diag,B
   90      0.125D-02      0.212D+00       -69.41528424    394.808353    0.01535    0.00000    0.00000    9    orth
   91      0.120D-02      0.213D+00       -69.48504270    394.654220    0.01823    0.00000    0.00000    9    diag,B
   92      0.900D-03      0.213D+00       -69.71335564    394.151364    0.02196    0.00000    0.00000    9    diag,B
   93      0.128D-02      0.212D+00       -69.42290416    394.791871    0.01557    0.00000    0.00000    9    diag,B
   94      0.116D-02      0.213D+00       -69.47656701    394.672653    0.01803    0.00000    0.00000    9    diag,B
   95      0.927D-03      0.213D+00       -69.70959497    394.159545    0.02193    0.00000    0.00000    9    diag,B
   96      0.131D-02      0.212D+00       -69.43045224    394.775513    0.01580    0.00000    0.00000    9    diag,B
   97      0.113D-02      0.213D+00       -69.46898165    394.689158    0.01784    0.00000    0.00000    9    diag,B
   98      0.955D-03      0.213D+00       -69.70605591    394.167245    0.02189    0.00000    0.00000    9    diag,B
   99      0.133D-02      0.212D+00       -69.43769010    394.759805    0.01603    0.00000    0.00000    9    diag,B
  100      0.110D-02      0.213D+00       -69.46234608    394.703602    0.01765    0.00000    0.00000    9    orth
  101      0.982D-03      0.213D+00       -69.70276373    394.174409    0.02185    0.00000    0.00000    9    diag,B
  102      0.135D-02      0.212D+00       -69.44444909    394.745116    0.01624    0.00000    0.00000    9    diag,B
  103      0.107D-02      0.213D+00       -69.45664442    394.716019    0.01747    0.00000    0.00000    9    diag,B
  104      0.101D-02      0.213D+00       -69.69972512    394.181022    0.02180    0.00000    0.00000    9    diag,B
  105      0.136D-02      0.212D+00       -69.45063513    394.731658    0.01644    0.00000    0.00000    9    diag,B
  106      0.104D-02      0.213D+00       -69.45181002    394.726553    0.01731    0.00000    0.00000    9    diag,B
  107      0.103D-02      0.213D+00       -69.69693280    394.187102    0.02176    0.00000    0.00000    9    diag,B
  108      0.138D-02      0.212D+00       -69.45621724    394.719502    0.01663    0.00000    0.00000    9    diag,B
  109      0.102D-02      0.213D+00       -69.44774810    394.735408    0.01717    0.00000    0.00000    9    diag,B
  110      0.105D-02      0.213D+00       -69.69437063    394.192683    0.02172    0.00000    0.00000    9    orth
  111      0.138D-02      0.212D+00       -69.46121006    394.708618    0.01680    0.00000    0.00000    9    diag,B
  112      0.998D-03      0.213D+00       -69.44435344    394.742813    0.01704    0.00000    0.00000    9    diag,B
  113      0.107D-02      0.213D+00       -69.69201754    394.197811    0.02168    0.00000    0.00000    9    diag,B
  114      0.139D-02      0.212D+00       -69.46565675    394.698916    0.01695    0.00000    0.00000    9    diag,B
  115      0.981D-03      0.213D+00       -69.44152250    394.748992    0.01692    0.00000    0.00000    9    diag,B
  116      0.109D-02      0.213D+00       -69.68985027    394.202536    0.02163    0.00000    0.00000    9    diag,B
  117      0.139D-02      0.212D+00       -69.46961500    394.690272    0.01709    0.00000    0.00000    9    diag,B
  118      0.967D-03      0.213D+00       -69.43916055    394.754151    0.01682    0.00000    0.00000    9    diag,B
  119      0.111D-02      0.213D+00       -69.68784527    394.206911    0.02160    0.00000    0.00000    9    diag,B
  120      0.140D-02      0.212D+00       -69.47314732    394.682550    0.01722    0.00000    0.00000    9    orth
  121      0.954D-03      0.213D+00       -69.43718496    394.758470    0.01672    0.00000    0.00000    9    diag,B
  122      0.112D-02      0.213D+00       -69.68597994    394.210984    0.02156    0.00000    0.00000    9    diag,B
  123      0.140D-02      0.212D+00       -69.47631475    394.675620    0.01733    0.00000    0.00000    9    diag,B
  124      0.944D-03      0.213D+00       -69.43552590    394.762101    0.01663    0.00000    0.00000    9    diag,B
  125      0.113D-02      0.213D+00       -69.68423340    394.214800    0.02152    0.00000    0.00000    9    diag,B
  126      0.140D-02      0.212D+00       -69.47917348    394.669360    0.01743    0.00000    0.00000    9    diag,B
  127      0.935D-03      0.213D+00       -69.43412561    394.765168    0.01656    0.00000    0.00000    9    diag,B
  128      0.115D-02      0.213D+00       -69.68258688    394.218399    0.02149    0.00000    0.00000    9    diag,B
  129      0.140D-02      0.212D+00       -69.48177324    394.663662    0.01753    0.00000    0.00000    9    diag,B
  130      0.927D-03      0.213D+00       -69.43293701    394.767774    0.01648    0.00000    0.00000    9    orth
  131      0.116D-02      0.213D+00       -69.68102393    394.221819    0.02146    0.00000    0.00000    9    diag,B
  132      0.139D-02      0.212D+00       -69.48415689    394.658433    0.01761    0.00000    0.00000    9    diag,B
  133      0.920D-03      0.213D+00       -69.43192207    394.770002    0.01642    0.00000    0.00000    9    diag,B
  134      0.117D-02      0.213D+00       -69.67953034    394.225089    0.02142    0.00000    0.00000    9    diag,B
  135      0.139D-02      0.212D+00       -69.48636070    394.653594    0.01769    0.00000    0.00000    9    diag,B
  136      0.914D-03      0.213D+00       -69.43105021    394.771918    0.01636    0.00000    0.00000    9    diag,B
  137      0.117D-02      0.213D+00       -69.67809407    394.228235    0.02139    0.00000    0.00000    9    diag,B
  138      0.139D-02      0.212D+00       -69.48841495    394.649081    0.01777    0.00000    0.00000    9    diag,B
  139      0.909D-03      0.213D+00       -69.43029692    394.773577    0.01630    0.00000    0.00000    9    diag,B
  140      0.118D-02      0.213D+00       -69.67670501    394.231279    0.02136    0.00000    0.00000    9    orth
  141      0.139D-02      0.212D+00       -69.49034466    394.644838    0.01783    0.00000    0.00000    9    diag,B
  142      0.905D-03      0.213D+00       -69.42964257    394.775019    0.01624    0.00000    0.00000    9    diag,B
  143      0.119D-02      0.213D+00       -69.67535480    394.234240    0.02133    0.00000    0.00000    9    diag,B
  144      0.138D-02      0.212D+00       -69.49217035    394.640821    0.01790    0.00000    0.00000    9    diag,B
  145      0.901D-03      0.213D+00       -69.42907139    394.776280    0.01619    0.00000    0.00000    9    diag,B
  146      0.120D-02      0.213D+00       -69.67403657    394.237132    0.02130    0.00000    0.00000    9    diag,B
  147      0.138D-02      0.212D+00       -69.49390874    394.636994    0.01796    0.00000    0.00000    9    diag,B
  148      0.897D-03      0.213D+00       -69.42857075    394.777387    0.01615    0.00000    0.00000    9    diag,B
  149      0.120D-02      0.213D+00       -69.67274474    394.239967    0.02127    0.00000    0.00000    9    diag,B
  150      0.138D-02      0.212D+00       -69.49557342    394.633327    0.01802    0.00000    0.00000    9    orth
  151      0.894D-03      0.213D+00       -69.42813044    394.778362    0.01610    0.00000    0.00000    9    diag,B
  152      0.121D-02      0.213D+00       -69.67147483    394.242755    0.02124    0.00000    0.00000    9    diag,B
  153      0.137D-02      0.212D+00       -69.49717537    394.629797    0.01807    0.00000    0.00000    9    diag,B
  154      0.891D-03      0.213D+00       -69.42774223    394.779224    0.01606    0.00000    0.00000    9    diag,B
  155      0.122D-02      0.213D+00       -69.67022325    394.245504    0.02122    0.00000    0.00000    9    diag,B
  156      0.137D-02      0.212D+00       -69.49872343    394.626385    0.01813    0.00000    0.00000    9    diag,B
  157      0.888D-03      0.213D+00       -69.42739945    394.779986    0.01602    0.00000    0.00000    9    diag,B
  158      0.122D-02      0.213D+00       -69.66898716    394.248219    0.02119    0.00000    0.00000    9    diag,B
  159      0.136D-02      0.212D+00       -69.50022474    394.623074    0.01818    0.00000    0.00000    9    diag,B
  160      0.886D-03      0.213D+00       -69.42709664    394.780661    0.01598    0.00000    0.00000    9    orth
  161      0.123D-02      0.213D+00       -69.66776433    394.250906    0.02116    0.00000    0.00000    9    diag,B
  162      0.136D-02      0.212D+00       -69.50168503    394.619853    0.01822    0.00000    0.00000    9    diag,B
  163      0.884D-03      0.213D+00       -69.42682936    394.781258    0.01594    0.00000    0.00000    9    diag,B
  164      0.123D-02      0.213D+00       -69.66655302    394.253568    0.02113    0.00000    0.00000    9    diag,B
  165      0.136D-02      0.212D+00       -69.50310890    394.616711    0.01827    0.00000    0.00000    9    diag,B
  166      0.882D-03      0.213D+00       -69.42659393    394.781786    0.01591    0.00000    0.00000    9    diag,B
  167      0.123D-02      0.213D+00       -69.66535189    394.256208    0.02110    0.00000    0.00000    9    diag,B
  168      0.135D-02      0.212D+00       -69.50450007    394.613641    0.01832    0.00000    0.00000    9    diag,B
  169      0.880D-03      0.213D+00       -69.42638733    394.782250    0.01587    0.00000    0.00000    9    diag,B
  170      0.124D-02      0.213D+00       -69.66415991    394.258828    0.02108    0.00000    0.00000    9    orth
  171      0.135D-02      0.212D+00       -69.50586152    394.610636    0.01836    0.00000    0.00000    9    diag,B
  172      0.879D-03      0.213D+00       -69.42620700    394.782657    0.01584    0.00000    0.00000    9    diag,B
  173      0.124D-02      0.213D+00       -69.66297632    394.261430    0.02105    0.00000    0.00000    9    diag,B
  174      0.134D-02      0.212D+00       -69.50719567    394.607691    0.01840    0.00000    0.00000    9    diag,B
  175      0.877D-03      0.213D+00       -69.42605083    394.783011    0.01581    0.00000    0.00000    9    diag,B
  176      0.125D-02      0.213D+00       -69.66180051    394.264015    0.02102    0.00000    0.00000    9    diag,B
  177      0.134D-02      0.212D+00       -69.50850451    394.604801    0.01844    0.00000    0.00000    9    diag,B
  178      0.876D-03      0.213D+00       -69.42591701    394.783316    0.01578    0.00000    0.00000    9    diag,B
  179      0.125D-02      0.213D+00       -69.66063204    394.266585    0.02099    0.00000    0.00000    9    diag,B
  180      0.133D-02      0.212D+00       -69.50978965    394.601963    0.01848    0.00000    0.00000    9    orth
  181      0.874D-03      0.213D+00       -69.42580399    394.783576    0.01575    0.00000    0.00000    9    diag,B
  182      0.125D-02      0.213D+00       -69.65947059    394.269139    0.02096    0.00000    0.00000    9    diag,B
  183      0.133D-02      0.212D+00       -69.51105244    394.599174    0.01852    0.00000    0.00000    9    diag,B
  184      0.873D-03      0.213D+00       -69.42571043    394.783792    0.01572    0.00000    0.00000    9    diag,B
  185      0.126D-02      0.213D+00       -69.65831590    394.271679    0.02094    0.00000    0.00000    9    diag,B
  186      0.132D-02      0.212D+00       -69.51229403    394.596432    0.01856    0.00000    0.00000    9    diag,B
  187      0.872D-03      0.213D+00       -69.42563517    394.783969    0.01570    0.00000    0.00000    9    diag,B
  188      0.126D-02      0.213D+00       -69.65716777    394.274204    0.02091    0.00000    0.00000    9    diag,B
  189      0.132D-02      0.212D+00       -69.51351537    394.593734    0.01860    0.00000    0.00000    9    diag,B
  190      0.871D-03      0.213D+00       -69.42557718    394.784108    0.01567    0.00000    0.00000    9    orth
  191      0.126D-02      0.213D+00       -69.65602604    394.276715    0.02088    0.00000    0.00000    9    diag,B
  192      0.131D-02      0.212D+00       -69.51471733    394.591078    0.01863    0.00000    0.00000    9    diag,B
  193      0.870D-03      0.213D+00       -69.42553556    394.784211    0.01565    0.00000    0.00000    9    diag,B
  194      0.127D-02      0.213D+00       -69.65489058    394.279213    0.02086    0.00000    0.00000    9    diag,B
  195      0.131D-02      0.212D+00       -69.51590065    394.588464    0.01867    0.00000    0.00000    9    diag,B
  196      0.869D-03      0.213D+00       -69.42550948    394.784280    0.01562    0.00000    0.00000    9    diag,B
  197      0.127D-02      0.213D+00       -69.65376126    394.281697    0.02083    0.00000    0.00000    9    diag,B
  198      0.130D-02      0.212D+00       -69.51706602    394.585889    0.01870    0.00000    0.00000    9    diag,B
  199      0.869D-03      0.213D+00       -69.37985317    394.886293    0.01887    0.00000    0.00000    9    orth
     Orbital  1.1 strongly deviates from fixed occupation: 0.39514  (now: 2.00)
     Orbital  2.1 strongly deviates from fixed occupation: 1.20888  (now: 2.00)
     Orbital  3.1 strongly deviates from fixed occupation: 1.17704  (now: 2.00)
     Orbital  4.1 strongly deviates from fixed occupation: 0.37786  (now: 2.00)
     Orbital  5.1 strongly deviates from fixed occupation: 0.37155  (now: 1.00)
     Orbital  1.2 strongly deviates from fixed occupation: 1.24480  (now: 2.00)
     Orbital  2.2 strongly deviates from fixed occupation: 1.20626  (now: 2.00)
     Orbital  3.2 strongly deviates from fixed occupation: 0.39170  (now: 1.00)
     Orbital  1.3 strongly deviates from fixed occupation: 1.24147  (now: 2.00)
     Orbital  2.3 strongly deviates from fixed occupation: 1.24195  (now: 2.00)
     Orbital  3.3 strongly deviates from fixed occupation: 0.39340  (now: 1.00)
     Orbital  1.4 strongly deviates from fixed occupation: 0.62722  (now: 1.00)
     Note:  Use {hf,nitord=N} to fix occupations at iteration N
            Use {gthresh,occdev=1.0} to suppress deviation warnings
  200      0.147D-02      0.213D+00       -46.47878754    239.358216   -0.26730    0.00000    0.00000    0    orth

 Final alpha occupancy:   5   3   3   1
 Final beta  occupancy:   4   2   2   0

 !RHF STATE 1.1 Energy                -46.478787537143
   --><property name="Energy" method="RHF" principal="true" stateSymmetry="1" stateNumber="1"
     value="-46.4787875371429"/><!--
 Nuclear energy                        12.28838800
 One-electron energy                 -178.44628363
 Two-electron energy                  119.67910809
 Virial quotient                       -0.18857085
 !RHF STATE 1.1 Dipole moment          -0.26729850     0.00000000     0.00000000
 Dipole moment /Debye                  -0.67936051     0.00000000     0.00000000
   --><property name="Dipole moment" method="RHF" principal="true" stateSymmetry="1"
     stateNumber="1" value="-0.267298496089325 0.0 0.0"/><!--

 ELECTRON ORBITALS
 =================


   Orb  Occ    Energy  Couls-En    Coefficients

                                   1 1s      1 1s      1 1s      1 1s      1 1s      1 1s      1 1s      1 1s      1 1s      1 1s
                                   1 1s      1 1s      1 1s      1 1s      1 1s      1 1s      1 1s      1 1s      1 1s      1 1s
                                   1 1s      1 1s      1 1s      1 1s      1 1s      1 1s      1 1s      1 1s      1 1s      1 1s
                                   1 1s      1 1s      1 2px     1 2px     1 2px     1 2px     1 2px     1 2px     1 2px     1 2px
                                   1 2px     1 2px     1 2px     1 2px     1 2px     1 2px     1 2px     1 2px     1 2px     1 2px
                                   1 2px     1 2px     1 2px     1 2px     1 2px     1 2px     1 2px     1 2px     1 2px     1 2px
                                   1 2px     1 2px     1 3d0     1 3d2+    1 3d0     1 3d2+    1 3d0     1 3d2+    1 3d0     1 3d2+
                                   1 3d0     1 3d2+    1 3d0     1 3d2+    1 3d0     1 3d2+    1 3d0     1 3d2+    1 3d0     1 3d2+
                                   1 3d0     1 3d2+    1 3d0     1 3d2+    1 3d0     1 3d2+    1 3d0     1 3d2+    1 3d0     1 3d2+
                                   1 3d0     1 3d2+    1 3d0     1 3d2+    1 3d0     1 3d2+    1 3d0     1 3d2+    1 3d0     1 3d2+
                                   1 3d0     1 3d2+    1 3d0     1 3d2+    1 3d0     1 3d2+    1 4f1+    1 4f3+    1 4f1+    1 4f3+
                                   1 4f1+    1 4f3+    1 4f1+    1 4f3+    1 4f1+    1 4f3+    1 4f1+    1 4f3+    1 4f1+    1 4f3+
                                   1 4f1+    1 4f3+    1 4f1+    1 4f3+    1 4f1+    1 4f3+    1 4f1+    1 4f3+    1 4f1+    1 4f3+
                                   1 4f1+    1 4f3+    1 4f1+    1 4f3+    1 5g0     1 5g4+    1 5g2+    1 5g0     1 5g4+    1 5g2+
                                   1 5g0     1 5g4+    1 5g2+    1 5g0     1 5g4+    1 5g2+    1 5g0     1 5g4+    1 5g2+    1 5g0
                                   1 5g4+    1 5g2+    1 5g0     1 5g4+    1 5g2+    1 5g0     1 5g4+    1 5g2+    1 5g0     1 5g4+
                                   1 5g2+    1 6h1+    1 6h3+    1 6h5+    1 6h1+    1 6h3+    1 6h5+    1 6h1+    1 6h3+    1 6h5+
                                   2 1s      2 1s      2 1s      2 1s      2 1s      2 1s      2 2px     2 2px     2 2px     2 3d0
                                   2 3d2+    2 3d0     2 3d2+    3 1s      3 1s      3 1s      3 1s      3 1s      3 1s      3 2px
                                   3 2py     3 2px     3 2py     3 2px     3 2py     3 3d0     3 3d2+    3 3d2-    3 3d0     3 3d2+
                                   3 3d2-

   1.1   2     1.8619   -3.3385  0.000000 -0.000000  0.000000 -0.000001 -0.000003 -0.000011 -0.000023 -0.000051  0.000021 -0.000075
                                 0.000811  0.004199  0.008123 -0.017873 -0.060295  0.013961 -0.181836 -0.614123 -1.031666  0.000001
                                 0.000006  0.000018  0.000053 -0.001289 -0.007353  0.064361  0.164894  0.087820  0.999856  0.013494
                                -0.004722  0.001006 -0.000003  0.000012 -0.000047  0.000141 -0.000189  0.000247 -0.000536  0.001532
                                -0.006267  0.057476  0.626874  0.870450  6.010632  7.110962 22.405545 17.661629-21.593150 27.782291
                                -9.131684 -0.231781 -0.900775 -4.689401 -7.227411 -8.862905-23.228920  4.106230 12.412527-10.219614
                                -1.117822  0.199484  0.000001 -0.000012 -0.000005  0.000063  0.000021 -0.000265 -0.000113  0.001408
                                 0.002088 -0.026016  0.018995 -0.236831 -0.039178  0.492051  0.015123 -0.193138  0.050348 -0.612586
                                 0.058666 -0.797355 -0.004983  0.062101 -0.036262  0.452316  0.054566 -0.682600 -0.035880  0.436444
                                -0.039891  0.533266 -0.140070  1.574987  0.244023  2.430351 -0.063304  6.229265  0.059132 -3.356355
                                 0.008597  0.904296  0.002120 -0.351275 -0.000880  0.095016 -0.000007 -0.000000  0.000053  0.000002
                                -0.000380 -0.000015  0.004466 -0.000030  0.033133  0.000288  0.025665 -0.000065 -0.070787 -0.007340
                                -0.014162 -0.000280 -0.038228 -0.000319  0.235834  0.012812 -1.598914 -0.077458 -1.025638 -0.024746
                                 0.453247 -0.004663 -0.086845 -0.008963 -0.000030  0.000971  0.000176  0.000113 -0.003780 -0.000681
                                -0.000315  0.010577  0.001989  0.000776 -0.027177 -0.005496 -0.002284  0.067956  0.016496  0.006461
                                -0.186025 -0.041444 -0.020799  0.651807 -0.096663  0.002359  0.540438 -0.627423 -0.003479 -0.242755
                                 0.176132  0.000114  0.000060  0.000144 -0.000252  0.000125 -0.000537  0.000812  0.000022  0.001950
                                -0.000108  0.004978 -0.030983  0.381546-11.782841  0.332145 -0.006459  0.596935  4.729307 -0.014268
                                 0.026890  0.286114 -0.506443  0.000101 -0.003566  0.024395 -0.272148  8.701401 -0.010773  0.008310
                                -0.010561 -0.071720  0.564867  2.126063  2.802780  0.010415  0.006036 -0.019078 -0.209478 -0.100978
                                 0.376550

   2.1   2     6.6173   -3.7567 -0.000000  0.000001 -0.000005  0.000098  0.000430  0.001335  0.002822  0.006287 -0.002528  0.009078
                                -0.097496 -0.472615 -0.958396  2.146722  6.545512 -2.103970 -2.674352 -0.730427 -1.138012 -0.000171
                                -0.000773 -0.002282 -0.006487  0.153577  0.822722 -7.248057  2.952333  1.271613  0.972489  0.006625
                                -0.002556  0.000569 -0.000000  0.000001 -0.000006  0.000017 -0.000022  0.000029 -0.000063  0.000181
                                -0.000744  0.006854  0.075591  0.106970  0.765365  1.002081  3.699343  3.084534 -3.718478  3.273080
                                 0.217294 -0.027771 -0.109379 -0.592284 -0.979313 -1.393318 -3.963015 -0.065462 -0.285566  0.217485
                                 0.015418 -0.002553  0.000006  0.000010 -0.000030 -0.000050  0.000124  0.000210 -0.000662 -0.001124
                                 0.012340  0.020949  0.114058  0.193990 -0.243062 -0.415365  0.099669  0.172506  0.332418  0.599359
                                 0.225684  0.691339 -0.029577 -0.050229 -0.219460 -0.373631  0.335100  0.571668 -0.239495 -0.419272
                                -0.238952 -0.496359 -0.481887 -1.722798  0.491566  1.972758 -0.148838 -0.068462  0.098897  0.010435
                                 0.011408  0.003402  0.002218  0.001284 -0.000928 -0.000532 -0.000185 -0.000039  0.001357  0.000285
                                -0.006397 -0.001339  0.310337  0.065692  1.582765  0.335688  1.683725  0.362379 -1.708985 -0.426435
                                -0.477385 -0.100700 -1.568155 -0.333682  1.529477  0.443893 -0.917049 -0.252863  0.202515  0.033721
                                -0.125792 -0.034661  0.043196 -0.004842 -0.000330  0.001240 -0.000935  0.001118 -0.004654  0.003687
                                -0.003915  0.015501 -0.011865  0.011916 -0.050039  0.038728 -0.053523  0.209297 -0.158261  0.073234
                                -0.266931  0.212676 -0.024901  0.016807 -0.059013 -0.015169  0.208626 -0.116118  0.002080 -0.047738
                                 0.034588  0.000499  0.000325  0.000568 -0.001930 -0.001671 -0.002071  0.010705  0.003482  0.010823
                                -0.000149 -0.002812 -0.066824  0.156815 -1.317454  0.098729  0.025030 -0.220502  0.440781 -0.034090
                                 0.058313 -0.046105  0.095022  0.000231  0.002745  0.087446 -0.163756  1.250172  0.236621  0.011123
                                 0.036429 -0.136585 -0.257498  0.177533  0.373257  0.046941  0.058920 -0.062058  0.074234  0.088975
                                -0.099544

   3.1   2     6.7107   -3.4100  0.000001 -0.000004  0.000022 -0.000407 -0.001787 -0.005551 -0.011737 -0.026146  0.010516 -0.037768
                                 0.405698  1.970380  4.018794 -9.106227-28.351496  9.340001 11.449666  2.814728  4.893998  0.000713
                                 0.003214  0.009491  0.026978 -0.639091 -3.435593 31.204220-13.097674 -4.900698 -4.070125 -0.021684
                                 0.008656 -0.001948  0.000000 -0.000001  0.000003 -0.000009  0.000011 -0.000015  0.000032 -0.000093
                                 0.000380 -0.003497 -0.038406 -0.054041 -0.386469 -0.497753 -1.092858  0.099139 -0.464755  0.460874
                                 0.169708  0.014142  0.055449  0.299236  0.489054  0.581445  0.701084 -0.057997 -0.208627  0.167302
                                 0.014892 -0.002593 -0.000018  0.000000  0.000091 -0.000002 -0.000383  0.000009  0.002044 -0.000047
                                -0.038072  0.000874 -0.351861  0.007996  0.749286 -0.016747 -0.305979  0.006595 -1.003508  0.017422
                                -0.868958  0.104442  0.091242 -0.002087  0.676915 -0.015296 -1.033203  0.023145  0.728086 -0.013373
                                 0.748632 -0.028271  2.060542 -0.318510 -2.129897  0.368910  0.608045 -0.019533 -0.409250  0.007155
                                -0.062044  0.003060 -0.005127 -0.000176  0.002784 -0.000006 -0.000040  0.000185  0.000295 -0.001356
                                -0.001403  0.006387  0.066488 -0.311270  0.341026 -1.594630  0.361557 -1.717821 -0.359433  1.973249
                                -0.103531  0.480053 -0.339185  1.588274  0.320132 -2.042570 -0.190058  1.163551  0.051467 -0.159068
                                -0.030461  0.159228  0.009605  0.019978  0.001334  0.000209 -0.000229 -0.005038 -0.000962  0.000940
                                 0.016731  0.002888 -0.002978 -0.054548 -0.010408  0.009878  0.239446  0.043577 -0.036757 -0.329274
                                -0.056979  0.048333  0.110658  0.005950 -0.015600  0.071155  0.037213 -0.019654 -0.010410 -0.008582
                                 0.005823  0.000243 -0.000777  0.000055 -0.000230  0.003178  0.001106  0.002638 -0.020859  0.003737
                                -0.000316 -0.002418 -0.105695  0.149161 -0.946839 -0.666738  0.048547 -0.349477  0.301976 -0.060011
                                 0.109221 -0.103267  0.162662 -0.000330 -0.002345 -0.108902  0.133390 -0.779325 -0.893364 -0.028594
                                -0.045580  0.187119  0.319347 -0.124596 -0.205286 -0.061914 -0.053883  0.101504 -0.118342 -0.083444
                                 0.155698

   4.1   2    11.4313    4.8584 -0.000000  0.000001 -0.000005  0.000092  0.000403  0.001252  0.002652  0.005928 -0.002399  0.008727
                                -0.095102 -0.474563 -1.000827  2.091759  5.470891 -1.556763 -1.384342 -0.153129 -0.633969 -0.000161
                                -0.000725 -0.002142 -0.006110  0.150833  0.839624 -6.306615  2.042091  0.112508  0.453363 -0.002027
                                 0.000561 -0.000109 -0.000000  0.000001 -0.000004  0.000013 -0.000017  0.000023 -0.000049  0.000140
                                -0.000578  0.005355  0.059765  0.086229  0.637194  0.883021  2.987476  2.278486 -2.752857  2.443876
                                 0.441076 -0.021805 -0.087127 -0.489935 -0.845011 -1.212566 -3.055146 -0.100915 -0.470993  0.286946
                                 0.025058 -0.004270  0.000003  0.000003 -0.000017 -0.000016  0.000073  0.000068 -0.000393 -0.000365
                                 0.007359  0.006859  0.068509  0.064390 -0.147867 -0.141836  0.062251  0.063111  0.164072  0.260626
                                 0.136271  0.468062 -0.017675 -0.016504 -0.132133 -0.124860  0.202798  0.193462 -0.137757 -0.164916
                                -0.110506 -0.267233 -0.339332 -1.233591  0.359730  1.447283 -0.074847  0.073029  0.057131 -0.046166
                                 0.010933  0.005913  0.000225 -0.002323 -0.000273  0.000601 -0.000711 -0.000165  0.005418  0.001253
                                -0.045183 -0.010453  0.224859  0.052218  3.239107  0.756143  2.926976  0.699418 -1.453926 -0.388598
                                -1.485349 -0.344995 -4.499307 -1.054543  1.176516  0.360306 -0.702017 -0.207637  0.129964  0.013924
                                -0.094135 -0.025019  0.035237 -0.002564 -0.000468  0.001790 -0.001334  0.002612 -0.009173  0.006560
                                -0.008235  0.030090 -0.022153  0.034523 -0.123211  0.090922 -0.048681  0.172058 -0.130159  0.051939
                                -0.173097  0.139607 -0.015097 -0.008378 -0.028370 -0.016839  0.180719 -0.102978  0.002212 -0.036559
                                 0.027080 -0.000354  0.000434 -0.000172  0.001751 -0.000660  0.000561 -0.014831  0.000327 -0.012323
                                -0.000964  0.035981 -0.090628  0.150796 -1.115588  0.113339  0.016792 -0.153022  0.348190 -0.016763
                                 0.028954 -0.037029  0.075919  0.001148 -0.041610  0.111925 -0.157910  1.108302  0.128517  0.008674
                                 0.022677 -0.098247 -0.180207  0.142733  0.303281  0.024162  0.028928 -0.033425  0.061970  0.074212
                                -0.081495

   5.1   +     0.9657   -4.3884 -0.000000  0.000000 -0.000000  0.000006  0.000027  0.000085  0.000179  0.000396 -0.000158  0.000559
                                -0.005884 -0.026763 -0.048831  0.101477  0.304325 -0.129234 -2.305205 -0.645949 -0.577191 -0.000011
                                -0.000049 -0.000145 -0.000409  0.009161  0.045044 -0.334224  0.453639  3.192970  0.386563 -0.002659
                                 0.000577 -0.000088  0.000002 -0.000007  0.000027 -0.000083  0.000111 -0.000145  0.000315 -0.000899
                                 0.003678 -0.033705 -0.366882 -0.505507 -3.362047 -4.204611-12.496488-10.413428 17.985717-26.520977
                                19.177908  0.135818  0.526217  2.646104  4.111479  5.020809 13.236971 -8.082961-26.181273 21.209006
                                 2.130292 -0.371856  0.000000 -0.000004 -0.000001  0.000022  0.000003 -0.000093 -0.000018  0.000495
                                 0.000325 -0.009156  0.002953 -0.083777 -0.006111  0.176196  0.002440 -0.071578  0.007676 -0.247453
                                 0.008392 -0.363387 -0.000776  0.021883 -0.005632  0.160469  0.008482 -0.243503 -0.005535  0.169447
                                -0.006762  0.227944 -0.010785  1.572827 -0.057389 -4.030730 -0.301586 -2.259794  0.159035  1.733941
                                -0.017254 -0.204712  0.010322  0.113576 -0.002903 -0.031320 -0.000002  0.000000  0.000014 -0.000001
                                -0.000111  0.000007  0.000727 -0.000282  0.007254 -0.001552  0.004289 -0.001218 -0.016471 -0.001673
                                -0.003633  0.000526 -0.009112  0.001736  0.033411 -0.007482  0.105977  0.055860  1.808692  0.167193
                                -0.919979 -0.056628  0.206714  0.002718  0.000005 -0.000650 -0.000013 -0.000022  0.002516  0.000049
                                 0.000062 -0.007003 -0.000156 -0.000176  0.017745  0.000521  0.000337 -0.044604 -0.002001 -0.001256
                                 0.116353  0.010413  0.005485 -0.295311 -0.048892  0.029205 -0.660315  0.650553 -0.002775  0.146376
                                -0.276842  0.000026  0.000055  0.000015  0.000099  0.000128 -0.000017 -0.000553  0.000027 -0.000120
                                -0.000092  0.001669 -0.003975  0.158217  6.820131 -1.037047  0.006633  0.000768 -2.828467  0.005631
                                -0.010006 -0.069503  0.079313  0.000112  0.000342  0.003882 -0.042067 -5.678099  0.935848  0.002856
                                 0.004465 -0.089817  0.040877 -0.656879 -2.224952 -0.004142 -0.007010  0.003801  0.058097  0.158879
                                 0.024220

   6.1   0    -0.3294   -4.9133 -0.000000  0.000000 -0.000000  0.000005  0.000022  0.000068  0.000144  0.000322 -0.000127  0.000222
                                 0.001338  0.034200 -0.024197  0.014673  0.097233  0.031998 -0.333042 -0.502449 -0.604902 -0.000009
                                -0.000039 -0.000117 -0.000332 -0.003877 -0.038864 -0.071695  0.085839  0.450702  0.632837 -0.001064
                                 0.000538 -0.000161  0.000000 -0.000000  0.000000 -0.000000  0.000000 -0.000000  0.000000 -0.000000
                                 0.000001 -0.000005 -0.000055 -0.000097 -0.001501  0.000448 -0.002005 -0.004021  0.004057  0.015400
                                 0.016466  0.000020  0.000083  0.001020  0.001005  0.000248 -0.000689 -0.002487 -0.014101  0.021025
                                 0.000339 -0.000030  0.000000  0.000000 -0.000000 -0.000000  0.000001  0.000000 -0.000005 -0.000002
                                 0.000098  0.000029  0.000921  0.000289 -0.002478 -0.000814  0.001780  0.000273  0.002631  0.000577
                                -0.002833 -0.001089 -0.000235 -0.000070 -0.001803 -0.000588  0.003035  0.001022 -0.002286  0.000006
                                -0.007159 -0.001583  0.012967  0.002873  0.018015  0.005259  0.022960  0.006587 -0.008416 -0.001992
                                 0.015763  0.004349 -0.002605 -0.000757  0.000555  0.000165  0.000000  0.000000 -0.000000 -0.000001
                                 0.000001  0.000008  0.000002  0.000039 -0.000012 -0.000167  0.000027 -0.000073  0.000354  0.002336
                                 0.000015  0.000166  0.000026  0.000388 -0.000785 -0.007358 -0.002248 -0.017723 -0.001766 -0.017579
                                 0.000100  0.001166 -0.000586 -0.004829  0.000000  0.000003 -0.000001  0.000035  0.000014  0.000004
                                -0.000044 -0.000001 -0.000015  0.000040  0.000003  0.000062  0.000371 -0.000056  0.000134 -0.001584
                                 0.000365 -0.000277 -0.001560  0.000985 -0.000398 -0.000975  0.000963 -0.000290 -0.001011  0.000567
                                -0.000256 -0.000000  0.000008  0.000000 -0.000005 -0.000039 -0.000003  0.000018  0.000133  0.000001
                                 0.001640  0.017985  0.077140  0.183986  0.200426  0.053939  0.001187  0.011252  0.009066  0.000194
                                -0.000411 -0.000404  0.000139  0.003748  0.041119  0.176330  0.422327  0.462655  0.127625 -0.001328
                                -0.002394 -0.012216 -0.021792 -0.009958 -0.016835  0.000425  0.000466 -0.000733 -0.000869 -0.000433
                                 0.000392

   7.1   0    -0.3241   -4.8235  0.000000 -0.000000  0.000000 -0.000001 -0.000005 -0.000015 -0.000031 -0.000070  0.000028 -0.000052
                                -0.000186 -0.006477  0.005541 -0.004360 -0.022677 -0.006199  0.065194  0.099549  0.122742  0.000002
                                 0.000009  0.000025  0.000072  0.000649  0.007156  0.018243 -0.016331 -0.088026 -0.128173  0.000326
                                -0.000156  0.000044  0.000000 -0.000000  0.000000 -0.000000  0.000000 -0.000000  0.000000 -0.000000
                                 0.000002 -0.000017 -0.000193 -0.000372 -0.006998  0.003441 -0.005963 -0.017175  0.019186  0.071726
                                 0.075897  0.000069  0.000296  0.004648  0.004268 -0.000547 -0.008692 -0.010926 -0.062496  0.104487
                                 0.001033 -0.000042 -0.000000  0.000000  0.000000 -0.000000 -0.000000  0.000001  0.000001 -0.000006
                                -0.000018  0.000119 -0.000166  0.001120  0.000367 -0.002610 -0.000183  0.001278 -0.000781  0.004337
                                -0.000425  0.000946  0.000043 -0.000287  0.000320 -0.002178 -0.000497  0.003457  0.000511 -0.002710
                                 0.000544 -0.004762 -0.002777  0.016168 -0.003758  0.025940 -0.004512  0.029434  0.001809 -0.007456
                                -0.003217  0.023014  0.000525 -0.003967 -0.000111  0.000874  0.000000 -0.000000 -0.000000  0.000000
                                 0.000004 -0.000001  0.000025  0.000010 -0.000073  0.000107  0.000061  0.000024  0.001371 -0.000306
                                 0.000093 -0.000055  0.000197 -0.000151 -0.004156  0.001757 -0.010190  0.003674 -0.008567  0.003604
                                 0.000273 -0.000328 -0.003068  0.001002 -0.000000  0.000003 -0.000001 -0.000006 -0.000016  0.000007
                                 0.000007  0.000028 -0.000012  0.000000 -0.000022  0.000013 -0.000059 -0.000250  0.000297  0.000368
                                 0.001839 -0.001722  0.000281  0.004415 -0.001743  0.000218  0.005019 -0.001350  0.000172  0.003413
                                -0.001259  0.000002 -0.000008  0.000008 -0.000029 -0.000004 -0.000035  0.000125 -0.000038  0.000146
                                -0.003785 -0.041521 -0.178169 -0.427142 -0.473265 -0.145901 -0.002936 -0.026823 -0.023454 -0.000473
                                 0.000914  0.000779 -0.000210  0.001687  0.018515  0.079459  0.191184  0.211925  0.068806 -0.000563
                                -0.001184 -0.006687 -0.009676 -0.011631 -0.005428  0.000205  0.000261 -0.000284 -0.000309 -0.001832
                                -0.000896

                                   1 2py     1 2py     1 2py     1 2py     1 2py     1 2py     1 2py     1 2py     1 2py     1 2py
                                   1 2py     1 2py     1 2py     1 2py     1 2py     1 2py     1 2py     1 2py     1 2py     1 2py
                                   1 2py     1 2py     1 2py     1 2py     1 2py     1 2py     1 2py     1 2py     1 2py     1 2py
                                   1 3d2-    1 3d2-    1 3d2-    1 3d2-    1 3d2-    1 3d2-    1 3d2-    1 3d2-    1 3d2-    1 3d2-
                                   1 3d2-    1 3d2-    1 3d2-    1 3d2-    1 3d2-    1 3d2-    1 3d2-    1 3d2-    1 3d2-    1 3d2-
                                   1 3d2-    1 3d2-    1 4f1-    1 4f3-    1 4f1-    1 4f3-    1 4f1-    1 4f3-    1 4f1-    1 4f3-
                                   1 4f1-    1 4f3-    1 4f1-    1 4f3-    1 4f1-    1 4f3-    1 4f1-    1 4f3-    1 4f1-    1 4f3-
                                   1 4f1-    1 4f3-    1 4f1-    1 4f3-    1 4f1-    1 4f3-    1 4f1-    1 4f3-    1 4f1-    1 4f3-
                                   1 5g2-    1 5g4-    1 5g2-    1 5g4-    1 5g2-    1 5g4-    1 5g2-    1 5g4-    1 5g2-    1 5g4-
                                   1 5g2-    1 5g4-    1 5g2-    1 5g4-    1 5g2-    1 5g4-    1 5g2-    1 5g4-    1 6h1-    1 6h3-
                                   1 6h5-    1 6h1-    1 6h3-    1 6h5-    1 6h1-    1 6h3-    1 6h5-    2 2py     2 2py     2 2py
                                   2 3d2-    2 3d2-    3 1s      3 1s      3 1s      3 1s      3 1s      3 1s      3 2py     3 2px
                                   3 2py     3 2px     3 2py     3 2px     3 3d2-    3 3d0     3 3d2+    3 3d2-    3 3d0     3 3d2+


   1.2   2     6.5442   -4.0811 -0.000000  0.000001 -0.000004  0.000012 -0.000017  0.000022 -0.000047  0.000135 -0.000555  0.005114
                                 0.056319  0.079546  0.565225  0.725364  1.959569  0.623654 -0.400074  0.295623 -0.134503 -0.020708
                                -0.081432 -0.438089 -0.714390 -0.900142 -1.635363  0.047702  0.158466 -0.132575 -0.012540  0.002211
                                 0.000001 -0.000005  0.000020 -0.000108  0.002004  0.018420 -0.038740  0.015540  0.048094 -0.003170
                                -0.004798 -0.035339  0.053656 -0.036657 -0.024522  0.033744 -0.048319 -0.023677  0.016464 -0.000545
                                 0.000947 -0.000297 -0.000005 -0.000190  0.000037  0.001391 -0.000200 -0.006573  0.006797  0.316955
                                 0.038021  1.615333  0.042073  1.708068 -0.041987 -1.580393 -0.012335 -0.488021 -0.039901 -1.597577
                                 0.037588  1.252842 -0.023663 -0.732669 -0.001917  0.511768  0.000410 -0.238190  0.000902  0.076698
                                 0.000010  0.000045 -0.000055  0.000009  0.000156  0.000311 -0.000503 -0.000176  0.002090  0.002885
                                -0.002696 -0.003171 -0.000671 -0.003421  0.006330  0.010755 -0.001991 -0.002706  0.000147 -0.000028
                                 0.000042  0.000021 -0.000011 -0.001394  0.000221  0.001390 -0.002542 -0.002692  0.013416 -0.032730
                                 0.043353 -0.000206 -0.000008  0.000345  0.001182 -0.006455  0.083125 -0.022002  0.003018 -0.002753
                                -0.017111  0.011524  0.045382 -0.024851 -0.030692 -0.000217 -0.053676 -0.005298  0.002582  0.000382

   2.2   2     6.5906   -3.7725 -0.000000  0.000002 -0.000007  0.000021 -0.000028  0.000037 -0.000079  0.000227 -0.000930  0.008572
                                 0.094488  0.133590  0.953506  1.243034  4.383457  3.344195 -3.924076  3.435683  0.177666 -0.034723
                                -0.136680 -0.738288 -1.216369 -1.699756 -4.552289 -0.052082 -0.239393  0.183067  0.011835 -0.001916
                                -0.000010  0.000053 -0.000221  0.001184 -0.022073 -0.204416  0.437862 -0.182026 -0.631281 -0.718988
                                 0.052924  0.393742 -0.602550  0.442000  0.522187  1.782250 -2.039570  0.069707 -0.009943 -0.003367
                                -0.001329  0.000548 -0.000189  0.000003  0.001385 -0.000025 -0.006542  0.000091  0.316228 -0.007150
                                 1.614466 -0.033273  1.721278 -0.033739 -1.753365  0.031976 -0.487050  0.009217 -1.600562  0.030821
                                 1.571507 -0.025377 -0.942562  0.014872  0.205609 -0.010316 -0.128133  0.004815  0.044115 -0.001550
                                 0.001036  0.001280 -0.003784 -0.004841  0.012706  0.016006 -0.039451 -0.051465  0.164396  0.215968
                                -0.220496 -0.275291  0.061368  0.017051  0.119815  0.215811 -0.035686 -0.049350  0.000562 -0.000066
                                -0.000392 -0.002684 -0.000904  0.002173  0.010041 -0.001082 -0.010681 -0.007157  0.008576 -0.027275
                                -0.017758 -0.022983  0.000264  0.003964  0.108141 -0.230106  1.860215  0.056006  0.035056  0.026243
                                -0.308051 -0.185543  0.525593  0.327197 -0.090336  0.056335  0.039821 -0.144818  0.083084  0.064840

   3.2   +    11.0573    4.3293 -0.000000  0.000001 -0.000002  0.000007 -0.000009  0.000012 -0.000025  0.000072 -0.000297  0.002757
                                 0.030822  0.044861  0.347100  0.499243  1.263251  0.839545 -0.983086  0.863277  0.138211 -0.011229
                                -0.045047 -0.262969 -0.485945 -0.554778 -1.219906 -0.029889 -0.143098  0.087226  0.007328 -0.001240
                                -0.000001  0.000006 -0.000026  0.000140 -0.002620 -0.024724  0.055112 -0.024056 -0.093808 -0.164545
                                 0.006310  0.048154 -0.075073  0.059785  0.095063  0.432200 -0.502756 -0.024410  0.014771 -0.002372
                                 0.000832 -0.000212 -0.000242 -0.000690  0.001844  0.005258 -0.015394 -0.043826  0.075834  0.218395
                                 1.101530  3.131778  0.997572  2.789731 -0.499142 -1.286303 -0.505365 -1.439360 -1.533728 -4.341339
                                 0.405075  0.931114 -0.240976 -0.524162  0.043127  0.390358 -0.032116 -0.177628  0.011917  0.057653
                                 0.000498  0.000683 -0.002548 -0.003745  0.008210  0.011680 -0.033598 -0.046963  0.047312  0.063805
                                -0.050017 -0.063087  0.010131 -0.001283  0.035445  0.062251 -0.009159 -0.012127  0.000063 -0.000153
                                 0.000793 -0.000111 -0.000180 -0.001985 -0.002282  0.000164  0.014678 -0.001424  0.010101 -0.046988
                                 0.016340  0.005103  0.000551 -0.020364  0.050789 -0.077058  0.537441 -0.003092  0.008765  0.005099
                                -0.080506 -0.032924  0.165645  0.040739 -0.028911  0.009623 -0.016258 -0.047972  0.023428  0.004649

   4.2   0    -0.3253   -4.8201  0.000000 -0.000000  0.000000 -0.000000  0.000000 -0.000000  0.000000 -0.000001  0.000003 -0.000024
                                -0.000274 -0.000471 -0.006941  0.002408 -0.006183 -0.016368  0.020631  0.072719  0.077454  0.000099
                                 0.000410  0.004776  0.004234  0.000203 -0.005676 -0.011051 -0.062793  0.106422  0.001019 -0.000038
                                -0.000000  0.000000 -0.000001  0.000006 -0.000115 -0.001086  0.002551 -0.001204 -0.004245 -0.000806
                                 0.000278  0.002119 -0.003377  0.002543  0.004553 -0.016725 -0.026391 -0.029847  0.007097 -0.023512
                                 0.004089 -0.000894  0.000000 -0.000000 -0.000000  0.000000  0.000003 -0.000002  0.000046 -0.000000
                                 0.000089  0.000128  0.000232  0.000188  0.001799  0.000310  0.000032 -0.000065 -0.000009 -0.000219
                                -0.004173  0.000174 -0.010219  0.000320 -0.008756 -0.000256  0.000156  0.000066 -0.003125 -0.000000
                                 0.000001  0.000003 -0.000007 -0.000015  0.000015  0.000036 -0.000025 -0.000078 -0.000329 -0.000319
                                 0.001725  0.001701  0.001844  0.004337  0.001326  0.004954  0.001336  0.003570  0.000007 -0.000000
                                -0.000009 -0.000024 -0.000002  0.000039  0.000065 -0.000022 -0.000132  0.000074 -0.000933 -0.006275
                                -0.000062  0.001689  0.004153  0.045568  0.195560  0.469716  0.518438  0.162197 -0.002740 -0.001607
                                -0.025518 -0.013316 -0.024752 -0.007651 -0.000830  0.000503  0.000461  0.001021 -0.000828  0.001020

   5.2   0    -0.0723   -2.2645 -0.000000  0.000000 -0.000000  0.000000 -0.000000  0.000000 -0.000000  0.000001 -0.000002  0.000020
                                 0.000212  0.000284  0.001582  0.002963  0.008149 -0.000280  0.000680  0.079898 -0.102093 -0.000079
                                -0.000302 -0.001300 -0.002327 -0.003485 -0.008558  0.695567 -0.361043 -0.672018  0.198608  0.007536
                                 0.000000 -0.000000  0.000001 -0.000007  0.000120  0.001069 -0.002058  0.000717  0.002292  0.004270
                                -0.000285 -0.002017  0.002945 -0.001833 -0.001608 -0.022698 -0.010707 -0.177427  0.368541  0.251264
                                -0.080133  0.016030  0.000000 -0.000000 -0.000001  0.000000  0.000006 -0.000000 -0.000046  0.000000
                                -0.000404  0.000012 -0.000288  0.000019  0.001174  0.000036  0.000190 -0.000006  0.000491 -0.000020
                                -0.003251  0.000017 -0.001173  0.000137 -0.017056  0.000340  0.016143 -0.001251 -0.052787 -0.001369
                                -0.000012  0.000019  0.000047 -0.000074 -0.000131  0.000202  0.000331 -0.000500 -0.000940  0.001026
                                 0.002530 -0.002217 -0.002911  0.008606  0.011854 -0.022858 -0.015834  0.034275  0.000002 -0.000000
                                -0.000003 -0.000008 -0.000000  0.000014  0.000028 -0.000003 -0.000052  0.001411  0.008786  0.075888
                                 0.000250  0.002754  0.000917  0.010017  0.046803  0.123231  0.257714 -1.750889  0.001021 -0.000580
                                 0.004212 -0.004696  0.108998 -0.000177 -0.000261  0.000318  0.000365  0.001829 -0.000777  0.001287

                                   1 2pz     1 2pz     1 2pz     1 2pz     1 2pz     1 2pz     1 2pz     1 2pz     1 2pz     1 2pz
                                   1 2pz     1 2pz     1 2pz     1 2pz     1 2pz     1 2pz     1 2pz     1 2pz     1 2pz     1 2pz
                                   1 2pz     1 2pz     1 2pz     1 2pz     1 2pz     1 2pz     1 2pz     1 2pz     1 2pz     1 2pz
                                   1 3d1+    1 3d1+    1 3d1+    1 3d1+    1 3d1+    1 3d1+    1 3d1+    1 3d1+    1 3d1+    1 3d1+
                                   1 3d1+    1 3d1+    1 3d1+    1 3d1+    1 3d1+    1 3d1+    1 3d1+    1 3d1+    1 3d1+    1 3d1+
                                   1 3d1+    1 3d1+    1 4f0     1 4f2+    1 4f0     1 4f2+    1 4f0     1 4f2+    1 4f0     1 4f2+
                                   1 4f0     1 4f2+    1 4f0     1 4f2+    1 4f0     1 4f2+    1 4f0     1 4f2+    1 4f0     1 4f2+
                                   1 4f0     1 4f2+    1 4f0     1 4f2+    1 4f0     1 4f2+    1 4f0     1 4f2+    1 4f0     1 4f2+
                                   1 5g1+    1 5g3+    1 5g1+    1 5g3+    1 5g1+    1 5g3+    1 5g1+    1 5g3+    1 5g1+    1 5g3+
                                   1 5g1+    1 5g3+    1 5g1+    1 5g3+    1 5g1+    1 5g3+    1 5g1+    1 5g3+    1 6h2+    1 6h4+
                                   1 6h0     1 6h2+    1 6h4+    1 6h0     1 6h2+    1 6h4+    1 6h0     2 2pz     2 2pz     2 2pz
                                   2 3d1+    2 3d1+    3 2pz     3 2pz     3 2pz     3 3d1+    3 3d1-    3 3d1+    3 3d1-

   1.3   2     6.5207   -4.0903 -0.000000  0.000001 -0.000005  0.000015 -0.000020  0.000026 -0.000057  0.000164 -0.000673  0.006201
                                 0.068220  0.096205  0.687295  0.872777  2.335958  0.716514 -0.401090  0.263313 -0.260759 -0.025097
                                -0.098575 -0.532304 -0.864556 -1.064184 -1.954958  0.079415  0.297332 -0.211492 -0.020805  0.003654
                                 0.000002 -0.000010  0.000041 -0.000217  0.004030  0.037156 -0.078528  0.031530  0.089788 -0.006413
                                -0.009654 -0.071381  0.108600 -0.073085 -0.038750  0.027724 -0.025551  0.025251 -0.007356  0.001763
                                -0.000627  0.000164 -0.000096 -0.000163  0.000701  0.001194 -0.003339 -0.005614  0.158260  0.273682
                                 0.809146  1.391152  0.858151  1.471650 -0.800748 -1.362552 -0.245143 -0.419261 -0.801885 -1.373197
                                 0.633591  1.077523 -0.374418 -0.644758  0.251282  0.426959 -0.124334 -0.212949  0.040237  0.068953
                                 0.000041  0.000039 -0.000105 -0.000001  0.000544  0.000382 -0.001673 -0.000677  0.008889  0.005208
                                -0.008054 -0.004348 -0.003229 -0.005572  0.003362  0.004484 -0.004226 -0.004051  0.000209 -0.000071
                                 0.000095 -0.000634 -0.000959 -0.000764  0.001130 -0.001834  0.000860 -0.001307  0.005771 -0.005926
                                 0.017983 -0.002426  0.002636 -0.011291  0.021318  0.023698  0.036508 -0.006438  0.004473

   2.3   2     6.5677   -4.0420 -0.000000  0.000001 -0.000003  0.000009 -0.000012  0.000016 -0.000035  0.000101 -0.000412  0.003799
                                 0.041780  0.058848  0.421113  0.522957  1.483677  0.506323 -0.295499  0.191742 -0.197185 -0.015373
                                -0.060345 -0.326205 -0.523724 -0.642542 -1.289140  0.055690  0.213814 -0.149758 -0.014494  0.002535
                                -0.000002  0.000009 -0.000036  0.000191 -0.003553 -0.032759  0.069354 -0.028122 -0.085916 -0.006860
                                 0.008511  0.062948 -0.095848  0.066499  0.044504 -0.006441  0.006696 -0.009541  0.001443 -0.000031
                                -0.000051  0.000022 -0.000165  0.000094  0.001211 -0.000692 -0.005749  0.003245  0.274447 -0.159284
                                 1.400692 -0.808260  1.480402 -0.852161 -1.371195  0.783483 -0.424147  0.243472 -1.386586  0.796978
                                 1.082830 -0.618416 -0.640164  0.369814  0.429451 -0.244948 -0.212597  0.122174  0.068803 -0.039564
                                 0.000022  0.000002  0.000087 -0.000070 -0.000028  0.000280  0.001187 -0.001776 -0.004130  0.007774
                                 0.003717 -0.006401  0.002347 -0.009534 -0.002122  0.007695  0.002490 -0.006887 -0.000079 -0.000190
                                 0.000158 -0.000647  0.000624 -0.000843 -0.002112  0.000891  0.002583  0.002381 -0.011070  0.021562
                                -0.042943 -0.000934  0.000852 -0.004514  0.013270  0.009743  0.019480  0.005233  0.000080

   3.3   +    11.0152    4.2780  0.000000 -0.000002  0.000006 -0.000019  0.000026 -0.000034  0.000073 -0.000209  0.000859 -0.007939
                                -0.087988 -0.125835 -0.926194 -1.218143 -1.973209 -0.435234  0.227621 -0.137637  0.150671  0.032234
                                 0.127728  0.713005  1.203368  1.142199  1.420662 -0.041980 -0.160745  0.112590  0.010970 -0.001926
                                -0.000001  0.000003 -0.000013  0.000069 -0.001286 -0.011832  0.024981 -0.009601  0.002167  0.019145
                                 0.003080  0.022674 -0.034442  0.012107 -0.014626 -0.027568  0.017131 -0.020982  0.005614 -0.001419
                                 0.000531 -0.000143  0.000526  0.000506 -0.004005 -0.003854  0.033408  0.032117 -0.164626 -0.160010
                                -2.379474 -2.295831 -2.126394 -2.048575  0.983790  0.942615  1.095057  1.055138  3.304507  3.184244
                                -0.709801 -0.680672  0.412223  0.400255 -0.284661 -0.271711  0.140828  0.135803 -0.045914 -0.044297
                                -0.000043 -0.000046  0.000379  0.000472 -0.000921 -0.001123  0.004487  0.005226 -0.005718 -0.006622
                                 0.003651  0.003927  0.003790  0.007382 -0.001208 -0.002885  0.003051  0.005009 -0.000197 -0.000234
                                -0.000166  0.000623  0.000494 -0.000227 -0.003454 -0.004592  0.000048  0.000257 -0.001749  0.001040
                                -0.002439  0.000367 -0.000603  0.009124 -0.032016 -0.011611 -0.018659 -0.001700 -0.012236

   4.3   0    -0.0640   -2.3524 -0.000000  0.000000 -0.000000  0.000000 -0.000000  0.000000 -0.000000  0.000001 -0.000006  0.000052
                                 0.000564  0.000718  0.002535  0.008844  0.012126  0.006596 -0.016818  0.047689  0.265874 -0.000211
                                -0.000797 -0.002400 -0.005200 -0.007039 -0.018734 -0.536926 -0.290387 -0.058379 -0.260397 -0.016648
                                 0.000000 -0.000000  0.000000 -0.000000  0.000000  0.000004 -0.000005 -0.000006  0.000020  0.000033
                                -0.000001 -0.000007  0.000009 -0.000003  0.000037  0.000004  0.000033 -0.000277 -0.000828 -0.002336
                                -0.001556 -0.000142 -0.000000 -0.000000  0.000000  0.000000 -0.000000 -0.000001  0.000069 -0.000008
                                 0.000241 -0.000003  0.000090  0.000001 -0.001000  0.000005 -0.000068 -0.000008 -0.000147 -0.000022
                                 0.001638  0.000108 -0.010728  0.000092 -0.032165  0.000485  0.099915  0.000850  0.133848  0.001238
                                 0.000000 -0.000039 -0.000001  0.000151  0.000001 -0.000417 -0.000000  0.001038  0.000011 -0.002516
                                -0.000025  0.006029  0.000047 -0.013638 -0.000036  0.045989  0.000479 -0.058350  0.000000 -0.000000
                                 0.000001 -0.000001  0.000003 -0.000002 -0.000008  0.000004 -0.000012 -0.001565 -0.009905 -0.090743
                                -0.000302 -0.002380 -0.002220 -0.014121 -0.129073  0.000216  0.000363  0.001482  0.002941

   5.3   0    -0.0488   -1.9626  0.000000 -0.000000  0.000000 -0.000000  0.000000 -0.000000  0.000000 -0.000000  0.000000 -0.000000
                                -0.000004 -0.000006 -0.000022 -0.000068 -0.000100 -0.000060  0.000135 -0.000171 -0.001322  0.000002
                                 0.000006  0.000020  0.000041  0.000058  0.000152  0.001681  0.001449 -0.000189  0.001406  0.000263
                                 0.000000 -0.000000  0.000002 -0.000009  0.000167  0.001517 -0.003172  0.001236  0.003516  0.003178
                                -0.000398 -0.002896  0.004383 -0.002562 -0.002945 -0.005608  0.019037  0.142021 -0.156201 -0.351162
                                -0.486060 -0.139739  0.000000  0.000000 -0.000000 -0.000001 -0.000000  0.000004 -0.000000 -0.000056
                                -0.000002 -0.000366 -0.000001 -0.000288  0.000002  0.000565  0.000000  0.000148  0.000001  0.000399
                                -0.000008 -0.001346  0.000006  0.006225  0.000298  0.043323 -0.000479 -0.054482 -0.000012 -0.109434
                                 0.000056  0.000000 -0.000214 -0.000002  0.000591  0.000004 -0.001475 -0.000009  0.003537  0.000034
                                -0.008527 -0.000049  0.019925  0.000212 -0.055966 -0.000317  0.092859  0.000954 -0.000000  0.000001
                                 0.000000  0.000001 -0.000002 -0.000000 -0.000002  0.000008  0.000001 -0.002042 -0.010653 -0.122118
                                -0.000417 -0.004846  0.001463  0.007735  0.087505 -0.000034 -0.000321 -0.004659 -0.001328

                                   1 3d1-    1 3d1-    1 3d1-    1 3d1-    1 3d1-    1 3d1-    1 3d1-    1 3d1-    1 3d1-    1 3d1-
                                   1 3d1-    1 3d1-    1 3d1-    1 3d1-    1 3d1-    1 3d1-    1 3d1-    1 3d1-    1 3d1-    1 3d1-
                                   1 3d1-    1 3d1-    1 4f2-    1 4f2-    1 4f2-    1 4f2-    1 4f2-    1 4f2-    1 4f2-    1 4f2-
                                   1 4f2-    1 4f2-    1 4f2-    1 4f2-    1 4f2-    1 4f2-    1 5g1-    1 5g3-    1 5g1-    1 5g3-
                                   1 5g1-    1 5g3-    1 5g1-    1 5g3-    1 5g1-    1 5g3-    1 5g1-    1 5g3-    1 5g1-    1 5g3-
                                   1 5g1-    1 5g3-    1 5g1-    1 5g3-    1 6h4-    1 6h2-    1 6h4-    1 6h2-    1 6h4-    1 6h2-
                                   2 3d1-    2 3d1-    3 2pz     3 2pz     3 2pz     3 3d1-    3 3d1+    3 3d1-    3 3d1+

   1.4   +     6.3499   -4.3229 -0.000002  0.000011 -0.000046  0.000245 -0.004554 -0.042110  0.089428 -0.035704 -0.097814  0.008102
                                 0.010915  0.081009 -0.123505  0.081446  0.041618 -0.031744  0.027879 -0.028521  0.008047 -0.001897
                                 0.000670 -0.000174 -0.000195  0.001433 -0.006985  0.316063  1.632024  1.730621 -1.544835 -0.496454
                                -1.624636  1.215457 -0.725943  0.481470 -0.240089  0.077770 -0.000028  0.000029  0.000048  0.000046
                                -0.000384  0.000133  0.001460  0.000451 -0.008513  0.000215  0.007670 -0.000270  0.004713  0.000151
                                -0.004004 -0.000063  0.004922  0.000019  0.000066  0.000118 -0.001392 -0.000355 -0.002753  0.002491
                                -0.002036  0.007193 -0.002702  0.012439 -0.020642 -0.038215 -0.020399  0.003018 -0.004137

   2.4   0    -0.0490   -1.9687 -0.000000  0.000000 -0.000002  0.000009 -0.000167 -0.001516  0.003174 -0.001238 -0.003517 -0.003167
                                 0.000398  0.002895 -0.004383  0.002557  0.002954  0.005660 -0.019119 -0.142266  0.158491  0.353532
                                 0.484288  0.137487  0.000000 -0.000001  0.000004 -0.000053 -0.000349 -0.000275  0.000540  0.000142
                                 0.000382 -0.001269  0.006030  0.044194 -0.054757 -0.105269 -0.000056 -0.000000  0.000215  0.000001
                                -0.000592 -0.000002  0.001475  0.000005 -0.003559 -0.000025  0.008546  0.000027 -0.020023 -0.000148
                                 0.056095  0.000127 -0.093608 -0.001002 -0.000000 -0.000000  0.000002  0.000000 -0.000005 -0.000002
                                -0.000114  0.002880 -0.002526 -0.013369 -0.151232  0.000401  0.000327  0.006238  0.001096

   3.4   0    -0.0285   -1.3128 -0.000000  0.000001 -0.000004  0.000021 -0.000391 -0.003539  0.007221 -0.002754 -0.008535 -0.008023
                                 0.000932  0.006737 -0.010087  0.006308  0.006753  0.024689 -0.040587  0.241559 -0.307455 -0.156043
                                -0.635221  1.319924 -0.000000  0.000002 -0.000011  0.000148  0.001033  0.000798 -0.001777 -0.000433
                                -0.001157  0.004759 -0.018178 -0.015383 -0.000932  0.296839  0.000039  0.000000 -0.000150 -0.000001
                                 0.000413  0.000002 -0.001029 -0.000004  0.002488  0.000020 -0.005992 -0.000020  0.013948  0.000120
                                -0.043114 -0.000100  0.067873  0.000887  0.000000  0.000000 -0.000001 -0.000002  0.000004  0.000006
[...]
                                -0.000000  0.000000 -0.000001  0.000005 -0.000089 -0.000630  0.001001 -0.000046 -0.002632 -0.001512
                                 0.000196  0.001168 -0.001626  0.000201 -0.000912  0.000328 -0.000519  0.001468 -0.000175  0.000003
                                 0.000003 -0.000002  0.000051 -0.000080 -0.000414  0.000642  0.005930 -0.009199  0.121810 -0.188911
                                 0.195435 -0.304094  0.205870 -0.321618  0.111725 -0.176691  0.052432 -0.080778  0.028081 -0.042250
                                -0.009371  0.014061  0.026103 -0.042321 -0.017614  0.027937  0.009850 -0.015676 -0.003495  0.005593
                                 0.000041 -0.000040  0.000106 -0.000095  0.000261 -0.000250  0.000476 -0.000386 -0.000148  0.000056
                                 0.000079 -0.000083 -0.000217  0.000006 -0.000015 -0.000068 -0.000324  0.000219  0.000239 -0.001085
                                -0.000430  0.000867 -0.001529 -0.000896  0.000352 -0.001315 -0.000415 -0.000083  0.000496 -0.002571
                                 0.000453  0.000843  0.000015  0.000238  0.000486  0.000029  0.000001 -0.000207  0.000405

   4.3   0    -0.0650   -7.1293 -0.000000  0.000000 -0.000000  0.000000 -0.000000  0.000000 -0.000000  0.000001 -0.000002  0.000021
                                 0.000227  0.000272 -0.000490  0.002252 -0.000160 -0.004468  0.001525  0.011296  0.020950 -0.000084
                                -0.000320 -0.000170  0.001160 -0.003442 -0.009123  0.000171  0.004005  0.010255  0.000891 -0.000139
                                 0.000001 -0.000004  0.000018 -0.000094  0.001631  0.014756 -0.050924  0.050998 -0.011150 -0.326675
                                -0.003844 -0.028852  0.054448 -0.021679 -0.224864 -0.254078 -0.181443 -0.149657 -0.064936 -0.033927
                                 0.003609 -0.001724 -0.000001  0.000001  0.000005 -0.000004 -0.000063  0.000052 -0.001160  0.000680
                                -0.001579  0.000180 -0.001584  0.000217 -0.000502  0.001101 -0.000650  0.000812 -0.000695  0.001543
                                 0.000025  0.001359 -0.000442 -0.004494 -0.000889  0.004567 -0.001234 -0.002777 -0.000307 -0.000331
                                 0.000012 -0.000018  0.000069 -0.000032  0.000196 -0.000186  0.001747 -0.000974 -0.001105 -0.000854
                                -0.003335 -0.000403 -0.001969 -0.000030 -0.006012  0.000314 -0.002131  0.000499 -0.000005  0.000021
                                 0.000004  0.000014 -0.000068  0.000016 -0.000009  0.000308 -0.000082 -0.002070 -0.011773 -0.025130
                                 0.000720  0.004651  0.001627  0.010847  0.024780  0.000148  0.000583 -0.000805  0.005711

   5.3   0    -0.0314   -3.9451 -0.000000  0.000000 -0.000000  0.000001 -0.000001  0.000001 -0.000002  0.000007 -0.000030  0.000288
                                 0.003115  0.003400 -0.025990  0.027104 -0.039005 -0.113554  0.011477  0.191554  0.378259 -0.001167
                                -0.004326  0.008974  0.043215 -0.059466 -0.129335  0.111919  0.186243  0.202575  0.046076  0.001572
                                -0.000000  0.000000 -0.000001  0.000007 -0.000124 -0.001127  0.003453 -0.003020 -0.000393  0.017823
                                 0.000293  0.002191 -0.003906  0.001766  0.012965  0.015791  0.010679  0.006858 -0.002563 -0.003364
                                -0.001497 -0.000185 -0.000001  0.000001  0.000008 -0.000008 -0.000114  0.000116 -0.002177  0.002337
                                -0.003178  0.003637 -0.002833  0.003318 -0.004061  0.002210 -0.001115  0.001053 -0.000910  0.000607
                                 0.002644  0.000462  0.003648  0.003155  0.011303 -0.000985 -0.002001 -0.000740  0.005132 -0.001017
                                 0.000001  0.000005 -0.000011 -0.000009  0.000009  0.000049 -0.000090 -0.000101  0.000173  0.000883
                                 0.000036 -0.001848 -0.000153  0.004207 -0.000387  0.002026  0.001157  0.006786 -0.000005  0.000013
                                 0.000011  0.000032  0.000121  0.000139  0.000040  0.000097  0.000199  0.001461  0.008388  0.014350
                                -0.000191 -0.001502  0.001904  0.012457  0.030295  0.000064  0.000090  0.002017  0.002753

                                   1 3d1-    1 3d1-    1 3d1-    1 3d1-    1 3d1-    1 3d1-    1 3d1-    1 3d1-    1 3d1-    1 3d1-
                                   1 3d1-    1 3d1-    1 3d1-    1 3d1-    1 3d1-    1 3d1-    1 3d1-    1 3d1-    1 3d1-    1 3d1-
                                   1 3d1-    1 3d1-    1 4f2-    1 4f2-    1 4f2-    1 4f2-    1 4f2-    1 4f2-    1 4f2-    1 4f2-
                                   1 4f2-    1 4f2-    1 4f2-    1 4f2-    1 4f2-    1 4f2-    1 5g1-    1 5g3-    1 5g1-    1 5g3-
                                   1 5g1-    1 5g3-    1 5g1-    1 5g3-    1 5g1-    1 5g3-    1 5g1-    1 5g3-    1 5g1-    1 5g3-
                                   1 5g1-    1 5g3-    1 5g1-    1 5g3-    1 6h4-    1 6h2-    1 6h4-    1 6h2-    1 6h4-    1 6h2-
                                   2 3d1-    2 3d1-    3 2pz     3 2pz     3 2pz     3 3d1-    3 3d1+    3 3d1-    3 3d1+

   1.4   +    -0.5814  -14.7010  0.000000 -0.000000  0.000001 -0.000005  0.000090  0.000876 -0.002020  0.001088  0.001631 -0.002037
                                -0.000219 -0.001673  0.002597 -0.001948 -0.004379 -0.001509  0.000731 -0.001991  0.000387  0.000056
                                -0.000042  0.000011 -0.000095  0.000763 -0.010938 -0.224778 -0.361615 -0.381523 -0.208643 -0.096689
                                -0.051299  0.017078 -0.049678  0.032975 -0.018495  0.006566  0.000019 -0.000041  0.000034 -0.000093
                                 0.000127 -0.000274  0.000212 -0.000467  0.000399 -0.000095 -0.000085  0.000061  0.000095  0.000052
                                 0.000015  0.000002  0.000369 -0.000016 -0.000470 -0.000253 -0.001180  0.000522 -0.001119 -0.000192
                                -0.000018  0.000367 -0.000090  0.000328 -0.002532 -0.000407 -0.000220 -0.000648 -0.000651

   2.4   0    -0.0563   -6.9306 -0.000001  0.000004 -0.000016  0.000085 -0.001479 -0.013649  0.048271 -0.047844  0.008981  0.314478
                                 0.003504  0.026937 -0.051469  0.019090  0.210261  0.251157  0.184761  0.159188  0.078664  0.043007
                                -0.002931  0.002006 -0.000000  0.000002 -0.000032 -0.000827 -0.001722 -0.001615  0.001117 -0.000110
                                 0.000416  0.000804 -0.007012  0.001033 -0.006261 -0.001417  0.000020  0.000055 -0.000074  0.000078
                                 0.000120  0.000599 -0.000587  0.001619  0.001470  0.001419  0.003611  0.000685  0.001501  0.000691
                                 0.006253 -0.000221  0.001936 -0.000274 -0.000025 -0.000005  0.000089  0.000021 -0.000378 -0.000209
                                 0.000162  0.002357 -0.002805 -0.018397 -0.043235 -0.000799 -0.000604 -0.005239 -0.005681

   3.4   0     0.0106   -0.9738 -0.000001  0.000003 -0.000014  0.000076 -0.001417 -0.012915  0.025545 -0.008132 -0.033796 -0.049498
                                 0.003388  0.024610 -0.036432  0.023323  0.014171  0.070111 -0.178950  0.303334 -0.414604  0.616346
                                -0.969198  1.523286  0.000000 -0.000000  0.000005  0.000089  0.000121  0.000123  0.000030  0.000051
                                 0.000053 -0.000498  0.002022 -0.002323  0.002126 -0.010677  0.000001 -0.000003 -0.000003 -0.000005
                                 0.000012 -0.000034 -0.000016 -0.000098  0.000027 -0.000075 -0.000548 -0.000055  0.000979  0.000005
                                -0.000850  0.000013  0.001414 -0.000196  0.000001  0.000000 -0.000005 -0.000001  0.000021  0.000012
                                 0.000003  0.000019 -0.000006 -0.000300 -0.002224  0.000180  0.000104 -0.000578 -0.000374

 HOMO      3.2    -0.542470 =     -14.7614eV
 LUMO      4.2    -0.272000 =      -7.4015eV
 LUMO-HOMO         0.270469 =       7.3598eV

 No convergence



 **********************************************************************************************************************************
 DATASETS  * FILE   NREC   LENGTH (MB)   RECORD NAMES
              1      20       23.20       500      610      700      900      950      970     1000      129      960     1100
                                          VAR    BASINP    GEOM    SYMINP    ZMAT    AOBASIS   BASIS     P2S    ABASIS      S
                                         1400     1410     1420     1200     1210     1080     1600     1650     1700     1800
                                           T        V       ECP      H0       H01     AOSYM     SMH    MOLCAS    OPER     GRID

              2       6       10.57       700     1000      520     3202     1800     4202
                                         GEOM     BASIS   MCVARS     RHF     GRID      RKS

 PROGRAMS   *        TOTAL       RKS       RHF       INT
 CPU TIMES  *       659.88    234.88    222.12    202.57
 REAL TIME  *       754.96 SEC
 DISK USED  *        26.03 GB
 SF USED    *         0.31 MB
 GA USED    *         0.24 MB       (max)       0.24 MB       (current)
 **********************************************************************************************************************************
   -->
   <time start="01:56:11" end="02:00:29" cpu="234.88" system="22.58" real="257.78"/>
   <storage units="megabyte" memory="8001.84" sf="0.31" df="764.58" eaf="25261.93"
     ga="0.24"/>
  </jobstep><!--
  --><jobstep command="RHF-SCF" commandset="SCFPRO">
   <!--


 PROGRAM * RHF-SCF (OPEN SHELL)       Authors: W. Meyer, H.-J. Werner


 NUMBER OF ELECTRONS:      13+    8-    SPACE SYMMETRY=1    SPIN SYMMETRY: Sextet
 CONVERGENCE THRESHOLDS:    1.00E-05 (Density)    1.00E-07 (Energy)
 MAX. NUMBER OF ITERATIONS:      200
 INTERPOLATION TYPE:            DIIS
 INTERPOLATION STEPS:              2 (START)      1 (STEP)
 LEVEL SHIFTS:                 -0.60 (CLOSED) -0.30 (OPEN)

 Number of closed-shell orbitals:    8 (   4   2   2   0 )
 Number of open-shell orbitals:      5 (   2   1   1   1 )


 Molecular orbitals read from record     4202.2  Type=RKS/CANONICAL (state 1.1)

 Molecular orbital dump at record        2102.2

 ITERATION    DDIFF          GRAD             ENERGY        2-EL.EN.            DIPOLE MOMENTS         DIIS   ORB.
    1      0.000D+00      0.000D+00      -109.41971964    208.180665   -0.38923    0.00000    0.00000    0    start
    2      0.000D+00      0.606D-02      -109.50018836    202.355050   -0.02966    0.00000    0.00000    1    diag,B
    3      0.581D-02      0.398D-02      -109.53028671    203.206965    0.02545    0.00000    0.00000    2    diag,B
    4      0.122D-02      0.202D-02      -109.56383948    202.947112    0.09385    0.00000    0.00000    3    diag,B
    5      0.139D-02      0.105D-02      -109.57645541    202.952530    0.06639    0.00000    0.00000    4    diag,B
    6      0.698D-03      0.477D-03      -109.57815092    202.698914    0.04524    0.00000    0.00000    5    diag,B
    7      0.485D-03      0.272D-03      -109.57892891    202.816679    0.03004    0.00000    0.00000    6    diag,B
    8      0.127D-03      0.205D-03      -109.57942047    202.764648    0.03041    0.00000    0.00000    7    orth
    9      0.603D-04      0.205D-03      -109.57845965    202.711964    0.03600    0.00000    0.00000    8    diag,B
   10      0.112D-03      0.222D-03      -109.57685421    202.812089    0.03121    0.00000    0.00000    9    diag,B
   11      0.180D-03      0.173D-03      -109.57513224    202.808874    0.03103    0.00000    0.00000    9    diag,B
   12      0.288D-03      0.144D-03      -109.57489657    202.782539    0.02834    0.00000    0.00000    9    diag,B
   13      0.147D-03      0.102D-03      -109.57465943    202.776055    0.02434    0.00000    0.00000    9    diag,B
   14      0.140D-03      0.838D-04      -109.57476359    202.778050    0.02018    0.00000    0.00000    9    diag,B
   15      0.131D-03      0.742D-04      -109.57491561    202.778232    0.02032    0.00000    0.00000    9    diag,B
   16      0.117D-03      0.727D-04      -109.57501995    202.778894    0.02051    0.00000    0.00000    9    diag,B
   17      0.416D-04      0.726D-04      -109.57524154    202.779091    0.02089    0.00000    0.00000    9    diag,B
   18      0.483D-04      0.721D-04      -109.57559505    202.779199    0.02160    0.00000    0.00000    9    orth
   19      0.753D-04      0.713D-04      -109.57622800    202.781086    0.02304    0.00000    0.00000    9    diag,B
   20      0.132D-03      0.725D-04      -109.57669500    202.780421    0.02374    0.00000    0.00000    9    diag,B
   21      0.975D-04      0.679D-04      -109.57974970    202.764939    0.03201    0.00000    0.00000    9    diag,B
   22      0.826D-03      0.642D-03      -109.57930361    202.773687    0.02998    0.00000    0.00000    9    diag,B
   23      0.200D-03      0.390D-03      -109.57945462    202.769298    0.03135    0.00000    0.00000    9    diag,B
   24      0.818D-04      0.524D-03      -109.57936780    202.769512    0.03130    0.00000    0.00000    9    diag,B
   25      0.278D-04      0.516D-03      -109.57985456    202.767708    0.03196    0.00000    0.00000    9    diag,B
   26      0.158D-03      0.581D-03      -109.57971605    202.768913    0.03174    0.00000    0.00000    9    diag,B
   27      0.531D-04      0.543D-03      -109.57965309    202.767735    0.03193    0.00000    0.00000    9    diag,B
   28      0.206D-04      0.584D-03      -109.57930837    202.774910    0.02937    0.00000    0.00000    9    orth
   29      0.168D-03      0.327D-03      -109.57940668    202.768752    0.03151    0.00000    0.00000    9    diag,B
   30      0.981D-04      0.542D-03      -109.57931918    202.770245    0.03092    0.00000    0.00000    9    diag,B
   31      0.397D-04      0.495D-03      -109.57947947    202.769796    0.03149    0.00000    0.00000    9    diag,B
   32      0.552D-04      0.511D-03      -109.57947840    202.772637    0.03069    0.00000    0.00000    9    diag,B
   33      0.405D-04      0.415D-03      -109.57932833    202.771177    0.03052    0.00000    0.00000    9    diag,B
   34      0.526D-04      0.468D-03      -109.57933162    202.774442    0.02973    0.00000    0.00000    9    diag,B
   35      0.503D-04      0.350D-03      -109.57933260    202.771738    0.03032    0.00000    0.00000    9    diag,B
   36      0.433D-04      0.447D-03      -109.57933549    202.771806    0.03029    0.00000    0.00000    9    diag,B
   37      0.806D-06      0.445D-03      -109.57992149    202.776682    0.02864    0.00000    0.00000    9    diag,B
   38      0.143D-03      0.321D-03      -109.58032188    202.773712    0.03000    0.00000    0.00000    9    orth
   39      0.138D-03      0.430D-03      -109.57934736    202.770555    0.03099    0.00000    0.00000    9    diag,B
   40      0.261D-03      0.464D-03      -109.57997714    202.769485    0.03133    0.00000    0.00000    9    diag,B
   41      0.189D-03      0.524D-03      -109.57977504    202.768676    0.03166    0.00000    0.00000    9    diag,B
   42      0.512D-04      0.546D-03      -109.58000981    202.770646    0.03108    0.00000    0.00000    9    diag,B
   43      0.506D-04      0.484D-03      -109.58001980    202.775175    0.02984    0.00000    0.00000    9    diag,B
   44      0.520D-04      0.336D-03      -109.57930449    202.775382    0.02909    0.00000    0.00000    9    diag,B
   45      0.193D-03      0.313D-03      -109.57971266    202.771943    0.03082    0.00000    0.00000    9    diag,B
   46      0.136D-03      0.423D-03      -109.57940817    202.770548    0.03117    0.00000    0.00000    9    diag,B
   47      0.720D-04      0.471D-03      -109.57993691    202.773594    0.03051    0.00000    0.00000    9    diag,B
   48      0.127D-03      0.397D-03      -109.58001440    202.772666    0.03069    0.00000    0.00000    9    orth
   49      0.326D-04      0.428D-03      -109.57947706    202.767724    0.03155    0.00000    0.00000    9    diag,B
   50      0.122D-03      0.574D-03      -109.57987982    202.775322    0.03002    0.00000    0.00000    9    diag,B
   51      0.944D-04      0.340D-03      -109.57958494    202.777444    0.02898    0.00000    0.00000    9    diag,B
   52      0.931D-04      0.254D-03      -109.57932798    202.769486    0.03109    0.00000    0.00000    9    diag,B
   53      0.838D-04      0.504D-03      -109.57953704    202.776940    0.02900    0.00000    0.00000    9    diag,B
   54      0.760D-04      0.281D-03      -109.57958921    202.777077    0.02890    0.00000    0.00000    9    diag,B
   55      0.171D-04      0.284D-03      -109.57994791    202.765690    0.03111    0.00000    0.00000    9    diag,B
   56      0.209D-03      0.629D-03      -109.57931505    202.770230    0.03084    0.00000    0.00000    9    diag,B
   57      0.227D-03      0.495D-03      -109.57968830    202.768274    0.03174    0.00000    0.00000    9    fixocc
   58      0.126D-03      0.567D-03      -109.57962305    202.769955    0.03145    0.00000    0.00000    9    orth
   59      0.404D-04      0.507D-03      -109.57948053    202.768141    0.03142    0.00000    0.00000    9    diag,B
   60      0.423D-04      0.566D-03      -109.57936069    202.775226    0.02959    0.00000    0.00000    9    diag,B
   61      0.115D-03      0.320D-03      -109.57934432    202.769882    0.03089    0.00000    0.00000    9    diag,B
   62      0.727D-04      0.508D-03      -109.57932222    202.772115    0.03020    0.00000    0.00000    9    diag,B
   63      0.325D-04      0.434D-03      -109.57932058    202.769995    0.03101    0.00000    0.00000    9    diag,B
   64      0.285D-04      0.502D-03      -109.57928159    202.771793    0.03045    0.00000    0.00000    9    diag,B
   65      0.306D-04      0.442D-03      -109.57938042    202.768889    0.03140    0.00000    0.00000    9    diag,B
   66      0.583D-04      0.538D-03      -109.57943117    202.768626    0.03160    0.00000    0.00000    9    diag,B
   67      0.181D-04      0.547D-03      -109.57955476    202.771308    0.03122    0.00000    0.00000    9    diag,B
   68      0.363D-04      0.465D-03      -109.57935978    202.775300    0.02943    0.00000    0.00000    9    orth
   69      0.934D-04      0.321D-03      -109.57932251    202.769756    0.03119    0.00000    0.00000    9    diag,B
   70      0.675D-04      0.506D-03      -109.57932914    202.773081    0.02993    0.00000    0.00000    9    diag,B
   71      0.430D-04      0.402D-03      -109.57929477    202.772162    0.03029    0.00000    0.00000    9    diag,B
   72      0.117D-04      0.430D-03      -109.57993532    202.777313    0.02856    0.00000    0.00000    9    diag,B
   73      0.160D-03      0.307D-03      -109.58030166    202.773284    0.03007    0.00000    0.00000    9    diag,B
   74      0.135D-03      0.439D-03      -109.57928277    202.770793    0.03083    0.00000    0.00000    9    diag,B
   75      0.278D-03      0.461D-03      -109.57993331    202.769700    0.03133    0.00000    0.00000    9    diag,B
   76      0.193D-03      0.517D-03      -109.57975729    202.769314    0.03154    0.00000    0.00000    9    diag,B
   77      0.474D-04      0.526D-03      -109.57995478    202.769558    0.03134    0.00000    0.00000    9    diag,B
   78      0.517D-04      0.515D-03      -109.57994952    202.769770    0.03139    0.00000    0.00000    9    orth
   79      0.150D-04      0.508D-03      -109.57935556    202.770387    0.03000    0.00000    0.00000    9    diag,B
   80      0.191D-03      0.480D-03      -109.57969291    202.770938    0.03159    0.00000    0.00000    9    diag,B
   81      0.137D-03      0.475D-03      -109.57960034    202.772814    0.03149    0.00000    0.00000    9    diag,B
