<?xml version="1.0"?>
<molpro xmlns="http://www.molpro.net/schema/molpro-output"
  xmlns:xsd="http://www.w3.org/1999/XMLSchema"
  xmlns:cml="http://www.xml-cml.org/schema"
  xmlns:stm="http://www.xml-cml.org/schema"
  xmlns:xhtml="http://www.w3.org/1999/xhtml">
 <!--

 Nodes     nprocs
 nid12997    11
 Number of processes for MPI-2 version of Molpro:   nprocs(total)=   12   nprocs(compute)=   11   nprocs(helper)=    1

 Using customized tuning parameters: mindgm=7; mindgv=16; mindgc=1; mindgr=1; noblas=0; minvec=7
 default implementation of scratch files=sf

 --><job>
  <!--

 Variables initialized (889), CPU time= 0.02 sec
 Commands  initialized (702), CPU time= 0.01 sec, 572 directives.
 Default parameters read. Elapsed time= 0.13 sec

 Checking input...
 Passed
1


                                         ***  PROGRAM SYSTEM MOLPRO  ***
                                       Copyright, TTI GmbH Stuttgart, 2015
                                    Version 2015.1 linked Dec 29 2018 15:55:43


 **********************************************************************************************************************************
 LABEL *   Calculation for Y atom, singlet and triplet
  64 bit mpp version                                                                     DATE: 22-Oct-22          TIME: 09:08:45
 **********************************************************************************************************************************

 SHA1:             19cd028119e0e09f93f0674bd8af7968d9b3eff6
 **********************************************************************************************************************************
  -->
  <!--

 THRESHOLDS:

 ZERO    =  1.00D-12  ONEINT  =  1.00D-12  TWOINT  =  1.00D-15  PREFAC  =  1.00D-14  LOCALI  =  1.00D-09  EORDER  =  1.00D-04
 ENERGY  =  0.00D+00  ETEST   =  0.00D+00  EDENS   =  0.00D+00  THRDEDEF=  1.00D-06  GRADIENT=  1.00D-02  STEP    =  1.00D-03
 ORBITAL =  1.00D-05  CIVEC   =  1.00D-05  COEFF   =  1.00D-04  PRINTCI =  5.00D-02  PUNCHCI =  9.90D+01  OPTGRAD =  3.00D-04
 OPTENERG=  1.00D-06  OPTSTEP =  3.00D-04  THRGRAD =  1.00D-10  COMPRESS=  1.00D-11  VARMIN  =  1.00D-07  VARMAX  =  1.00D-03
 THRDOUB =  0.00D+00  THRDIV  =  1.00D-05  THRRED  =  1.00D-07  THRPSP  =  1.00D+00  THRDC   =  1.00D-10  THRCS   =  1.00D-10
 THRNRM  =  1.00D-08  THREQ   =  0.00D+00  THRDE   =  1.00D+00  THRREF  =  1.00D-05  SPARFAC =  1.00D+00  THRDLP  =  1.00D-07
 THRDIA  =  1.00D-10  THRDLS  =  1.00D-07  THRGPS  =  0.00D+00  THRKEX  =  0.00D+00  THRDIS  =  2.00D-01  THRVAR  =  1.00D-10
 THRLOC  =  1.00D-06  THRGAP  =  1.00D-06  THRLOCT = -1.00D+00  THRGAPT = -1.00D+00  THRORB  =  1.00D-06  THRMLTP =  0.00D+00
 THRCPQCI=  1.00D-10  KEXTA   =  0.00D+00  THRCOARS=  0.00D+00  SYMTOL  =  1.00D-06  GRADTOL =  1.00D-06  THROVL  =  1.00D-08
 THRORTH =  1.00D-08  GRID    =  1.00D-06  GRIDMAX =  1.00D-03  DTMAX   =  0.00D+00  THROCCDE=  1.00D-01  THROCCDE=  1.00D-01



 THRESHOLDS:

 ZERO    =  1.00D-12  ONEINT  =  1.00D-12  TWOINT  =  1.00D-15  PREFAC  =  1.00D-14  LOCALI  =  1.00D-09  EORDER  =  1.00D-04
 ENERGY  =  0.00D+00  ETEST   =  0.00D+00  EDENS   =  0.00D+00  THRDEDEF=  1.00D-06  GRADIENT=  1.00D-02  STEP    =  1.00D-03
 ORBITAL =  1.00D-05  CIVEC   =  1.00D-05  COEFF   =  1.00D-04  PRINTCI =  5.00D-02  PUNCHCI =  9.90D+01  OPTGRAD =  3.00D-04
 OPTENERG=  1.00D-06  OPTSTEP =  3.00D-04  THRGRAD =  1.00D-10  COMPRESS=  1.00D-11  VARMIN  =  1.00D-07  VARMAX  =  1.00D-03
 THRDOUB =  0.00D+00  THRDIV  =  1.00D-05  THRRED  =  1.00D-07  THRPSP  =  1.00D+00  THRDC   =  1.00D-10  THRCS   =  1.00D-10
 THRNRM  =  1.00D-08  THREQ   =  0.00D+00  THRDE   =  1.00D+00  THRREF  =  1.00D-05  SPARFAC =  1.00D+00  THRDLP  =  1.00D-07
 THRDIA  =  1.00D-10  THRDLS  =  1.00D-07  THRGPS  =  0.00D+00  THRKEX  =  0.00D+00  THRDIS  =  2.00D-01  THRVAR  =  1.00D-10
 THRLOC  =  1.00D-06  THRGAP  =  1.00D-06  THRLOCT = -1.00D+00  THRGAPT = -1.00D+00  THRORB  =  1.00D-06  THRMLTP =  0.00D+00
 THRCPQCI=  1.00D-10  KEXTA   =  0.00D+00  THRCOARS=  0.00D+00  SYMTOL  =  1.00D-06  GRADTOL =  1.00D-06  THROVL  =  1.00D-15
 THRORTH =  1.00D-08  GRID    =  1.00D-06  GRIDMAX =  1.00D-03  DTMAX   =  0.00D+00  THROCCDE=  1.00D-01  THROCCDE=  1.00D-01



 Variable memory set to 1000000000 words,  buffer space   230000 words

 SETTING BASIS          =    USERDEF
 SETTING TA_CCSD        =       -57.47847470
 SETTING O_CCSD         =       -15.86622096
 SETTING NE             =        19.00000000
 SETTING SYMM           =         1.00000000
 SETTING SS             =         1.00000000
 SETTING A1             =         5.00000000
 SETTING B1             =         2.00000000
 SETTING B2             =         2.00000000
 SETTING A2             =         1.00000000

Geometry recognized as XYZ

  --><jobstep command="RHF-SCF" commandset="SCFPRO">
   <!--


 Recomputing integrals since basis changed


 Using spherical harmonics



 PROGRAM * SEWARD (Integral evaluation for generally contracted gaussian basis sets)     Author: Roland Lindh, 1990

 Geometry written to block  1 of record 700


 Point group  C2v


   --><cml:molecule>
    <cml:symmetry pointGroup="C2v"/>
    <cml:atomArray>
     <cml:atom id="a1" elementType="Ta" x3="0.0" y3="0.0" z3="0.0"/>
     <cml:atom id="a2" elementType="O" x3="0.0" y3="0.0" z3="2.4"/>
    </cml:atomArray>
    <cml:bondArray>
     <cml:bond atomRefs2="a1 a2"/>
    </cml:bondArray>
   </cml:molecule><!--

 ATOMIC COORDINATES

 NR  ATOM    CHARGE       X              Y              Z

   1  TA     13.00    0.000000000    0.000000000    0.000000000
   2  O       6.00    0.000000000    0.000000000    4.535342699

 Bond lengths in Bohr (Angstrom)

 1-2  4.535342699
     ( 2.400000000)

 NUCLEAR CHARGE:                   19
 NUMBER OF PRIMITIVE AOS:         536
 NUMBER OF SYMMETRY AOS:          441
 NUMBER OF CONTRACTIONS:          441   ( 182A1  + 105B1  + 105B2  +  49A2  )
 NUMBER OF CORE ORBITALS:           4   (   2A1  +   1B1  +   1B2  +   0A2  )
 NUMBER OF VALENCE ORBITALS:       10   (   5A1  +   2B1  +   2B2  +   1A2  )


 NUCLEAR REPULSION ENERGY   17.19825935

 EXTRA SYMMETRY OF AOS IN SYMMETRY 1:   1 1 1 1 1 1 1 1 1 1   1 1 1 1 1 1 1 1 1 1   1 1 1 1 1 1 1 1 1 1   1 1 1 1 1 1 1 1 1 1
                                        1 1 1 1 1 1 1 1 1 1   1 1 1 1 1 1 1 1 1 1   1 1 1 1 1 1 1 2 1 2   1 2 1 2 1 2 1 2 1 2
                                        1 2 1 2 1 2 1 2 1 2   1 2 1 2 1 2 1 2 1 2   1 2 1 2 1 2 1 2 1 2   1 2 1 2 1 2 1 2 1 2
                                        1 2 1 2 1 2 1 2 1 2   1 2 1 2 1 2 1 2 1 2   1 3 2 1 3 2 1 3 2 1   1 1 1 1 1 1 1 1 1 1
                                        1 1 1 1 1 1 1 1 1 1   1 2 1 2 1 2 1 2 1 2   1 2
 EXTRA SYMMETRY OF AOS IN SYMMETRY 2:   1 1 1 1 1 1 1 1 1 1   1 1 1 1 1 1 1 1 1 1   1 1 1 1 1 1 1 1 1 1   1 1 1 1 1 1 1 1 1 1
                                        1 1 1 1 1 1 1 1 1 1   1 1 1 1 2 1 2 1 2 1   2 1 2 1 2 1 2 1 2 1   2 1 2 1 2 1 2 1 2 1
                                        2 1 2 1 2 1 2 1 2 1   1 1 1 1 1 1 1 1 1 1   1 1 2 1 2
 EXTRA SYMMETRY OF AOS IN SYMMETRY 3:   1 1 1 1 1 1 1 1 1 1   1 1 1 1 1 1 1 1 1 1   1 1 1 1 1 1 1 1 1 1   1 1 1 1 1 1 1 1 1 1
                                        1 1 1 1 1 1 1 1 1 1   1 1 1 1 2 1 2 1 2 1   2 1 2 1 2 1 2 1 2 1   2 1 2 1 2 1 2 1 2 1
                                        2 1 2 1 2 1 2 1 2 1   1 1 1 1 1 1 1 1 1 1   1 1 2 1 2
 EXTRA SYMMETRY OF AOS IN SYMMETRY 4:   1 1 1 1 1 1 1 1 1 1   1 1 1 1 1 1 1 1 1 1   1 1 1 1 1 1 1 1 1 1   1 1 1 1 1 1 1 1 2 1
                                        2 1 2 1 1 1 1 1 1

 Eigenvalues of metric

         1 0.405E-06 0.674E-06 0.106E-04 0.132E-04 0.139E-04 0.217E-04 0.451E-04 0.701E-04
         2 0.467E-06 0.113E-04 0.138E-04 0.961E-04 0.100E-03 0.132E-03 0.140E-03 0.442E-03
         3 0.467E-06 0.113E-04 0.138E-04 0.961E-04 0.100E-03 0.132E-03 0.140E-03 0.442E-03
         4 0.139E-04 0.100E-03 0.143E-03 0.607E-03 0.146E-02 0.227E-02 0.654E-02 0.734E-02


 Contracted 2-electron integrals neglected if value below      1.0D-15
 AO integral compression algorithm  1   Integral accuracy      1.0D-15

     3833.332 MB (compressed) written to integral file ( 34.2%)

     Node minimum: 170.656 MB, node maximum: 765.460 MB


 NUMBER OF SORTED TWO-ELECTRON INTEGRALS:  110657577.     BUFFER LENGTH:  32768
 NUMBER OF SEGMENTS:   4  SEGMENT LENGTH:   31977666      RECORD LENGTH: 524288

 Memory used in sort:      32.53 MW

 SORT1 READ  1401473000. AND WROTE    37779368. INTEGRALS IN    111 RECORDS. CPU TIME:    20.88 SEC, REAL TIME:    28.44 SEC
 SORT2 READ   420698600. AND WROTE  1216411966. INTEGRALS IN   7161 RECORDS. CPU TIME:     1.38 SEC, REAL TIME:     4.05 SEC

 Node minimum:   110449701.  Node maximum:   110660215. integrals

 OPERATOR DM      FOR CENTER  0  COORDINATES:    0.000000    0.000000    0.000000


 **********************************************************************************************************************************
 DATASETS  * FILE   NREC   LENGTH (MB)   RECORD NAMES
              1      19       22.35       500      610      700      900      950      970     1000      129      960     1100
                                          VAR    BASINP    GEOM    SYMINP    ZMAT    AOBASIS   BASIS     P2S    ABASIS      S
                                         1400     1410     1420     1200     1210     1080     1600     1650     1700
                                           T        V       ECP      H0       H01     AOSYM     SMH    MOLCAS    OPER

 PROGRAMS   *        TOTAL       INT
 CPU TIMES  *       158.03    157.69
 REAL TIME  *       170.36 SEC
 DISK USED  *         8.94 GB
 GA USED    *         0.00 MB       (max)       0.00 MB       (current)
 **********************************************************************************************************************************


 PROGRAM * RHF-SCF (OPEN SHELL)       Authors: W. Meyer, H.-J. Werner


 NUMBER OF ELECTRONS:      10+    9-    SPACE SYMMETRY=1    SPIN SYMMETRY: Doublet
 CONVERGENCE THRESHOLDS:    1.00E-05 (Density)    1.00E-07 (Energy)
 MAX. NUMBER OF ITERATIONS:      200
 INTERPOLATION TYPE:            DIIS
 INTERPOLATION STEPS:              2 (START)      1 (STEP)
 LEVEL SHIFTS:                 -0.60 (CLOSED) -0.30 (OPEN)

 Number of closed-shell orbitals:    9 (   4   2   2   1 )
 Number of open-shell orbitals:      1 (   1   0   0   0 )


 Orbital guess generated from atomic densities. Full valence occupancy:    7   3   3   1

 Molecular orbital dump at record        2100.2

 ITERATION    DDIFF          GRAD             ENERGY        2-EL.EN.            DIPOLE MOMENTS         DIIS   ORB.
    1      0.000D+00      0.000D+00       -72.21915439    133.172774    0.00000    0.00000   -7.72069    0    start
    2      0.000D+00      0.150D-01       -72.55957908    131.130159    0.00000    0.00000   -3.14762    1    diag,B
    3      0.127D-01      0.939D-02       -72.63714061    132.405534    0.00000    0.00000   -4.05778    2    diag,B
    4      0.545D-02      0.178D-02       -72.64734916    132.799147    0.00000    0.00000   -3.66365    3    diag,B
    5      0.340D-02      0.826D-03       -72.65076315    132.971255    0.00000    0.00000   -3.54623    4    diag,B
    6      0.156D-02      0.459D-03       -72.65277485    133.028977    0.00000    0.00000   -3.43360    5    diag,B
    7      0.124D-02      0.304D-03       -72.65405737    133.026037    0.00000    0.00000   -3.35162    6    diag,B
    8      0.824D-03      0.232D-03       -72.65492940    133.007917    0.00000    0.00000   -3.26471    7    diag,B
    9      0.688D-03      0.186D-03       -72.65600714    132.967912    0.00000    0.00000   -3.07847    8    diag,B
   10      0.953D-03      0.144D-03       -72.65636332    132.944360    0.00000    0.00000   -3.01882    9    orth
   11      0.444D-03      0.104D-03       -72.65651943    132.928858    0.00000    0.00000   -2.98594    9    diag,B
   12      0.173D-03      0.107D-03       -72.65652458    132.929166    0.00000    0.00000   -2.98411    9    diag,B
   13      0.595D-04      0.106D-03       -72.65648369    132.935633    0.00000    0.00000   -2.98781    9    diag,B
   14      0.653D-04      0.105D-03       -72.65633489    132.965559    0.00000    0.00000   -3.00836    9    diag,B
   15      0.135D-03      0.100D-03       -72.65594968    133.071831    0.00000    0.00000   -3.08036    9    diag,B
   16      0.464D-03      0.970D-04       -72.65582474    133.151027    0.00000    0.00000   -3.13859    9    diag,B
   17      0.338D-03      0.826D-04       -72.65586372    133.302083    0.00000    0.00000   -3.22651    9    diag,B
   18      0.568D-03      0.544D-04       -72.65593322    133.397738    0.00000    0.00000   -3.25905    9    diag,B
   19      0.356D-03      0.560D-04       -72.65578613    133.545492    0.00000    0.00000   -3.33296    9    fixocc
   20      0.634D-03      0.877D-04       -72.65591608    133.493217    0.00000    0.00000   -3.29877    9    orth
   21      0.258D-03      0.595D-04       -72.65601800    133.466149    0.00000    0.00000   -3.26706    9    diag,B
   22      0.185D-03      0.565D-04       -72.65609400    133.447162    0.00000    0.00000   -3.23124    9    diag,B
   23      0.283D-03      0.417D-04       -72.65616662    133.388905    0.00000    0.00000   -3.17812    9    diag,B
   24      0.257D-03      0.304D-04       -72.65619582    133.357913    0.00000    0.00000   -3.15134    9    diag,B
   25      0.174D-03      0.285D-04       -72.65627016    133.277767    0.00000    0.00000   -3.08434    9    diag,B
   26      0.345D-03      0.328D-04       -72.65628523    133.264068    0.00000    0.00000   -3.07207    9    diag,B
   27      0.941D-04      0.334D-04       -72.65633086    133.223006    0.00000    0.00000   -3.04137    9    diag,B
   28      0.124D-03      0.417D-04       -72.65625985    133.287418    0.00000    0.00000   -3.09280    9    diag,B
   29      0.246D-03      0.309D-04       -72.65624096    133.307195    0.00000    0.00000   -3.10800    9    diag,B
   30      0.101D-03      0.303D-04       -72.65623609    133.312737    0.00000    0.00000   -3.11147    9    orth
   31      0.172D-03      0.306D-04       -72.65619936    133.355785    0.00000    0.00000   -3.13392    9    diag,B
   32      0.206D-03      0.291D-04       -72.65606759    133.481281    0.00000    0.00000   -3.22946    9    diag,B
   33      0.621D-03      0.441D-04       -72.65636482    133.201382    0.00000    0.00000   -3.01864    9    diag,B
   34      0.121D-02      0.436D-04       -72.65623204    133.319012    0.00000    0.00000   -3.11261    9    diag,B
   35      0.467D-03      0.283D-04       -72.65598861    133.525485    0.00000    0.00000   -3.25534    9    diag,B
   36      0.932D-03      0.687D-04       -72.65630603    133.246199    0.00000    0.00000   -3.05657    9    diag,B
   37      0.118D-02      0.332D-04       -72.65638560    133.187708    0.00000    0.00000   -3.00893    9    diag,B
   38      0.256D-03      0.451D-04       -72.65613091    133.428413    0.00000    0.00000   -3.19067    9    diag,B
   39      0.992D-03      0.372D-04       -72.65601113    133.514718    0.00000    0.00000   -3.24577    9    diag,B
   40      0.355D-03      0.624D-04       -72.65632817    133.226942    0.00000    0.00000   -3.04371    9    orth
   41      0.113D-02      0.382D-04       -72.65638262    133.188992    0.00000    0.00000   -3.01136    9    diag,B
   42      0.250D-03      0.461D-04       -72.65602202    133.509928    0.00000    0.00000   -3.24247    9    diag,B
   43      0.135D-02      0.560D-04       -72.65640434    133.175460    0.00000    0.00000   -2.99943    9    diag,B
   44      0.133D-02      0.508D-04       -72.65639986    133.178167    0.00000    0.00000   -3.00162    9    diag,B
   45      0.827D-04      0.500D-04       -72.65606617    133.480509    0.00000    0.00000   -3.22352    9    diag,B
   46      0.119D-02      0.500D-04       -72.65627917    133.270166    0.00000    0.00000   -3.07482    9    diag,B
   47      0.841D-03      0.318D-04       -72.65643763    133.156884    0.00000    0.00000   -2.98363    9    diag,B
   48      0.436D-03      0.551D-04       -72.65605399    133.489211    0.00000    0.00000   -3.22962    9    diag,B
   49      0.134D-02      0.524D-04       -72.65629144    133.259107    0.00000    0.00000   -3.06702    9    diag,B
   50      0.951D-03      0.320D-04       -72.65631493    133.238665    0.00000    0.00000   -3.05128    9    orth
   51      0.680D-04      0.351D-04       -72.65585036    133.584175    0.00000    0.00000   -3.28744    9    diag,B
   52      0.146D-02      0.931D-04       -72.65636198    133.202930    0.00000    0.00000   -3.02193    9    diag,B
   53      0.163D-02      0.429D-04       -72.65637542    133.193855    0.00000    0.00000   -3.01462    9    diag,B
   54      0.483D-04      0.452D-04       -72.65599333    133.524687    0.00000    0.00000   -3.25218    9    diag,B
   55      0.138D-02      0.639D-04       -72.65636591    133.200232    0.00000    0.00000   -3.02016    9    diag,B
   56      0.132D-02      0.439D-04       -72.65642336    133.164498    0.00000    0.00000   -2.99085    9    diag,B
   57      0.147D-03      0.531D-04       -72.65610616    133.450022    0.00000    0.00000   -3.20346    9    diag,B
   58      0.108D-02      0.426D-04       -72.65616094    133.399057    0.00000    0.00000   -3.16904    9    diag,B
   59      0.189D-03      0.313D-04       -72.65637664    133.194530    0.00000    0.00000   -3.01456    9    diag,B
   60      0.830D-03      0.412D-04       -72.65613781    133.421967    0.00000    0.00000   -3.18802    9    orth
   61      0.930D-03      0.357D-04       -72.65614661    133.414185    0.00000    0.00000   -3.17937    9    diag,B
   62      0.577D-04      0.329D-04       -72.65636346    133.203696    0.00000    0.00000   -3.02452    9    diag,B
   63      0.812D-03      0.376D-04       -72.65620793    133.347700    0.00000    0.00000   -3.13457    9    diag,B
   64      0.537D-03      0.250D-04       -72.65600719    133.515420    0.00000    0.00000   -3.24814    9    diag,B
   65      0.720D-03      0.647D-04       -72.65638113    133.190179    0.00000    0.00000   -3.01145    9    diag,B
   66      0.134D-02      0.441D-04       -72.65621620    133.336935    0.00000    0.00000   -3.12611    9    diag,B
   67      0.554D-03      0.271D-04       -72.65607927    133.470998    0.00000    0.00000   -3.22067    9    diag,B
   68      0.620D-03      0.468D-04       -72.65640533    133.175515    0.00000    0.00000   -2.99937    9    diag,B
   69      0.123D-02      0.468D-04       -72.65616387    133.395345    0.00000    0.00000   -3.16920    9    diag,B
   70      0.894D-03      0.313D-04       -72.65601852    133.508420    0.00000    0.00000   -3.24442    9    orth
   71      0.480D-03      0.636D-04       -72.65619300    133.363615    0.00000    0.00000   -3.14818    9    diag,B
   72      0.591D-03      0.263D-04       -72.65631062    133.242139    0.00000    0.00000   -3.05510    9    diag,B
   73      0.556D-03      0.322D-04       -72.65583880    133.585714    0.00000    0.00000   -3.29142    9    diag,B
   74      0.154D-02      0.984D-04       -72.65621489    133.338681    0.00000    0.00000   -3.12888    9    diag,B
   75      0.110D-02      0.254D-04       -72.65628412    133.265544    0.00000    0.00000   -3.07339    9    diag,B
   76      0.326D-03      0.299D-04       -72.65593744    133.549784    0.00000    0.00000   -3.26959    9    diag,B
   77      0.118D-02      0.739D-04       -72.65622141    133.331246    0.00000    0.00000   -3.12143    9    diag,B
   78      0.909D-03      0.263D-04       -72.65631545    133.238196    0.00000    0.00000   -3.04996    9    diag,B
   79      0.370D-03      0.349D-04       -72.65596494    133.536695    0.00000    0.00000   -3.26444    9    diag,B
   80      0.127D-02      0.700D-04       -72.65622259    133.329644    0.00000    0.00000   -3.12256    9    orth
   81      0.872D-03      0.260D-04       -72.65632484    133.230267    0.00000    0.00000   -3.04515    9    diag,B
   82      0.399D-03      0.364D-04       -72.65598151    133.529583    0.00000    0.00000   -3.25785    9    diag,B
   83      0.123D-02      0.658D-04       -72.65623695    133.313519    0.00000    0.00000   -3.11005    9    diag,B
   84      0.918D-03      0.268D-04       -72.65632623    133.229142    0.00000    0.00000   -3.04450    9    diag,B
   85      0.356D-03      0.366D-04       -72.65592247    133.556018    0.00000    0.00000   -3.27498    9    diag,B
   86      0.142D-02      0.786D-04       -72.65625154    133.297859    0.00000    0.00000   -3.09753    9    diag,B
   87      0.116D-02      0.275D-04       -72.65629837    133.252382    0.00000    0.00000   -3.06243    9    diag,B
   88      0.185D-03      0.330D-04       -72.65591411    133.560090    0.00000    0.00000   -3.27984    9    diag,B
   89      0.137D-02      0.762D-04       -72.65627732    133.271838    0.00000    0.00000   -3.07668    9    diag,B
   90      0.126D-02      0.308D-04       -72.65629013    133.259915    0.00000    0.00000   -3.06729    9    orth
   91      0.754D-04      0.321D-04       -72.65583748    133.586912    0.00000    0.00000   -3.29325    9    diag,B
   92      0.138D-02      0.971D-04       -72.65623490    133.316203    0.00000    0.00000   -3.11228    9    diag,B
   93      0.116D-02      0.258D-04       -72.65629308    133.257177    0.00000    0.00000   -3.06643    9    diag,B
   94      0.222D-03      0.311D-04       -72.65583891    133.585290    0.00000    0.00000   -3.29060    9    diag,B
   95      0.142D-02      0.102D-03       -72.65618632    133.371049    0.00000    0.00000   -3.15249    9    diag,B
   96      0.966D-03      0.278D-04       -72.65621858    133.334620    0.00000    0.00000   -3.12687    9    diag,B
   97      0.187D-03      0.252D-04       -72.65610294    133.455736    0.00000    0.00000   -3.21593    9    diag,B
   98      0.553D-03      0.274D-04       -72.65600079    133.522251    0.00000    0.00000   -3.25715    9    diag,B
   99      0.352D-03      0.538D-04       -72.65639993    133.177313    0.00000    0.00000   -3.00011    9    diag,B
  100      0.148D-02      0.516D-04       -72.65621062    133.342720    0.00000    0.00000   -3.13145    9    orth
  101      0.655D-03      0.283D-04       -72.65606929    133.477565    0.00000    0.00000   -3.22628    9    diag,B
  102      0.577D-03      0.495D-04       -72.65642971    133.160533    0.00000    0.00000   -2.98725    9    diag,B
  103      0.128D-02      0.531D-04       -72.65614375    133.415600    0.00000    0.00000   -3.18409    9    diag,B
  104      0.102D-02      0.351D-04       -72.65611653    133.440687    0.00000    0.00000   -3.20131    9    diag,B
  105      0.100D-03      0.405D-04       -72.65639046    133.184276    0.00000    0.00000   -3.00847    9    diag,B
  106      0.105D-02      0.431D-04       -72.65614755    133.411944    0.00000    0.00000   -3.18031    9    diag,B
  107      0.931D-03      0.355D-04       -72.65614044    133.418946    0.00000    0.00000   -3.18569    9    diag,B
  108      0.586D-04      0.371D-04       -72.65641114    133.171976    0.00000    0.00000   -3.00058    9    diag,B
  109      0.105D-02      0.431D-04       -72.65613297    133.425944    0.00000    0.00000   -3.18920    9    diag,B
  110      0.106D-02      0.389D-04       -72.65617417    133.384047    0.00000    0.00000   -3.16083    9    orth
  111      0.167D-03      0.315D-04       -72.65633549    133.222304    0.00000    0.00000   -3.04088    9    diag,B
  112      0.648D-03      0.349D-04       -72.65623934    133.311485    0.00000    0.00000   -3.11112    9    diag,B
  113      0.337D-03      0.214D-04       -72.65616029    133.399461    0.00000    0.00000   -3.17788    9    diag,B
  114      0.349D-03      0.227D-04       -72.65635447    133.208871    0.00000    0.00000   -3.03404    9    diag,B
  115      0.738D-03      0.297D-04       -72.65622806    133.323587    0.00000    0.00000   -3.11940    9    diag,B
  116      0.438D-03      0.225D-04       -72.65623147    133.319702    0.00000    0.00000   -3.11636    9    diag,B
  117      0.783D-04      0.237D-04       -72.65637942    133.191755    0.00000    0.00000   -3.01865    9    diag,B
  118      0.555D-03      0.335D-04       -72.65610173    133.452219    0.00000    0.00000   -3.21045    9    diag,B
  119      0.109D-02      0.441D-04       -72.65616139    133.397785    0.00000    0.00000   -3.17091    9    diag,B
  120      0.237D-03      0.331D-04       -72.65629809    133.253081    0.00000    0.00000   -3.06090    9    orth
  121      0.647D-03      0.306D-04       -72.65611382    133.439712    0.00000    0.00000   -3.20978    9    diag,B
  122      0.855D-03      0.392D-04       -72.65615038    133.409131    0.00000    0.00000   -3.17974    9    diag,B
  123      0.154D-03      0.330D-04       -72.65633812    133.220523    0.00000    0.00000   -3.02970    9    diag,B
  124      0.849D-03      0.343D-04       -72.65619133    133.358872    0.00000    0.00000   -3.15583    9    diag,B
  125      0.618D-03      0.303D-04       -72.65609886    133.451893    0.00000    0.00000   -3.21862    9    diag,B
  126      0.487D-03      0.432D-04       -72.65636944    133.197375    0.00000    0.00000   -3.01470    9    diag,B
  127      0.112D-02      0.437D-04       -72.65607903    133.469957    0.00000    0.00000   -3.22346    9    diag,B
  128      0.111D-02      0.476D-04       -72.65609274    133.459334    0.00000    0.00000   -3.21772    9    diag,B
  129      0.836D-04      0.447D-04       -72.65629468    133.256097    0.00000    0.00000   -3.06412    9    diag,B
  130      0.855D-03      0.303D-04       -72.65614542    133.414147    0.00000    0.00000   -3.18527    9    orth
  131      0.646D-03      0.326D-04       -72.65603707    133.496881    0.00000    0.00000   -3.24631    9    diag,B
  132      0.444D-03      0.531D-04       -72.65630785    133.244355    0.00000    0.00000   -3.05060    9    diag,B
  133      0.113D-02      0.350D-04       -72.65616989    133.388666    0.00000    0.00000   -3.16708    9    diag,B
  134      0.584D-03      0.299D-04       -72.65599284    133.519565    0.00000    0.00000   -3.26489    9    diag,B
  135      0.643D-03      0.642D-04       -72.65628289    133.266540    0.00000    0.00000   -3.06678    9    diag,B
  136      0.113D-02      0.327D-04       -72.65619940    133.355911    0.00000    0.00000   -3.14228    9    diag,B
  137      0.359D-03      0.265D-04       -72.65607732    133.467034    0.00000    0.00000   -3.23663    9    diag,B
  138      0.502D-03      0.430D-04       -72.65642326    133.164742    0.00000    0.00000   -2.97820    9    diag,B
  139      0.129D-02      0.517D-04       -72.65614152    133.416068    0.00000    0.00000   -3.18850    9    diag,B
  140      0.109D-02      0.372D-04       -72.65610632    133.446676    0.00000    0.00000   -3.21364    9    orth
  141      0.132D-03      0.431D-04       -72.65635389    133.209052    0.00000    0.00000   -3.01901    9    diag,B
  142      0.102D-02      0.387D-04       -72.65616690    133.390067    0.00000    0.00000   -3.17119    9    diag,B
  143      0.749D-03      0.324D-04       -72.65613112    133.424780    0.00000    0.00000   -3.19890    9    diag,B
  144      0.141D-03      0.381D-04       -72.65636250    133.203495    0.00000    0.00000   -3.01768    9    diag,B
  145      0.906D-03      0.353D-04       -72.65614801    133.408345    0.00000    0.00000   -3.18541    9    diag,B
  146      0.852D-03      0.369D-04       -72.65613546    133.420937    0.00000    0.00000   -3.19404    9    diag,B
  147      0.877D-04      0.387D-04       -72.65633128    133.226312    0.00000    0.00000   -3.03634    9    diag,B
  148      0.810D-03      0.297D-04       -72.65619921    133.352012    0.00000    0.00000   -3.14731    9    diag,B
  149      0.568D-03      0.295D-04       -72.65611026    133.444433    0.00000    0.00000   -3.20806    9    diag,B
  150      0.363D-03      0.423D-04       -72.65641439    133.167025    0.00000    0.00000   -2.99838    9    orth
  151      0.107D-02      0.533D-04       -72.65615898    133.401801    0.00000    0.00000   -3.17094    9    diag,B
  152      0.872D-03      0.272D-04       -72.65613227    133.427907    0.00000    0.00000   -3.19381    9    diag,B
  153      0.135D-03      0.310D-04       -72.65667808    133.054862    0.00000    0.00000   -2.89375    9    diag,B
  154      0.148D-02      0.947D-04       -72.65617224    133.385289    0.00000    0.00000   -3.16244    9    diag,B
  155      0.129D-02      0.324D-04       -72.65612203    133.435092    0.00000    0.00000   -3.19718    9    diag,B
  156      0.216D-03      0.406D-04       -72.65635218    133.210208    0.00000    0.00000   -3.03068    9    diag,B
  157      0.913D-03      0.355D-04       -72.65609700    133.456456    0.00000    0.00000   -3.21227    9    diag,B
  158      0.973D-03      0.446D-04       -72.65609872    133.455247    0.00000    0.00000   -3.21176    9    diag,B
  159      0.908D-04      0.433D-04       -72.65630657    133.245770    0.00000    0.00000   -3.05747    9    diag,B
  160      0.829D-03      0.322D-04       -72.65615412    133.405484    0.00000    0.00000   -3.17876    9    orth
  161      0.598D-03      0.312D-04       -72.65605806    133.484256    0.00000    0.00000   -3.23354    9    diag,B
  162      0.392D-03      0.499D-04       -72.65633660    133.221499    0.00000    0.00000   -3.03480    9    diag,B
  163      0.108D-02      0.396D-04       -72.65617588    133.381928    0.00000    0.00000   -3.16165    9    diag,B
  164      0.627D-03      0.295D-04       -72.65610487    133.449664    0.00000    0.00000   -3.21111    9    diag,B
  165      0.286D-03      0.404D-04       -72.65638525    133.187850    0.00000    0.00000   -3.00764    9    diag,B
  166      0.103D-02      0.456D-04       -72.65618997    133.366324    0.00000    0.00000   -3.14948    9    diag,B
  167      0.678D-03      0.279D-04       -72.65610767    133.447183    0.00000    0.00000   -3.20978    9    diag,B
  168      0.357D-03      0.398D-04       -72.65638980    133.185044    0.00000    0.00000   -3.00169    9    diag,B
  169      0.109D-02      0.478D-04       -72.65614107    133.417319    0.00000    0.00000   -3.18830    9    diag,B
  170      0.966D-03      0.355D-04       -72.65610254    133.450982    0.00000    0.00000   -3.21295    9    orth
  171      0.140D-03      0.424D-04       -72.65632503    133.230593    0.00000    0.00000   -3.04054    9    diag,B
  172      0.924D-03      0.369D-04       -72.65614689    133.412162    0.00000    0.00000   -3.18534    9    diag,B
  173      0.761D-03      0.322D-04       -72.65613467    133.423389    0.00000    0.00000   -3.19425    9    diag,B
  174      0.448D-04      0.345D-04       -72.65629700    133.255104    0.00000    0.00000   -3.05898    9    diag,B
  175      0.719D-03      0.283D-04       -72.65618636    133.369664    0.00000    0.00000   -3.15580    9    diag,B
  176      0.478D-03      0.269D-04       -72.65618676    133.365001    0.00000    0.00000   -3.16370    9    diag,B
  177      0.100D-03      0.212D-04       -72.65637447    133.193784    0.00000    0.00000   -3.02480    9    diag,B
  178      0.758D-03      0.329D-04       -72.65615455    133.403971    0.00000    0.00000   -3.17855    9    diag,B
  179      0.792D-03      0.321D-04       -72.65615741    133.402091    0.00000    0.00000   -3.17577    9    diag,B
  180      0.151D-03      0.305D-04       -72.65636053    133.204025    0.00000    0.00000   -3.02987    9    orth
  181      0.811D-03      0.329D-04       -72.65612337    133.434464    0.00000    0.00000   -3.19740    9    diag,B
  182      0.953D-03      0.381D-04       -72.65613398    133.424916    0.00000    0.00000   -3.19112    9    diag,B
  183      0.352D-04      0.359D-04       -72.65629880    133.252564    0.00000    0.00000   -3.06780    9    diag,B
  184      0.732D-03      0.260D-04       -72.65625366    133.294730    0.00000    0.00000   -3.09873    9    diag,B
  185      0.173D-03      0.254D-04       -72.65604673    133.493761    0.00000    0.00000   -3.23860    9    diag,B
  186      0.814D-03      0.491D-04       -72.65624929    133.300600    0.00000    0.00000   -3.10367    9    diag,B
  187      0.791D-03      0.224D-04       -72.65632673    133.228160    0.00000    0.00000   -3.04677    9    diag,B
  188      0.284D-03      0.334D-04       -72.65604826    133.492412    0.00000    0.00000   -3.23670    9    diag,B
  189      0.108D-02      0.505D-04       -72.65609813    133.457375    0.00000    0.00000   -3.21344    9    diag,B
  190      0.144D-03      0.386D-04       -72.65629668    133.254075    0.00000    0.00000   -3.06388    9    orth
  191      0.810D-03      0.313D-04       -72.65633755    133.219379    0.00000    0.00000   -3.04140    9    diag,B
  192      0.212D-03      0.357D-04       -72.65612076    133.438955    0.00000    0.00000   -3.20162    9    diag,B
  193      0.913D-03      0.308D-04       -72.65626395    133.285049    0.00000    0.00000   -3.08952    9    diag,B
  194      0.601D-03      0.257D-04       -72.65644377    133.151866    0.00000    0.00000   -2.98518    9    diag,B
  195      0.546D-03      0.533D-04       -72.65612531    133.433440    0.00000    0.00000   -3.19544    9    diag,B
  196      0.109D-02      0.362D-04       -72.65608011    133.469866    0.00000    0.00000   -3.22074    9    diag,B
  197      0.192D-03      0.449D-04       -72.65628626    133.263431    0.00000    0.00000   -3.07477    9    diag,B
  198      0.814D-03      0.274D-04       -72.65621981    133.333190    0.00000    0.00000   -3.12843    9    diag,B
  199      0.285D-03      0.224D-04       -72.65609296    133.463731    0.00000    0.00000   -3.22437    9    orth
  200      0.536D-03      0.290D-04       -72.65610326    133.454776    0.00000    0.00000   -3.22280    0    orth

 Final alpha occupancy:   5   2   2   1
 Final beta  occupancy:   4   2   2   1

