
 Primary working directories    : /global/cscratch1/sd/haihan
 Secondary working directories  : /global/cscratch1/sd/haihan
 Wavefunction directory         : /global/homes/h/haihan/Research/ECP/f_group_element_ecps/Zr/Molpro/molecule/ZrO/UC/wfu/
 Main file repository           : /global/cscratch1/sd/haihan/

 SHA1      : 19cd028119e0e09f93f0674bd8af7968d9b3eff6
 NAME      : 2015.1.36
 ARCHNAME  : linux/x86_64
 FC        : /opt/cray/pe/craype/2.5.14/bin/ftn
 BLASLIB   : -L/opt/intel/compilers_and_libraries_2018.1.163/linux/mkl/lib/intel64 -Wl,-_start-group -lmkl_intel_ilp64 -lmkl_intel_thread -lmkl_core -Wl,-_end-group -liomp5
 id        : lbl

 Nodes     nprocs
 nid01894    11
 Number of processes for MPI-2 version of Molpro:   nprocs(total)=   12   nprocs(compute)=   11   nprocs(helper)=    1

 Using customized tuning parameters: mindgm=7; mindgv=16; mindgc=1; mindgr=1; noblas=0; minvec=7
 default implementation of scratch files=sf  

 ***,Calculation for all-electron YH molecule, SCF and CCSD(T)
 memory,1,g
 gthresh,twoint=1.0E-15
 gthresh,throvl=1.0E-15
 
 set,dkroll=1,dkho=10,dkhp=4
 basis={
 Including file /global/u2/h/haihan/Research/ECP/f_group_element_ecps/Zr/Molpro/molecule/ZrO/UC/r_1.20/../generate/Zr-aug-cc-pwCVTZ.basis
 Including file /global/u2/h/haihan/Research/ECP/f_group_element_ecps/Zr/Molpro/molecule/ZrO/UC/r_1.20/../generate/O-aug-cc-pwCVTZ.basis
 }
 
 Zr_ccsd=-3596.607176
 O_ccsd= -75.03694110
 
                                                                                 !These are the wf cards parameters
 ne = 48
 symm = 1
 ss= 0
 
                                                                                 !There are irrep cards paramters
 A1=13
 B1=5
 B2=5
 A2=1
 
 
 geometry={
     2
     ZrO molecule
     Zr 0.0 0.0 0.0
     O 0.0 0.0 1.20
 }
 {rhf,nitord=20;
  maxit,200;
  wf,ne,symm,ss
  occ,A1,B1,B2,A2
  closed,A1,B1,B2,A2
  print,orbitals=2
 }
 scf=energy
 _CC_NORM_MAX=2.0
 {rccsd(t),shifts=0.5,shiftp=0.5,thrdis=1.0;diis,1,1,15,1;maxit,200;core,8,3,3,1}
 ccsd=energy
 bind=ccsd-Zr_ccsd-O_ccsd
 
 
 table,1.20,scf,ccsd,bind
 save
 type,csv
 

 Variables initialized (889), CPU time= 0.01 sec
 Commands  initialized (702), CPU time= 0.02 sec, 572 directives.
 Default parameters read. Elapsed time= 0.14 sec

 Checking input...
 Passed
1


                                         ***  PROGRAM SYSTEM MOLPRO  ***
                                       Copyright, TTI GmbH Stuttgart, 2015
                                    Version 2015.1 linked Dec 29 2018 15:55:43


 **********************************************************************************************************************************
 LABEL *   Calculation for all-electron YH molecule, SCF and CCSD(T)                     
  64 bit mpp version                                                                     DATE: 24-Sep-22          TIME: 18:26:12  
 **********************************************************************************************************************************

 SHA1:             19cd028119e0e09f93f0674bd8af7968d9b3eff6
 **********************************************************************************************************************************

 THRESHOLDS:

 ZERO    =  1.00D-12  ONEINT  =  1.00D-12  TWOINT  =  1.00D-15  PREFAC  =  1.00D-14  LOCALI  =  1.00D-09  EORDER  =  1.00D-04
 ENERGY  =  0.00D+00  ETEST   =  0.00D+00  EDENS   =  0.00D+00  THRDEDEF=  1.00D-06  GRADIENT=  1.00D-02  STEP    =  1.00D-03
 ORBITAL =  1.00D-05  CIVEC   =  1.00D-05  COEFF   =  1.00D-04  PRINTCI =  5.00D-02  PUNCHCI =  9.90D+01  OPTGRAD =  3.00D-04
 OPTENERG=  1.00D-06  OPTSTEP =  3.00D-04  THRGRAD =  1.00D-10  COMPRESS=  1.00D-11  VARMIN  =  1.00D-07  VARMAX  =  1.00D-03
 THRDOUB =  0.00D+00  THRDIV  =  1.00D-05  THRRED  =  1.00D-07  THRPSP  =  1.00D+00  THRDC   =  1.00D-10  THRCS   =  1.00D-10
 THRNRM  =  1.00D-08  THREQ   =  0.00D+00  THRDE   =  1.00D+00  THRREF  =  1.00D-05  SPARFAC =  1.00D+00  THRDLP  =  1.00D-07
 THRDIA  =  1.00D-10  THRDLS  =  1.00D-07  THRGPS  =  0.00D+00  THRKEX  =  0.00D+00  THRDIS  =  2.00D-01  THRVAR  =  1.00D-10
 THRLOC  =  1.00D-06  THRGAP  =  1.00D-06  THRLOCT = -1.00D+00  THRGAPT = -1.00D+00  THRORB  =  1.00D-06  THRMLTP =  0.00D+00
 THRCPQCI=  1.00D-10  KEXTA   =  0.00D+00  THRCOARS=  0.00D+00  SYMTOL  =  1.00D-06  GRADTOL =  1.00D-06  THROVL  =  1.00D-08
 THRORTH =  1.00D-08  GRID    =  1.00D-06  GRIDMAX =  1.00D-03  DTMAX   =  0.00D+00  THROCCDE=  1.00D-01  THROCCDE=  1.00D-01



 THRESHOLDS:

 ZERO    =  1.00D-12  ONEINT  =  1.00D-12  TWOINT  =  1.00D-15  PREFAC  =  1.00D-14  LOCALI  =  1.00D-09  EORDER  =  1.00D-04
 ENERGY  =  0.00D+00  ETEST   =  0.00D+00  EDENS   =  0.00D+00  THRDEDEF=  1.00D-06  GRADIENT=  1.00D-02  STEP    =  1.00D-03
 ORBITAL =  1.00D-05  CIVEC   =  1.00D-05  COEFF   =  1.00D-04  PRINTCI =  5.00D-02  PUNCHCI =  9.90D+01  OPTGRAD =  3.00D-04
 OPTENERG=  1.00D-06  OPTSTEP =  3.00D-04  THRGRAD =  1.00D-10  COMPRESS=  1.00D-11  VARMIN  =  1.00D-07  VARMAX  =  1.00D-03
 THRDOUB =  0.00D+00  THRDIV  =  1.00D-05  THRRED  =  1.00D-07  THRPSP  =  1.00D+00  THRDC   =  1.00D-10  THRCS   =  1.00D-10
 THRNRM  =  1.00D-08  THREQ   =  0.00D+00  THRDE   =  1.00D+00  THRREF  =  1.00D-05  SPARFAC =  1.00D+00  THRDLP  =  1.00D-07
 THRDIA  =  1.00D-10  THRDLS  =  1.00D-07  THRGPS  =  0.00D+00  THRKEX  =  0.00D+00  THRDIS  =  2.00D-01  THRVAR  =  1.00D-10
 THRLOC  =  1.00D-06  THRGAP  =  1.00D-06  THRLOCT = -1.00D+00  THRGAPT = -1.00D+00  THRORB  =  1.00D-06  THRMLTP =  0.00D+00
 THRCPQCI=  1.00D-10  KEXTA   =  0.00D+00  THRCOARS=  0.00D+00  SYMTOL  =  1.00D-06  GRADTOL =  1.00D-06  THROVL  =  1.00D-15
 THRORTH =  1.00D-08  GRID    =  1.00D-06  GRIDMAX =  1.00D-03  DTMAX   =  0.00D+00  THROCCDE=  1.00D-01  THROCCDE=  1.00D-01


 SETTING DKROLL         =         1.00000000                                  
 SETTING DKHO           =        10.00000000                                  
 SETTING DKHP           =         4.00000000                                  

 Variable memory set to 1000000000 words,  buffer space   230000 words

 SETTING BASIS          =    USERDEF
 SETTING ZR_CCSD        =     -3596.60717600                                  
 SETTING O_CCSD         =       -75.03694110                                  
 SETTING NE             =        48.00000000                                  
 SETTING SYMM           =         1.00000000                                  
 SETTING SS             =     0.00000000D+00                                  
 SETTING A1             =        13.00000000                                  
 SETTING B1             =         5.00000000                                  
 SETTING B2             =         5.00000000                                  
 SETTING A2             =         1.00000000                                  

Geometry recognized as XYZ



 Recomputing integrals since basis changed


 Using spherical harmonics



 PROGRAM * SEWARD (Integral evaluation for generally contracted gaussian basis sets)     Author: Roland Lindh, 1990

 Geometry written to block  1 of record 700


 Point group  C2v 



 ATOMIC COORDINATES

 NR  ATOM    CHARGE       X              Y              Z

   1  ZR     40.00    0.000000000    0.000000000    0.000000000
   2  O       8.00    0.000000000    0.000000000    2.267671349

 Bond lengths in Bohr (Angstrom)

 1-2  2.267671349
     ( 1.200000000)

 NUCLEAR CHARGE:                   48
 NUMBER OF PRIMITIVE AOS:         401
 NUMBER OF SYMMETRY AOS:          341
 NUMBER OF CONTRACTIONS:          341   ( 149A1  +  78B1  +  78B2  +  36A2  )
 NUMBER OF CORE ORBITALS:          19   (  10A1  +   4B1  +   4B2  +   1A2  )
 NUMBER OF VALENCE ORBITALS:       10   (   5A1  +   2B1  +   2B2  +   1A2  )


 NUCLEAR REPULSION ENERGY  141.11392291

 One-electron integrals computed with SEWARD

 10nd-order Douglas-Kroll-Hess method activated. McWeeny DKH parametrization is used.

 Computing Douglas-Kroll / X2C integrals

 AO integral compression algorithm  1   Integral accuracy      1.0D-15

     2167.931 MB (compressed) written to integral file ( 51.0%)

     Node minimum: 133.956 MB, node maximum: 335.282 MB


 NUMBER OF SORTED TWO-ELECTRON INTEGRALS:   39965826.     BUFFER LENGTH:  32768
 NUMBER OF SEGMENTS:   2  SEGMENT LENGTH:   31981512      RECORD LENGTH: 524288

 Memory used in sort:      32.54 MW

 SORT1 READ   530794036. AND WROTE    20869463. INTEGRALS IN     61 RECORDS. CPU TIME:     9.15 SEC, REAL TIME:    11.23 SEC
 SORT2 READ   228477352. AND WROTE   439765440. INTEGRALS IN   5621 RECORDS. CPU TIME:     1.17 SEC, REAL TIME:     2.90 SEC

 Node minimum:    39935592.  Node maximum:    40095769. integrals

 OPERATOR DM      FOR CENTER  0  COORDINATES:    0.000000    0.000000    0.000000

 EXTRA SYMMETRY OF AOS IN SYMMETRY 1:   1 1 1 1 1 1 1 1 1 1   1 1 1 1 1 1 1 1 1 1   1 1 1 1 1 1 1 1 1 1   1 1 1 1 1 1 1 1 1 1
                                        1 1 1 1 1 1 1 1 1 1   1 1 1 1 1 1 1 1 1 1   2 1 2 1 2 1 2 1 2 1   2 1 2 1 2 1 2 1 2 1
                                        2 1 2 1 2 1 2 1 2 1   2 1 2 1 2 1 2 1 2 1   2 1 2 1 2 1 2 1 3 2   1 3 2 1 3 2 1 1 1 1
                                        1 1 1 1 1 1 1 1 1 1   1 1 1 1 1 1 1 1 2 1   2 1 2 1 2 1 2 1 2
 EXTRA SYMMETRY OF AOS IN SYMMETRY 2:   1 1 1 1 1 1 1 1 1 1   1 1 1 1 1 1 1 1 1 1   1 1 1 1 1 1 1 1 1 1   1 1 1 1 1 1 1 1 1 1
                                        1 1 1 1 1 1 1 1 1 2   1 2 1 2 1 2 1 2 1 2   1 2 1 1 1 1 1 1 1 1   1 1 1 1 1 2 1 2
 EXTRA SYMMETRY OF AOS IN SYMMETRY 3:   1 1 1 1 1 1 1 1 1 1   1 1 1 1 1 1 1 1 1 1   1 1 1 1 1 1 1 1 1 1   1 1 1 1 1 1 1 1 1 1
                                        1 1 1 1 1 1 1 1 1 2   1 2 1 2 1 2 1 2 1 2   1 2 1 1 1 1 1 1 1 1   1 1 1 1 1 2 1 2
 EXTRA SYMMETRY OF AOS IN SYMMETRY 4:   1 1 1 1 1 1 1 1 1 1   1 1 1 1 1 1 1 1 1 1   1 1 1 1 1 2 1 2 1 2   1 1 1 1 1 1

 Eigenvalues of metric

         1 0.115E-07 0.758E-07 0.977E-07 0.111E-06 0.489E-06 0.987E-06 0.313E-05 0.612E-05
         2 0.121E-07 0.952E-07 0.116E-06 0.104E-05 0.788E-05 0.105E-04 0.336E-04 0.400E-04
         3 0.121E-07 0.952E-07 0.116E-06 0.104E-05 0.788E-05 0.105E-04 0.336E-04 0.400E-04
         4 0.977E-07 0.108E-04 0.404E-04 0.433E-03 0.209E-02 0.584E-02 0.162E-01 0.185E-01


 **********************************************************************************************************************************
 DATASETS  * FILE   NREC   LENGTH (MB)   RECORD NAMES
              1      22       22.36       500      610      700      900      950      970     1000      129      960     1700   
                                          VAR    BASINP    GEOM    SYMINP    ZMAT    AOBASIS   BASIS     P2S    ABASIS    OPER   
                                         1101     1401     1411     1412     1650     1100     1400     1410     1200     1210   
                                          SR      EKINR    POTR     PVPR    MOLCAS      S      EKIN      POT      H0       H01  
                                         1080     1600   
                                         AOSYM     SMH  

 PROGRAMS   *        TOTAL       INT
 CPU TIMES  *        65.84     65.69
 REAL TIME  *        71.82 SEC
 DISK USED  *         4.91 GB      
 GA USED    *         0.00 MB       (max)       0.00 MB       (current)
 **********************************************************************************************************************************


 PROGRAM * RHF-SCF (CLOSED SHELL)       Authors: W. Meyer, H.-J. Werner


 NUMBER OF ELECTRONS:      24+   24-    SPACE SYMMETRY=1    SPIN SYMMETRY: Singlet 
 CONVERGENCE THRESHOLDS:    1.00E-05 (Density)    1.00E-07 (Energy)
 MAX. NUMBER OF ITERATIONS:      200
 INTERPOLATION TYPE:            DIIS
 INTERPOLATION STEPS:              2 (START)      1 (STEP)
 LEVEL SHIFTS:                  0.00 (CLOSED)  0.00 (OPEN) 

 Number of closed-shell orbitals:   24 (  13   5   5   1 )


 Orbital guess generated from atomic densities. Full valence occupancy:   15   6   6   2

 Molecular orbital dump at record        2100.2

 ITERATION    DDIFF          GRAD             ENERGY        2-EL.EN.            DIPOLE MOMENTS         DIIS   ORB.
    1      0.000D+00      0.000D+00     -3670.55100878   3046.878815    0.00000    0.00000    0.55008    0    start
    2      0.000D+00      0.848D-02     -3670.67355606   3080.594692    0.00000    0.00000    1.96912    1    diag
    3      0.557D-01      0.618D-02     -3670.72107756   3072.156194    0.00000    0.00000    1.17556    2    diag
    4      0.945D-02      0.770D-03     -3670.72284134   3071.713537    0.00000    0.00000    1.22087    3    diag
    5      0.255D-02      0.210D-03     -3670.72319141   3072.260597    0.00000    0.00000    1.19536    4    diag
    6      0.134D-02      0.833D-04     -3670.72325306   3072.297309    0.00000    0.00000    1.20615    5    diag
    7      0.423D-03      0.303D-04     -3670.72326450   3072.374884    0.00000    0.00000    1.20695    6    diag
    8      0.267D-03      0.740D-05     -3670.72326531   3072.380866    0.00000    0.00000    1.20923    7    diag
    9      0.673D-04      0.167D-05     -3670.72326535   3072.382029    0.00000    0.00000    1.21036    8    diag
   10      0.144D-04      0.525D-06     -3670.72326535   3072.381106    0.00000    0.00000    1.21081    9    orth
   11      0.504D-05      0.117D-06     -3670.72326535   3072.381205    0.00000    0.00000    1.21089    0    orth

 Final occupancy:  13   5   5   1

 !RHF STATE 1.1 Energy              -3670.723265354720
 Nuclear energy                       141.11392291
 One-electron energy                -5348.02779096
 Two-electron energy                 1536.19060270
 Virial quotient                       -0.91216882
 !RHF STATE 1.1 Dipole moment           0.00000000     0.00000000     1.21088701
 Dipole moment /Debye                   0.00000000     0.00000000     3.07756621

 ELECTRON ORBITALS
 =================


   Orb  Occ    Energy  Couls-En    Coefficients

                                   1 1s      1 1s      1 1s      1 1s      1 1s      1 1s      1 1s      1 1s      1 1s      1 1s   
                                   1 1s      1 1s      1 1s      1 1s      1 1s      1 1s      1 1s      1 1s      1 1s      1 1s   
                                   1 1s      1 1s      1 1s      1 1s      1 1s      1 1s      1 1s      1 1s      1 1s      1 1s   
                                   1 1s      1 2pz     1 2pz     1 2pz     1 2pz     1 2pz     1 2pz     1 2pz     1 2pz     1 2pz  
                                   1 2pz     1 2pz     1 2pz     1 2pz     1 2pz     1 2pz     1 2pz     1 2pz     1 2pz     1 2pz  
                                   1 2pz     1 2pz     1 2pz     1 2pz     1 2pz     1 2pz     1 2pz     1 2pz     1 2pz     1 3d0  
                                   1 3d2+    1 3d0     1 3d2+    1 3d0     1 3d2+    1 3d0     1 3d2+    1 3d0     1 3d2+    1 3d0  
                                   1 3d2+    1 3d0     1 3d2+    1 3d0     1 3d2+    1 3d0     1 3d2+    1 3d0     1 3d2+    1 3d0  
                                   1 3d2+    1 3d0     1 3d2+    1 3d0     1 3d2+    1 3d0     1 3d2+    1 3d0     1 3d2+    1 3d0  
                                   1 3d2+    1 3d0     1 3d2+    1 3d0     1 3d2+    1 3d0     1 3d2+    1 3d0     1 3d2+    1 4f0  
                                   1 4f2+    1 4f0     1 4f2+    1 4f0     1 4f2+    1 4f0     1 4f2+    1 5g0     1 5g4+    1 5g2+ 
                                   1 5g0     1 5g4+    1 5g2+    1 5g0     1 5g4+    1 5g2+    2 1s      2 1s      2 1s      2 1s   
                                   2 1s      2 1s      2 1s      2 1s      2 1s      2 1s      2 1s      2 1s      2 1s      2 2pz  
                                   2 2pz     2 2pz     2 2pz     2 2pz     2 2pz     2 2pz     2 2pz     2 3d0     2 3d2+    2 3d0  
                                   2 3d2+    2 3d0     2 3d2+    2 3d0     2 3d2+    2 4f0     2 4f2+    2 4f0     2 4f2+ 

   1.1   2  -665.0634-1486.2110  0.000042  0.000111  0.000306  0.000707  0.001535  0.003175  0.006516  0.013482  0.028412  0.060272
                                 0.123435  0.225419  0.318991  0.279038 -0.004791  0.105661  0.006276  0.002716 -0.003387  0.004467
                                -0.004798  0.003922 -0.005284  0.004051 -0.000355  0.000146 -0.000125  0.000047 -0.000024  0.000006
                                -0.000001  0.000000  0.000000  0.000000  0.000000  0.000000  0.000000  0.000001  0.000003  0.000005
                                 0.000003  0.000002 -0.000029  0.000048 -0.000082  0.000195 -0.000336  0.000351 -0.000289  0.000589
                                -0.000756  0.000422 -0.000156  0.000148 -0.000133  0.000010 -0.000003 -0.000000  0.000000 -0.000000
                                -0.000000 -0.000000  0.000000 -0.000001  0.000000 -0.000001 -0.000000  0.000001 -0.000000 -0.000003
                                 0.000000  0.000004 -0.000000 -0.000002  0.000000  0.000002 -0.000000 -0.000012  0.000000  0.000074
                                -0.000000 -0.000211  0.000000  0.000619 -0.000000 -0.000574  0.000000  0.000110 -0.000000 -0.000021
                                 0.000000  0.000010 -0.000000 -0.000000  0.000000 -0.000001 -0.000000  0.000000  0.000000 -0.000000
                                -0.000000  0.000001 -0.000000 -0.000000 -0.000000  0.000000 -0.000000  0.000000  0.000000 -0.000000
                                 0.000000 -0.000000 -0.000000 -0.000000 -0.000000 -0.000000 -0.000000  0.000000 -0.000000  0.000000
                                -0.000000  0.000003  0.000007  0.000004 -0.000010  0.000036  0.000008 -0.000006 -0.000006 -0.000000
                                -0.000001  0.000000 -0.000000 -0.000024  0.000000  0.000001  0.000000 -0.000000 -0.000000  0.000003
                                 0.000000  0.000006  0.000000  0.000000 -0.000000  0.000000  0.000000 -0.000003 -0.000000

   2.1   2   -94.7820 -301.5738 -0.000014 -0.000036 -0.000101 -0.000234 -0.000508 -0.001055 -0.002176 -0.004544 -0.009722 -0.021199
                                -0.045700 -0.092286 -0.158108 -0.186355  0.004604 -0.034290  0.360966  0.542696  0.231097  0.018539
                                 0.011036  0.001439 -0.004853  0.004358 -0.000639  0.000237 -0.000260  0.000101 -0.000048  0.000012
                                -0.000003  0.000000  0.000000  0.000001  0.000002  0.000007  0.000023  0.000071  0.000192  0.000426
                                 0.000719  0.000899  0.000645 -0.000014  0.000020  0.000352 -0.000654  0.000716 -0.000593  0.001231
                                -0.001574  0.000874 -0.000310  0.000303 -0.000283  0.000027 -0.000005 -0.000000  0.000000 -0.000000
                                -0.000000 -0.000000 -0.000000  0.000001 -0.000000 -0.000004 -0.000000 -0.000009 -0.000000  0.000018
                                -0.000000 -0.000015  0.000000  0.000005 -0.000000  0.000002  0.000000 -0.000015 -0.000000  0.000124
                                 0.000000 -0.000377 -0.000000  0.001149  0.000000 -0.001070 -0.000000  0.000203  0.000000 -0.000048
                                -0.000000  0.000027 -0.000000  0.000000  0.000000 -0.000001 -0.000000  0.000000  0.000000  0.000002
                                 0.000000 -0.000001 -0.000000  0.000001 -0.000000  0.000001  0.000000 -0.000004  0.000000  0.000000
                                 0.000001 -0.000000 -0.000000 -0.000000  0.000000 -0.000000  0.000000  0.000000  0.000000  0.000000
                                -0.000000  0.000001  0.000001  0.000002 -0.000012  0.000075  0.000014 -0.000001 -0.000001 -0.000000
                                -0.000003  0.000002  0.000000 -0.000054 -0.000000  0.000003  0.000000 -0.000001 -0.000000  0.000004
                                 0.000000  0.000014  0.000000  0.000000  0.000000  0.000002 -0.000000 -0.000004 -0.000000

   3.1   2   -84.3123 -287.3698  0.000000  0.000000  0.000000  0.000001  0.000001  0.000003  0.000006  0.000012  0.000026  0.000056
                                 0.000121  0.000244  0.000419  0.000499 -0.000016  0.000083 -0.001043 -0.001377 -0.000532 -0.000044
                                -0.000102  0.000108 -0.000316  0.000314 -0.000034 -0.000005 -0.000155  0.000037  0.000063 -0.000011
                                 0.000002  0.000014  0.000054  0.000210  0.000776  0.002803  0.009565  0.029700  0.080890  0.181355
                                 0.307712  0.343342  0.167486  0.035816 -0.004813  0.087027 -0.114141  0.096020 -0.053481  0.064352
                                -0.063381  0.024386 -0.005067  0.002211 -0.001633  0.000176  0.000001  0.000005 -0.000002  0.000000
                                -0.000000  0.000002 -0.000000  0.000010  0.000000  0.000042 -0.000000  0.000133  0.000000  0.000164
                                 0.000000 -0.000032 -0.000000  0.000033  0.000000  0.000014 -0.000000 -0.000052  0.000000  0.000333
                                -0.000000 -0.000843  0.000000  0.002099 -0.000000 -0.001814  0.000000  0.000272 -0.000000 -0.000051
                                 0.000000  0.000030 -0.000000  0.000015  0.000000 -0.000003  0.000000  0.000000  0.000000 -0.000017
                                -0.000000 -0.000009  0.000000  0.000005 -0.000000  0.000003 -0.000000 -0.000004  0.000000 -0.000000
                                 0.000000 -0.000000  0.000000  0.000002 -0.000000  0.000000  0.000000  0.000000  0.000000  0.000000
                                 0.000001 -0.000003 -0.000017 -0.000015 -0.000000  0.000110 -0.000059  0.000020  0.000011 -0.000001
                                -0.000003  0.000011 -0.000020 -0.000089  0.000009  0.000004  0.000000 -0.000003  0.000000  0.000018
                                -0.000000  0.000023 -0.000000 -0.000000 -0.000000  0.000000 -0.000000 -0.000006  0.000000

   4.1   2   -20.7140  -70.3034  0.000000  0.000000  0.000000  0.000000  0.000000  0.000000  0.000000  0.000000  0.000000  0.000001
                                -0.000000  0.000009 -0.000013  0.000126 -0.000392  0.000433 -0.000373  0.000631 -0.002194  0.005165
                                -0.009887  0.014123 -0.043852  0.042523 -0.015140  0.026236 -0.033127 -0.011948 -0.016784  0.000969
                                -0.000087  0.000000  0.000000 -0.000000  0.000000 -0.000000  0.000000 -0.000000  0.000002 -0.000005
                                 0.000024 -0.000119  0.002724 -0.004639  0.009715 -0.027158  0.053656 -0.060586  0.050078 -0.082104
                                 0.087325 -0.034194  0.003520  0.040180 -0.043706 -0.010758 -0.008797  0.000519 -0.000065 -0.000000
                                -0.000000  0.000000  0.000000 -0.000003  0.000000  0.000008  0.000000 -0.000058  0.000000  0.000867
                                -0.000000 -0.001119  0.000000  0.000544 -0.000000 -0.000940  0.000000  0.003695 -0.000000 -0.014267
                                 0.000000  0.025757 -0.000000 -0.031110  0.000000  0.012396 -0.000000  0.009983  0.000000 -0.004992
                                -0.000000 -0.004148  0.000000 -0.002673 -0.000000 -0.000278  0.000000  0.000084  0.000000  0.000142
                                -0.000000  0.002317 -0.000000 -0.002422 -0.000000 -0.000412 -0.000000  0.000149  0.000000 -0.000000
                                 0.000711  0.000000 -0.000000 -0.000553  0.000000 -0.000000  0.000742  0.004234  0.020717  0.079617
                                 0.231453  0.426967  0.342791  0.050977 -0.024010  0.038581  0.024685  0.001395  0.008369 -0.000066
                                 0.000052 -0.002334  0.006421 -0.012410 -0.002614 -0.000868 -0.000048  0.000499 -0.000000 -0.002715
                                 0.000000  0.001809  0.000000  0.000171  0.000000 -0.000019  0.000000  0.000662 -0.000000

   5.1   2   -16.6839 -103.1456  0.000006  0.000015  0.000042  0.000097  0.000212  0.000440  0.000908  0.001898  0.004067  0.008910
                                 0.019321  0.039643  0.069645  0.087511 -0.006071  0.020187 -0.235315 -0.479001 -0.253092  0.244985
                                 0.403640  0.490837  0.251170 -0.025713  0.015673 -0.001321  0.001544 -0.002276 -0.000868 -0.000038
                                 0.000016 -0.000000 -0.000000 -0.000001 -0.000005 -0.000019 -0.000064 -0.000201 -0.000559 -0.001302
                                -0.002317 -0.002724  0.000028 -0.000690  0.006187 -0.004856  0.016825 -0.010744  0.016061 -0.024637
                                 0.032561 -0.017051  0.006239 -0.004172  0.002874 -0.001608 -0.000709  0.000036 -0.000006 -0.000000
                                 0.000000 -0.000001 -0.000000 -0.000005  0.000000 -0.000011 -0.000000 -0.000042  0.000000 -0.000070
                                -0.000000 -0.000084  0.000000 -0.000153 -0.000000  0.000010 -0.000000  0.000833 -0.000000 -0.004669
                                 0.000000  0.012143 -0.000000 -0.031244  0.000000  0.028047 -0.000000 -0.004991  0.000000  0.000318
                                -0.000000 -0.000858  0.000000 -0.000282 -0.000000 -0.000014  0.000000  0.000003  0.000000  0.000340
                                -0.000000 -0.000233  0.000000 -0.000299 -0.000000 -0.000050  0.000000  0.000121  0.000000 -0.000000
                                -0.000095 -0.000000  0.000000 -0.000035 -0.000000  0.000000 -0.000000 -0.000002 -0.000008 -0.000031
                                -0.000094 -0.000144  0.000037  0.000382  0.000331  0.001084  0.001755 -0.000307 -0.000086  0.000005
                                 0.000096 -0.000275  0.000036  0.000598 -0.000121 -0.000102 -0.000006  0.000099  0.000000 -0.000318
                                -0.000000 -0.000355 -0.000000  0.000003 -0.000000 -0.000007  0.000000  0.000180  0.000000

   6.1   2   -13.1670  -96.6328 -0.000000 -0.000000 -0.000001 -0.000002 -0.000004 -0.000008 -0.000016 -0.000033 -0.000070 -0.000154
                                -0.000334 -0.000684 -0.001208 -0.001499  0.000044 -0.000279  0.004125  0.008535  0.003825 -0.003148
                                -0.011301 -0.004175 -0.014710  0.011519 -0.001442  0.001486  0.001196 -0.002317 -0.001480  0.000055
                                -0.000006 -0.000006 -0.000023 -0.000090 -0.000333 -0.001206 -0.004147 -0.013026 -0.036443 -0.084793
                                -0.152267 -0.171517 -0.012902  0.010166  0.288109  0.022833  0.451675  0.007170  0.313428 -0.103475
                                 0.187084 -0.069368  0.020377 -0.008273  0.007005 -0.002514 -0.000874  0.000009  0.000002  0.000001
                                -0.000000  0.000009 -0.000000  0.000052 -0.000000  0.000202 -0.000000  0.000556 -0.000000  0.001379
                                -0.000000 -0.000035  0.000000  0.002440 -0.000000  0.003022  0.000000  0.004055 -0.000000 -0.009917
                                 0.000000  0.025219 -0.000000 -0.056074  0.000000  0.046017 -0.000000 -0.006028  0.000000  0.000949
                                -0.000000 -0.001442  0.000000 -0.000342 -0.000000 -0.000041 -0.000000  0.000007  0.000000  0.000286
                                -0.000000  0.000237  0.000000 -0.000403 -0.000000 -0.000074  0.000000  0.000310  0.000000 -0.000000
                                -0.000086 -0.000000  0.000000 -0.000062 -0.000000 -0.000000 -0.000001 -0.000003 -0.000016 -0.000059
                                -0.000193 -0.000186  0.000386  0.000976 -0.000227  0.001074  0.002282 -0.000961 -0.000398  0.000006
                                 0.000153 -0.000638  0.000016  0.000963 -0.000125 -0.000211 -0.000013  0.000299  0.000000 -0.000065
                                -0.000000 -0.000481 -0.000000  0.000007 -0.000000 -0.000181 -0.000000  0.000095  0.000000

   7.1   2    -7.4047  -86.2964 -0.000000 -0.000000 -0.000000 -0.000000 -0.000000 -0.000000 -0.000001 -0.000002 -0.000004 -0.000010
                                -0.000020 -0.000045 -0.000066 -0.000151  0.000192 -0.000231  0.000469  0.000316  0.001493 -0.003851
                                 0.005749 -0.012577  0.051274 -0.051864  0.010679  0.017639 -0.009921 -0.017910 -0.017110  0.000712
                                -0.000109  0.000000  0.000000  0.000001  0.000004  0.000013  0.000046  0.000142  0.000406  0.000925
                                 0.001749  0.001648  0.005206 -0.008768  0.012547 -0.042313  0.072538 -0.087188  0.073529 -0.145019
                                 0.173590 -0.088054  0.039061 -0.012365  0.003593 -0.018875 -0.010504  0.000296 -0.000049  0.000165
                                 0.000000  0.001479  0.000000  0.008693  0.000000  0.034318  0.000000  0.100398  0.000000  0.221700
                                 0.000000 -0.004420 -0.000000  0.327953  0.000000  0.331304  0.000000  0.207988  0.000000 -0.064957
                                 0.000000  0.175985 -0.000000 -0.262454  0.000000  0.218391 -0.000000 -0.029218  0.000000 -0.001351
                                -0.000000 -0.009020  0.000000 -0.004232 -0.000000 -0.000441  0.000000  0.000052 -0.000000  0.005028
                                 0.000000 -0.001991 -0.000000 -0.004459  0.000000 -0.000781 -0.000000  0.001056 -0.000000 -0.000000
                                -0.001170  0.000000  0.000000 -0.000677  0.000000  0.000000 -0.000002 -0.000010 -0.000049 -0.000190
                                -0.000595 -0.001033  0.000153  0.005814  0.000665  0.020999  0.024087 -0.002746 -0.000562 -0.000022
                                 0.000347 -0.003581  0.002962  0.004709 -0.000746 -0.000718 -0.000043  0.000772  0.000000 -0.004770
                                 0.000000 -0.003744 -0.000000  0.000102  0.000000  0.000472 -0.000000  0.001917 -0.000000

   8.1   2    -7.3819  -86.1378  0.000000  0.000000  0.000000  0.000000  0.000000  0.000000  0.000000  0.000000  0.000000  0.000000
                                 0.000000  0.000000  0.000000  0.000000 -0.000000  0.000000 -0.000000 -0.000000 -0.000000  0.000000
                                -0.000000  0.000000 -0.000000  0.000000 -0.000000 -0.000000  0.000000  0.000000  0.000000  0.000000
                                -0.000000 -0.000000  0.000000 -0.000000 -0.000000 -0.000000 -0.000000 -0.000000 -0.000000 -0.000000
                                -0.000000 -0.000000 -0.000000  0.000000 -0.000000  0.000000 -0.000000  0.000000 -0.000000  0.000000
                                -0.000000  0.000000 -0.000000  0.000000 -0.000000  0.000000  0.000000  0.000000 -0.000000 -0.000000
                                 0.000165 -0.000000  0.001476 -0.000000  0.008678 -0.000000  0.034243 -0.000000  0.100230 -0.000000
                                 0.220629  0.000000 -0.003576 -0.000000  0.327107 -0.000000  0.332143 -0.000000  0.204181  0.000000
                                -0.037226 -0.000000  0.114554  0.000000 -0.116121 -0.000000  0.085991  0.000000 -0.006446 -0.000000
                                 0.000388  0.000000 -0.000179  0.000000  0.000007  0.000000 -0.000003  0.000000  0.000001 -0.000000
                                 0.002069  0.000000 -0.001127  0.000000  0.000224  0.000000 -0.000089 -0.000000 -0.000000  0.000036
                                 0.000000  0.000000 -0.000334  0.000000 -0.000000  0.000063  0.000000  0.000000  0.000000  0.000000
                                 0.000000  0.000000 -0.000000 -0.000000 -0.000000 -0.000000 -0.000000  0.000000  0.000000  0.000000
                                -0.000000  0.000000 -0.000000 -0.000000 -0.000000  0.000000  0.000000 -0.000000  0.000011  0.000000
                                 0.000381  0.000000  0.000088 -0.000000  0.000006 -0.000000 -0.000024 -0.000000 -0.000350

   9.1   2    -2.6923  -40.7541 -0.000002 -0.000005 -0.000014 -0.000033 -0.000071 -0.000147 -0.000304 -0.000637 -0.001363 -0.002992
                                -0.006483 -0.013370 -0.023493 -0.030348  0.003693 -0.008750  0.086643  0.181409  0.109318 -0.132024
                                -0.175804 -0.466339 -0.111475 -0.048616  0.708805  0.406454 -0.056171 -0.019715 -0.046497  0.006628
                                -0.000962  0.000000  0.000002  0.000007  0.000027  0.000097  0.000334  0.001049  0.002955  0.006881
                                 0.012563  0.013811  0.006012 -0.011493 -0.011826 -0.045103  0.021573 -0.073008  0.010078  0.019303
                                -0.089810  0.180044  0.011548  0.070068 -0.057628 -0.024571 -0.013759  0.002048 -0.000184 -0.000005
                                -0.000000 -0.000048 -0.000000 -0.000289 -0.000000 -0.001126 -0.000000 -0.003392 -0.000000 -0.006502
                                -0.000000 -0.000972 -0.000000 -0.010183 -0.000000 -0.011393 -0.000000  0.003519  0.000000 -0.037735
                                -0.000000  0.081546  0.000000 -0.062897 -0.000000  0.042793  0.000000 -0.008536 -0.000000  0.002460
                                 0.000000 -0.011752 -0.000000 -0.000458 -0.000000  0.000080 -0.000000  0.000326  0.000000  0.013684
                                -0.000000 -0.000162  0.000000 -0.000906  0.000000  0.000927 -0.000000  0.006072 -0.000000 -0.000000
                                -0.000625 -0.000000 -0.000000  0.000874  0.000000  0.000000 -0.000059 -0.000336 -0.001670 -0.006523
                                -0.020710 -0.041300 -0.040033  0.062377  0.155443  0.118075  0.063595 -0.020445 -0.010552 -0.002386
                                -0.014862 -0.068325 -0.094721 -0.053831 -0.014182 -0.005258 -0.000663  0.012160  0.000000  0.025356
                                 0.000000  0.008518  0.000000  0.000798 -0.000000 -0.003694 -0.000000 -0.004758 -0.000000

  10.1   2    -1.9286  -36.0024  0.000001  0.000002  0.000007  0.000016  0.000035  0.000072  0.000149  0.000312  0.000668  0.001469
                                 0.003179  0.006572  0.011502  0.015117 -0.002511  0.005074 -0.043363 -0.088382 -0.058473  0.076476
                                 0.067676  0.266894  0.070194 -0.031415 -0.322002 -0.310572 -0.095633 -0.083921 -0.044779  0.002231
                                 0.000354  0.000002  0.000006  0.000022  0.000084  0.000302  0.001044  0.003276  0.009228  0.021522
                                 0.039249  0.043367  0.013117 -0.028036 -0.049048 -0.122648  0.051945 -0.241511  0.089904 -0.284089
                                 0.418058 -0.034382  0.344973  0.199829 -0.049712 -0.027156 -0.021697  0.003778 -0.000501 -0.000011
                                 0.000000 -0.000099  0.000000 -0.000590  0.000000 -0.002317  0.000000 -0.006903  0.000000 -0.014436
                                 0.000000 -0.000711  0.000000 -0.021643  0.000000 -0.021724  0.000000  0.002379 -0.000000 -0.032578
                                 0.000000  0.105750 -0.000000 -0.090595  0.000000  0.084431 -0.000000  0.022925  0.000000  0.014725
                                -0.000000 -0.022575  0.000000 -0.002174 -0.000000  0.000496  0.000000  0.000371 -0.000000  0.023120
                                -0.000000  0.009553  0.000000 -0.000609 -0.000000  0.000833 -0.000000  0.007896  0.000000 -0.000000
                                -0.001634 -0.000000  0.000000  0.001034  0.000000 -0.000000 -0.000093 -0.000528 -0.002620 -0.010254
                                -0.032583 -0.066327 -0.068836  0.099551  0.274965  0.211482  0.091998 -0.027400 -0.015149 -0.002853
                                -0.018374 -0.081212 -0.110894 -0.071290 -0.020167 -0.005653 -0.000752  0.011116 -0.000000  0.020159
                                 0.000000  0.008638  0.000000  0.000723 -0.000000 -0.002881 -0.000000 -0.002503 -0.000000

  11.1   2    -1.0853  -25.1595  0.000000  0.000001  0.000002  0.000005  0.000011  0.000022  0.000045  0.000095  0.000203  0.000447
                                 0.000964  0.002004  0.003476  0.004730 -0.001197  0.002026 -0.013620 -0.026298 -0.020753  0.030631
                                 0.006457  0.109533 -0.103159  0.136635 -0.202784  0.013200 -0.179143 -0.056553 -0.047668 -0.001538
                                 0.000674 -0.000001 -0.000004 -0.000016 -0.000058 -0.000209 -0.000721 -0.002260 -0.006384 -0.014844
                                -0.027254 -0.029457 -0.020241  0.038275  0.000128  0.173559 -0.194366  0.341584 -0.207348  0.499302
                                -0.704777  0.247200 -0.361869  0.061160 -0.284830 -0.089521 -0.030883 -0.001075  0.000331 -0.000006
                                 0.000000 -0.000053  0.000000 -0.000304  0.000000 -0.001239  0.000000 -0.003516  0.000000 -0.009572
                                 0.000000  0.002177 -0.000000 -0.012411  0.000000 -0.008838 -0.000000 -0.010173  0.000000  0.074130
                                -0.000000 -0.172722  0.000000  0.523153 -0.000000 -0.491737  0.000000  0.171602 -0.000000 -0.004337
                                 0.000000 -0.024017 -0.000000 -0.007925  0.000000 -0.001676 -0.000000  0.000219  0.000000  0.000296
                                 0.000000  0.012256 -0.000000 -0.014039 -0.000000 -0.002106 -0.000000 -0.002354 -0.000000  0.000000
                                 0.001189  0.000000  0.000000 -0.003140 -0.000000  0.000000 -0.000127 -0.000724 -0.003596 -0.014088
                                -0.044913 -0.092507 -0.103749  0.125971  0.449169  0.613103  0.108390 -0.026301 -0.020017  0.005158
                                 0.036411  0.138943  0.188984 -0.004991 -0.005474  0.006651  0.001151 -0.010915  0.000000 -0.025433
                                 0.000000  0.004795  0.000000 -0.000861  0.000000  0.003805  0.000000  0.005629 -0.000000

  12.1   2    -0.5846  -28.3567  0.000000  0.000001  0.000002  0.000004  0.000008  0.000017  0.000036  0.000075  0.000161  0.000353
                                 0.000766  0.001579  0.002779  0.003586 -0.000416  0.001016 -0.010338 -0.021957 -0.013226  0.016216
                                 0.023478  0.058119  0.135618 -0.152744 -0.029927 -0.141360 -0.118929 -0.072074  0.036893  0.007192
                                -0.000570 -0.000001 -0.000003 -0.000010 -0.000039 -0.000141 -0.000483 -0.001527 -0.004270 -0.010064
                                -0.018070 -0.021205  0.014270 -0.019696  0.081787 -0.080228  0.210575 -0.115040  0.124386 -0.075016
                                -0.111115  0.085987 -0.231453 -0.173326 -0.083753 -0.119208  0.028191  0.005721 -0.000869 -0.000037
                                 0.000000 -0.000329  0.000000 -0.001941  0.000000 -0.007704  0.000000 -0.022710  0.000000 -0.051296
                                 0.000000  0.002176 -0.000000 -0.073228  0.000000 -0.064846  0.000000 -0.011875  0.000000  0.110240
                                -0.000000 -0.187133  0.000000  1.211277 -0.000000 -1.157013  0.000000  0.521066 -0.000000  0.173611
                                -0.000000  0.034556 -0.000000  0.052711  0.000000  0.003553 -0.000000  0.000965  0.000000  0.049012
                                -0.000000  0.035025 -0.000000  0.025566 -0.000000  0.008858 -0.000000  0.012787 -0.000000 -0.000000
                                -0.005056  0.000000  0.000000  0.005843 -0.000000  0.000000 -0.000030 -0.000171 -0.000848 -0.003335
                                -0.010585 -0.022270 -0.022493  0.045432  0.113885 -0.054006 -0.082084 -0.013589 -0.004543 -0.007818
                                -0.054526 -0.219121 -0.312079 -0.181190 -0.037561 -0.011471 -0.001820  0.013313 -0.000000  0.016827
                                -0.000000  0.006431 -0.000000  0.000782 -0.000000 -0.002569  0.000000 -0.002284  0.000000

  13.1   2    -0.1923  -13.5004  0.000001  0.000001  0.000004  0.000009  0.000021  0.000043  0.000088  0.000185  0.000396  0.000870
                                 0.001886  0.003892  0.006843  0.008865 -0.001119  0.002603 -0.025558 -0.053870 -0.032944  0.040645
                                 0.054572  0.159827  0.057337 -0.017888 -0.283660 -0.364096 -0.042345  0.207374  0.728293  0.374724
                                 0.014056  0.000000  0.000000  0.000001  0.000005  0.000018  0.000063  0.000198  0.000557  0.001305
                                 0.002368  0.002679 -0.000597  0.000551 -0.007934  0.006712 -0.027921  0.023953 -0.032840  0.062103
                                -0.065928  0.041229  0.016287  0.034998 -0.017530 -0.050728 -0.031384 -0.047573  0.000248 -0.000001
                                 0.000000 -0.000007  0.000000 -0.000044  0.000000 -0.000170  0.000000 -0.000517  0.000000 -0.000996
                                 0.000000 -0.000147 -0.000000 -0.001570  0.000000 -0.001496  0.000000  0.000955  0.000000 -0.011268
                                -0.000000  0.050837  0.000000 -0.178821 -0.000000  0.186692  0.000000 -0.044194 -0.000000  0.014499
                                -0.000000 -0.054678 -0.000000 -0.028382 -0.000000 -0.020437 -0.000000 -0.004818 -0.000000  0.002985
                                -0.000000 -0.001712 -0.000000 -0.005134 -0.000000 -0.003732 -0.000000  0.001230 -0.000000 -0.000000
                                -0.001453  0.000000  0.000000 -0.000387  0.000000 -0.000000  0.000009  0.000052  0.000262  0.001020
                                 0.003293  0.006493  0.006676 -0.012325 -0.034525 -0.075729 -0.206512  0.003279  0.002098 -0.001919
                                -0.014071 -0.049745 -0.081650 -0.076691 -0.027449 -0.001832 -0.000392 -0.002381 -0.000000 -0.006664
                                -0.000000 -0.005044 -0.000000 -0.000200 -0.000000  0.000573  0.000000  0.000780  0.000000

  14.1   0     0.0133   -4.6764 -0.000000 -0.000000 -0.000000 -0.000001 -0.000002 -0.000005 -0.000010 -0.000022 -0.000044 -0.000104
                                -0.000205 -0.000482 -0.000664 -0.001782  0.002657 -0.003107  0.005294  0.001513  0.020215 -0.046818
                                 0.083555 -0.156476  0.446501 -0.438422  0.157148 -0.191908  0.810358 -0.088269  5.118318 -2.476312
                                 1.696618 -0.000000 -0.000000 -0.000001 -0.000002 -0.000008 -0.000029 -0.000092 -0.000252 -0.000607
                                -0.001054 -0.001383  0.003411 -0.005458  0.013488 -0.028601  0.061193 -0.066337  0.069658 -0.177536
                                 0.254665 -0.182639  0.092090 -0.366750  0.566241  0.162554  1.928545 -0.835602  1.104207 -0.000002
                                -0.000000 -0.000013 -0.000000 -0.000100 -0.000000 -0.000300 -0.000000 -0.001305 -0.000000  0.002357
                                -0.000000 -0.005903  0.000000 -0.000135 -0.000000 -0.009113 -0.000000  0.040766 -0.000000 -0.268632
                                 0.000000  0.793194 -0.000000 -2.412868  0.000000  2.300155 -0.000000 -0.482367  0.000000  0.373972
                                 0.000000 -0.293565  0.000000  0.508258  0.000000 -0.186484  0.000000  0.141199  0.000000  0.001097
                                 0.000000  0.007717  0.000000  0.012616  0.000000  0.011177  0.000000  0.000844  0.000000  0.000000
                                 0.000874 -0.000000 -0.000000 -0.006682  0.000000  0.000000  0.000003  0.000019  0.000098  0.000376
                                 0.001239  0.002156  0.001582 -0.003499 -0.008089 -0.425280 -4.369290  0.001886  0.001306 -0.000369
                                -0.002497 -0.011351 -0.007020  0.354219  0.997834 -0.000690 -0.000094  0.000894  0.000000 -0.003072
                                 0.000000 -0.074930 -0.000000  0.000113  0.000000  0.000081 -0.000000  0.000697 -0.000000

  15.1   0     0.0289   -4.3040 -0.000000 -0.000000 -0.000001 -0.000002 -0.000005 -0.000010 -0.000020 -0.000044 -0.000088 -0.000209
                                -0.000408 -0.000974 -0.001294 -0.003782  0.006033 -0.007013  0.011264  0.001714  0.045101 -0.105547
                                 0.192077 -0.350422  0.999431 -0.974440  0.336359 -0.333400  0.900131 -1.501160  2.178996 -2.784984
                                 2.176686  0.000000  0.000000  0.000000  0.000000  0.000003  0.000003  0.000043  0.000012  0.000356
                                -0.000382  0.003784 -0.071905  0.119391 -0.229462  0.602852 -1.161355  1.334101 -1.258855  2.930310
                                -3.934486  2.294298 -0.875077  1.026782 -0.896972  0.234675 -0.120293  0.579476 -0.949947  0.000001
                                -0.000000  0.000004 -0.000000  0.000032 -0.000000  0.000095 -0.000000  0.000423 -0.000000 -0.000847
                                -0.000000  0.002015  0.000000 -0.000030 -0.000000  0.003119 -0.000000 -0.015897 -0.000000  0.114258
                                 0.000000 -0.350886 -0.000000  1.062578  0.000000 -0.991292 -0.000000  0.187908  0.000000 -0.002130
                                -0.000000 -0.035613  0.000000  0.031150 -0.000000  0.090386  0.000000 -0.133381 -0.000000 -0.001356
                                 0.000000  0.002575  0.000000 -0.018927  0.000000  0.021063 -0.000000  0.000227  0.000000  0.000000
                                -0.001779 -0.000000 -0.000000 -0.003404  0.000000 -0.000000 -0.000002 -0.000012 -0.000060 -0.000225
                                -0.000773 -0.000997  0.000292  0.005531 -0.001100  0.080320 -0.397556 -0.002643 -0.001461  0.000582
                                 0.004304  0.014036  0.026519  0.089639  0.054871  0.000434  0.000111  0.000291  0.000000  0.004699
                                 0.000000 -0.023476  0.000000  0.000069  0.000000  0.001083 -0.000000 -0.004329 -0.000000

                                   1 2px     1 2px     1 2px     1 2px     1 2px     1 2px     1 2px     1 2px     1 2px     1 2px  
                                   1 2px     1 2px     1 2px     1 2px     1 2px     1 2px     1 2px     1 2px     1 2px     1 2px  
                                   1 2px     1 2px     1 2px     1 2px     1 2px     1 2px     1 2px     1 2px     1 3d1+    1 3d1+ 
                                   1 3d1+    1 3d1+    1 3d1+    1 3d1+    1 3d1+    1 3d1+    1 3d1+    1 3d1+    1 3d1+    1 3d1+ 
                                   1 3d1+    1 3d1+    1 3d1+    1 3d1+    1 3d1+    1 3d1+    1 3d1+    1 3d1+    1 4f1+    1 4f3+ 
                                   1 4f1+    1 4f3+    1 4f1+    1 4f3+    1 4f1+    1 4f3+    1 5g1+    1 5g3+    1 5g1+    1 5g3+ 
                                   1 5g1+    1 5g3+    2 2px     2 2px     2 2px     2 2px     2 2px     2 2px     2 2px     2 2px  
                                   2 3d1+    2 3d1+    2 3d1+    2 3d1+    2 4f1+    2 4f3+    2 4f1+    2 4f3+ 

   1.2   2   -84.3139 -287.3636  0.000014  0.000054  0.000210  0.000776  0.002803  0.009566  0.029702  0.080895  0.181364  0.307734
                                 0.343349  0.167533  0.035683 -0.004546  0.086273 -0.112763  0.094510 -0.052211  0.061858 -0.060326
                                 0.022819 -0.004555  0.001867 -0.001306  0.000110 -0.000048  0.000006 -0.000002  0.000000  0.000001
                                 0.000007  0.000031  0.000103  0.000142 -0.000031  0.000039  0.000002 -0.000005  0.000043 -0.000121
                                 0.000300 -0.000253  0.000033 -0.000011 -0.000018 -0.000007 -0.000006  0.000001  0.000006 -0.000000
                                -0.000002  0.000000 -0.000010 -0.000000 -0.000004  0.000000  0.000001 -0.000000 -0.000002 -0.000000
                                -0.000002 -0.000000 -0.000000 -0.000001 -0.000002 -0.000003  0.000046  0.000024  0.000000 -0.000000
                                 0.000001 -0.000002 -0.000016  0.000000 -0.000001 -0.000000  0.000003 -0.000000

   2.2   2   -13.1681  -96.5612 -0.000006 -0.000023 -0.000090 -0.000333 -0.001206 -0.004150 -0.013034 -0.036467 -0.084843 -0.152384
                                -0.171584 -0.014194  0.012399  0.284291  0.033996  0.430922  0.031057  0.290401 -0.052111  0.122384
                                -0.036813  0.011176 -0.003494  0.002272 -0.000594  0.000156 -0.000023  0.000007  0.000001  0.000008
                                 0.000046  0.000177  0.000501  0.001150  0.000065  0.002081  0.002593  0.002132 -0.001308  0.002580
                                -0.003453  0.002475 -0.000276 -0.000135 -0.000220  0.000033  0.000019 -0.000002  0.000130 -0.000000
                                -0.000186  0.000000 -0.000142 -0.000000  0.000021  0.000000  0.000114 -0.000000 -0.000124  0.000000
                                -0.000005  0.000000  0.000001 -0.000004  0.000097  0.000193  0.000490 -0.000081  0.000022  0.000002
                                -0.000067 -0.000063 -0.000125 -0.000000  0.000035  0.000000 -0.000035 -0.000000

   3.2   2    -7.3878  -86.2185  0.000000  0.000000  0.000001  0.000003  0.000009  0.000032  0.000102  0.000286  0.000672  0.001202
                                 0.001392 -0.000746  0.001174 -0.004897  0.005865 -0.015809  0.013263 -0.014524  0.030211 -0.039138
                                 0.022365 -0.006429  0.006591 -0.008301 -0.002826 -0.000320 -0.000182  0.000042  0.000165  0.001476
                                 0.008680  0.034254  0.100264  0.220647 -0.003538  0.327109  0.332262  0.204190 -0.036823  0.111351
                                -0.108613  0.081520 -0.007965 -0.000810 -0.003047 -0.000001 -0.000244  0.000030  0.003239 -0.000000
                                -0.002376  0.000000 -0.001214  0.000000 -0.000092  0.000000  0.000317 -0.000000 -0.000874  0.000000
                                -0.000047 -0.000000  0.000022  0.000140  0.000390  0.001837  0.006300  0.000769 -0.000001  0.000003
                                -0.000367 -0.001274 -0.002274 -0.000020  0.000109  0.000000  0.000257 -0.000000

   4.2   2    -1.5671  -35.9693  0.000002  0.000008  0.000030  0.000111  0.000402  0.001386  0.004358  0.012260  0.028648  0.052111
                                 0.058229  0.007062 -0.020709 -0.095860 -0.092252 -0.055662 -0.197887  0.022462 -0.241233  0.489677
                                -0.081459  0.531346  0.306320 -0.018070 -0.013970 -0.006263 -0.001461  0.000325 -0.000005 -0.000040
                                -0.000242 -0.000942 -0.002835 -0.005542 -0.000770 -0.008670 -0.009556  0.003035 -0.017534  0.059781
                                -0.127095  0.146866 -0.027842  0.016807 -0.057164 -0.002859 -0.002845  0.000273  0.007023 -0.000000
                                -0.007722  0.000000 -0.022732 -0.000000 -0.002126 -0.000000  0.003988 -0.000000 -0.005000  0.000000
                                -0.004260 -0.000000  0.002523  0.017608  0.066183  0.105676  0.113275  0.011663  0.003399  0.000577
                                -0.010507 -0.031210 -0.025809 -0.000581  0.006111  0.000000  0.006319  0.000000

   5.2   2    -0.7877  -26.0152 -0.000001 -0.000003 -0.000010 -0.000037 -0.000134 -0.000464 -0.001452 -0.004107 -0.009538 -0.017561
                                -0.018800 -0.016348  0.030499 -0.012709  0.151463 -0.213154  0.336923 -0.264945  0.698404 -1.023281
                                 0.529466 -0.377954  0.073525 -0.273831 -0.219718 -0.027158 -0.016095  0.003860 -0.000019 -0.000172
                                -0.001016 -0.004025 -0.011896 -0.026315  0.000496 -0.037915 -0.035126 -0.002396  0.025671 -0.003564
                                 0.226366 -0.172818  0.137405  0.115351 -0.207330  0.004091 -0.019496  0.002407  0.036585 -0.000000
                                 0.027333 -0.000000 -0.060741 -0.000000 -0.010930  0.000000  0.011205 -0.000000 -0.007247  0.000000
                                -0.014458  0.000000  0.010200  0.074053  0.259795  0.434660  0.545623  0.067831  0.009903  0.002100
                                -0.015472 -0.064766 -0.107150 -0.000734  0.009268  0.000000  0.013782  0.000000

   6.2   0     0.0097   -6.6824 -0.000000 -0.000001 -0.000003 -0.000011 -0.000042 -0.000141 -0.000455 -0.001247 -0.003021 -0.005165
                                -0.007141  0.022686 -0.036587  0.084157 -0.184635  0.378441 -0.404529  0.393972 -0.879471  1.146757
                                -0.684753  0.194997 -0.397426  0.319484 -0.124274  0.198811 -0.104175  0.880718  0.000003  0.000028
                                 0.000165  0.000650  0.001937  0.004081  0.000160  0.006034  0.005906 -0.001011  0.000529 -0.010815
                                -0.031815  0.038631 -0.041909 -0.026158 -0.049595 -0.048666 -0.079334  0.119691 -0.002470 -0.000000
                                -0.004620 -0.000000 -0.026702 -0.000000 -0.039466  0.000000 -0.001003  0.000000 -0.000615 -0.000000
                                -0.009209 -0.000000 -0.000226 -0.001676 -0.005616 -0.009740  0.078441  0.213868 -0.000142 -0.000041
                                 0.002937  0.004570 -0.024846  0.000143 -0.001463 -0.000000  0.001987 -0.000000

   7.2   0     0.0418   -5.8915  0.000000  0.000001  0.000003  0.000012  0.000043  0.000154  0.000464  0.001374  0.003007  0.006121
                                 0.004202  0.045659 -0.076916  0.131614 -0.384169  0.709220 -0.840462  0.763865 -1.759255  2.363193
                                -1.339577  0.588780 -0.608821  0.579045 -0.548114 -0.632411 -1.538406  1.126979 -0.000003 -0.000025
                                -0.000166 -0.000591 -0.002036 -0.000886 -0.004034 -0.003736 -0.009660  0.027686 -0.181083  0.550440
                                -1.693065  1.643400 -0.362026  0.175663 -0.384688 -0.024037 -0.762105  0.902068  0.002611  0.000000
                                -0.013760  0.000000 -0.094127  0.000000 -0.160968 -0.000000 -0.000207  0.000000 -0.008181  0.000000
                                -0.043293  0.000000 -0.000168 -0.001661 -0.000708 -0.005616  0.383038  1.180992  0.000800  0.000024
                                -0.001040 -0.022055 -0.131192 -0.000243  0.000832  0.000000  0.015376  0.000000

                                   1 2py     1 2py     1 2py     1 2py     1 2py     1 2py     1 2py     1 2py     1 2py     1 2py  
                                   1 2py     1 2py     1 2py     1 2py     1 2py     1 2py     1 2py     1 2py     1 2py     1 2py  
                                   1 2py     1 2py     1 2py     1 2py     1 2py     1 2py     1 2py     1 2py     1 3d1-    1 3d1- 
                                   1 3d1-    1 3d1-    1 3d1-    1 3d1-    1 3d1-    1 3d1-    1 3d1-    1 3d1-    1 3d1-    1 3d1- 
                                   1 3d1-    1 3d1-    1 3d1-    1 3d1-    1 3d1-    1 3d1-    1 3d1-    1 3d1-    1 4f1-    1 4f3- 
                                   1 4f1-    1 4f3-    1 4f1-    1 4f3-    1 4f1-    1 4f3-    1 5g1-    1 5g3-    1 5g1-    1 5g3- 
                                   1 5g1-    1 5g3-    2 2py     2 2py     2 2py     2 2py     2 2py     2 2py     2 2py     2 2py  
                                   2 3d1-    2 3d1-    2 3d1-    2 3d1-    2 4f1-    2 4f3-    2 4f1-    2 4f3- 

   1.3   2   -84.3139 -287.3636  0.000014  0.000054  0.000210  0.000776  0.002803  0.009566  0.029702  0.080895  0.181364  0.307734
                                 0.343349  0.167533  0.035683 -0.004546  0.086273 -0.112762  0.094509 -0.052210  0.061858 -0.060325
                                 0.022819 -0.004555  0.001867 -0.001306  0.000110 -0.000048  0.000006 -0.000002  0.000000  0.000001
                                 0.000007  0.000031  0.000103  0.000142 -0.000031  0.000039  0.000002 -0.000005  0.000043 -0.000121
                                 0.000300 -0.000253  0.000033 -0.000011 -0.000018 -0.000007 -0.000006  0.000001  0.000006 -0.000000
                                -0.000002  0.000000 -0.000010 -0.000000 -0.000004  0.000000  0.000001 -0.000000 -0.000002  0.000000
                                -0.000002 -0.000000 -0.000000 -0.000001 -0.000002 -0.000003  0.000046  0.000024  0.000000 -0.000000
                                 0.000001 -0.000002 -0.000016  0.000000 -0.000001  0.000000  0.000003 -0.000000

   2.3   2   -13.1681  -96.5612 -0.000006 -0.000023 -0.000090 -0.000333 -0.001206 -0.004150 -0.013034 -0.036467 -0.084843 -0.152384
                                -0.171584 -0.014194  0.012400  0.284291  0.033996  0.430921  0.031057  0.290401 -0.052111  0.122384
                                -0.036813  0.011176 -0.003494  0.002272 -0.000594  0.000156 -0.000023  0.000007  0.000001  0.000008
                                 0.000046  0.000177  0.000501  0.001150  0.000065  0.002081  0.002593  0.002132 -0.001308  0.002580
                                -0.003453  0.002475 -0.000276 -0.000135 -0.000220  0.000033  0.000019 -0.000002  0.000130 -0.000000
                                -0.000186  0.000000 -0.000142 -0.000000  0.000021  0.000000  0.000114 -0.000000 -0.000124  0.000000
                                -0.000005  0.000000  0.000001 -0.000004  0.000097  0.000193  0.000490 -0.000081  0.000022  0.000002
                                -0.000067 -0.000063 -0.000125 -0.000000  0.000035  0.000000 -0.000035 -0.000000

   3.3   2    -7.3878  -86.2185  0.000000  0.000000  0.000001  0.000003  0.000009  0.000032  0.000102  0.000286  0.000672  0.001202
                                 0.001392 -0.000746  0.001174 -0.004897  0.005865 -0.015809  0.013263 -0.014524  0.030211 -0.039138
                                 0.022365 -0.006429  0.006591 -0.008301 -0.002826 -0.000320 -0.000182  0.000042  0.000165  0.001476
                                 0.008680  0.034254  0.100264  0.220647 -0.003538  0.327109  0.332262  0.204190 -0.036823  0.111351
                                -0.108612  0.081520 -0.007965 -0.000810 -0.003047 -0.000001 -0.000244  0.000030  0.003239 -0.000000
                                -0.002376  0.000000 -0.001214  0.000000 -0.000092  0.000000  0.000317 -0.000000 -0.000874  0.000000
                                -0.000047 -0.000000  0.000022  0.000140  0.000390  0.001837  0.006300  0.000769 -0.000001  0.000003
                                -0.000367 -0.001274 -0.002274 -0.000020  0.000109  0.000000  0.000257 -0.000000

   4.3   2    -1.5671  -35.9693  0.000002  0.000008  0.000030  0.000111  0.000402  0.001386  0.004358  0.012260  0.028648  0.052111
                                 0.058229  0.007062 -0.020709 -0.095860 -0.092252 -0.055662 -0.197887  0.022462 -0.241233  0.489677
                                -0.081458  0.531346  0.306320 -0.018070 -0.013970 -0.006263 -0.001461  0.000325 -0.000005 -0.000040
                                -0.000242 -0.000942 -0.002835 -0.005542 -0.000770 -0.008670 -0.009556  0.003035 -0.017534  0.059781
                                -0.127095  0.146866 -0.027842  0.016807 -0.057164 -0.002859 -0.002845  0.000273  0.007023 -0.000000
                                -0.007722  0.000000 -0.022732 -0.000000 -0.002126 -0.000000  0.003988 -0.000000 -0.005000  0.000000
                                -0.004260 -0.000000  0.002523  0.017608  0.066183  0.105676  0.113275  0.011663  0.003399  0.000577
                                -0.010507 -0.031210 -0.025809 -0.000581  0.006111  0.000000  0.006319  0.000000

   5.3   2    -0.7877  -26.0152 -0.000001 -0.000003 -0.000010 -0.000037 -0.000134 -0.000464 -0.001452 -0.004107 -0.009538 -0.017561
                                -0.018800 -0.016348  0.030499 -0.012709  0.151463 -0.213154  0.336923 -0.264945  0.698403 -1.023281
                                 0.529466 -0.377954  0.073525 -0.273831 -0.219718 -0.027158 -0.016095  0.003860 -0.000019 -0.000172
                                -0.001016 -0.004025 -0.011896 -0.026315  0.000496 -0.037915 -0.035126 -0.002396  0.025671 -0.003564
                                 0.226366 -0.172818  0.137405  0.115351 -0.207330  0.004091 -0.019496  0.002407  0.036585 -0.000000
                                 0.027333 -0.000000 -0.060741 -0.000000 -0.010930  0.000000  0.011205 -0.000000 -0.007247  0.000000
                                -0.014458  0.000000  0.010200  0.074053  0.259795  0.434660  0.545623  0.067831  0.009903  0.002100
                                -0.015472 -0.064766 -0.107150 -0.000734  0.009268  0.000000  0.013782  0.000000

   6.3   0     0.0097   -6.6824 -0.000000 -0.000001 -0.000003 -0.000011 -0.000042 -0.000141 -0.000455 -0.001247 -0.003021 -0.005165
                                -0.007141  0.022686 -0.036587  0.084157 -0.184635  0.378441 -0.404528  0.393972 -0.879470  1.146757
                                -0.684753  0.194997 -0.397426  0.319484 -0.124274  0.198811 -0.104175  0.880718  0.000003  0.000028
                                 0.000165  0.000650  0.001937  0.004081  0.000160  0.006034  0.005906 -0.001011  0.000529 -0.010815
                                -0.031815  0.038631 -0.041909 -0.026158 -0.049595 -0.048666 -0.079334  0.119691 -0.002470 -0.000000
                                -0.004620 -0.000000 -0.026702 -0.000000 -0.039466  0.000000 -0.001003  0.000000 -0.000615 -0.000000
                                -0.009209 -0.000000 -0.000226 -0.001676 -0.005616 -0.009740  0.078441  0.213868 -0.000142 -0.000041
                                 0.002937  0.004570 -0.024846  0.000143 -0.001463 -0.000000  0.001987 -0.000000

   7.3   0     0.0418   -5.8915  0.000000  0.000001  0.000003  0.000012  0.000043  0.000154  0.000464  0.001374  0.003007  0.006121
                                 0.004202  0.045659 -0.076916  0.131614 -0.384169  0.709219 -0.840461  0.763864 -1.759254  2.363193
                                -1.339577  0.588780 -0.608821  0.579045 -0.548114 -0.632411 -1.538406  1.126979 -0.000003 -0.000025
                                -0.000166 -0.000591 -0.002036 -0.000886 -0.004034 -0.003736 -0.009660  0.027686 -0.181083  0.550440
                                -1.693065  1.643400 -0.362026  0.175663 -0.384688 -0.024037 -0.762105  0.902068  0.002611  0.000000
                                -0.013760  0.000000 -0.094127  0.000000 -0.160968 -0.000000 -0.000207  0.000000 -0.008181  0.000000
                                -0.043293  0.000000 -0.000168 -0.001661 -0.000708 -0.005616  0.383038  1.180992  0.000800  0.000024
                                -0.001040 -0.022055 -0.131192 -0.000243  0.000832  0.000000  0.015376  0.000000

                                   1 3d2-    1 3d2-    1 3d2-    1 3d2-    1 3d2-    1 3d2-    1 3d2-    1 3d2-    1 3d2-    1 3d2- 
                                   1 3d2-    1 3d2-    1 3d2-    1 3d2-    1 3d2-    1 3d2-    1 3d2-    1 3d2-    1 3d2-    1 3d2- 
                                   1 4f2-    1 4f2-    1 4f2-    1 4f2-    1 5g2-    1 5g4-    1 5g2-    1 5g4-    1 5g2-    1 5g4- 
                                   2 3d2-    2 3d2-    2 3d2-    2 3d2-    2 4f2-    2 4f2- 

   1.4   2    -7.3819  -86.1378  0.000165  0.001476  0.008678  0.034243  0.100230  0.220629 -0.003576  0.327107  0.332143  0.204181
                                -0.037226  0.114554 -0.116120  0.085991 -0.006446  0.000388 -0.000179  0.000007 -0.000003  0.000001
                                 0.002069 -0.001127  0.000224 -0.000089  0.000036 -0.000000 -0.000334  0.000000  0.000063 -0.000000
                                 0.000011  0.000381  0.000088  0.000006 -0.000024 -0.000350

   2.4   0     0.0394   -7.6379 -0.000013 -0.000109 -0.000680 -0.002546 -0.008170 -0.010033 -0.008807 -0.019902 -0.032113  0.060207
                                -0.381464  1.159423 -3.296976  3.089059 -0.525387  0.435016 -0.291825  0.420935 -0.335060  1.012024
                                 0.003012  0.006682  0.007613  0.026267  0.000464 -0.000000 -0.001088  0.000000  0.000759  0.000000
                                 0.003092  0.010793  0.000752  0.000222 -0.001600 -0.001064

   3.4   0     0.0638  -14.7819  0.000024  0.000228  0.001270  0.005354  0.014441  0.049375 -0.020370  0.059389  0.024865  0.135561
                                -0.920743  2.549186 -8.039726  7.610704 -1.838920  0.404279 -0.762212  0.228043 -0.861680  0.888239
                                -0.006361 -0.011218 -0.015764 -0.025848 -0.000954  0.000000  0.002955 -0.000000  0.000955 -0.000000
                                -0.005999 -0.019821 -0.010779 -0.000412  0.002943  0.003874

 HOMO     13.1    -0.192287 =      -5.2324eV
 LUMO      6.2     0.009712 =       0.2643eV
 LUMO-HOMO         0.202000 =       5.4967eV


 **********************************************************************************************************************************
 DATASETS  * FILE   NREC   LENGTH (MB)   RECORD NAMES
              1      22       22.36       500      610      700      900      950      970     1000      129      960     1700   
                                          VAR    BASINP    GEOM    SYMINP    ZMAT    AOBASIS   BASIS     P2S    ABASIS    OPER   
                                         1101     1401     1411     1412     1650     1100     1400     1410     1200     1210   
                                          SR      EKINR    POTR     PVPR    MOLCAS      S      EKIN      POT      H0       H01  
                                         1080     1600   
                                         AOSYM     SMH  

              2       4        3.53       700     1000      520     2100   
                                         GEOM     BASIS   MCVARS     RHF  

 PROGRAMS   *        TOTAL       RHF       INT
 CPU TIMES  *        69.38      3.51     65.69
 REAL TIME  *        76.08 SEC
 DISK USED  *         5.22 GB      
 SF USED    *         0.14 MB      
 GA USED    *         0.00 MB       (max)       0.00 MB       (current)
 **********************************************************************************************************************************
 SETTING SCF            =     -3670.72326535  AU                              
 SETTING _CC_NORM_MAX   =         2.00000000                                  


 PROGRAM * CCSD (Restricted open-shell coupled cluster)     Authors: C. Hampel, H.-J. Werner, 1991, M. Deegan, P.J. Knowles, 1992


 Convergence thresholds:  THRVAR = 1.00D-08  THRDEN = 1.00D-06

 CCSD(T)     terms to be evaluated (factor= 1.000)


 Number of core orbitals:          15 (   8   3   3   1 )
 Number of closed-shell orbitals:   9 (   5   2   2   0 )
 Number of external orbitals:     317 ( 136  73  73  35 )

 Memory could be reduced to 139.73 Mwords without degradation in triples

 Number of N-1 electron functions:              18
 Number of N-2 electron functions:             153
 Number of singly external CSFs:              1944
 Number of doubly external CSFs:           3103347
 Total number of CSFs:                     3105291

 Molecular orbitals read from record     2100.2  Type=RHF/CANONICAL (state 1.1)

 Integral transformation finished. Total CPU:   4.37 sec, npass=  1  Memory used:  14.81 MW

 Starting RMP2 calculation

 Wavefunction is spin-projected

 ITER.      SQ.NORM     CORR.ENERGY   TOTAL ENERGY   ENERGY CHANGE        DEN1      VAR(S)    VAR(P)  DIIS     TIME
   1      1.15011778    -0.61194656 -3671.33521192    -0.61194656    -0.00843516  0.45D-11  0.39D-02  1  1     5.29
   2      1.16273575    -0.62168287 -3671.34494823    -0.00973631    -0.00036649  0.16D-11  0.34D-03  2  2     5.98
   3      1.16779101    -0.62323414 -3671.34649949    -0.00155126    -0.00002009  0.39D-12  0.19D-04  3  3     6.43
   4      1.16900175    -0.62346154 -3671.34672690    -0.00022740    -0.00000059  0.84D-13  0.52D-06  4  4     7.42
   5      1.16908355    -0.62347125 -3671.34673661    -0.00000971    -0.00000003  0.22D-13  0.24D-07  5  5     7.97
   6      1.16908856    -0.62347123 -3671.34673658     0.00000002    -0.00000000  0.57D-14  0.89D-09  6  6    10.30

 Norm of t1 vector:      0.00000953      S-energy:    -0.00000000      T1 diagnostic:  0.00000159
 Norm of t2 vector:      0.41120379      P-energy:    -0.62347123
                                         Alpha-Beta:  -0.45181390
                                         Alpha-Alpha: -0.08582866
                                         Beta-Beta:   -0.08582866

 Spin contamination <S**2-Sz**2-Sz>     0.00000000
  Reference energy                  -3670.723265354720
  RHF-RMP2 correlation energy          -0.623471228860
 !RHF-RMP2 energy                   -3671.346736583580
 (NB above energy spin projected)

 Starting RCCSD calculation

 ITER.      SQ.NORM     CORR.ENERGY   TOTAL ENERGY   ENERGY CHANGE        DEN1      VAR(S)    VAR(P)  DIIS     TIME
   1      1.14323027    -0.60068880 -3671.32395416    -0.60068880    -0.01500223  0.19D-02  0.40D-02  1  1    15.02
   2      1.16399288    -0.61598660 -3671.33925195    -0.01529780    -0.00184272  0.47D-03  0.93D-03  2  2    19.71
   3      1.17880756    -0.62012186 -3671.34338721    -0.00413526    -0.00054394  0.22D-03  0.30D-03  3  3    24.02
   4      1.19396246    -0.62263444 -3671.34589979    -0.00251258    -0.00012687  0.61D-04  0.65D-04  4  4    28.63
   5      1.20416464    -0.62371077 -3671.34697612    -0.00107633    -0.00002169  0.13D-04  0.82D-05  5  5    32.65
   6      1.20805712    -0.62401237 -3671.34727772    -0.00030160    -0.00000403  0.30D-05  0.11D-05  6  6    37.39
   7      1.20919905    -0.62407458 -3671.34733993    -0.00006221    -0.00000095  0.79D-06  0.25D-06  7  7    41.19
   8      1.20953151    -0.62409310 -3671.34735846    -0.00001852    -0.00000033  0.28D-06  0.95D-07  8  8    44.85
   9      1.20966368    -0.62409825 -3671.34736360    -0.00000514    -0.00000013  0.10D-06  0.43D-07  9  9    50.51
  10      1.20970834    -0.62409907 -3671.34736442    -0.00000082    -0.00000006  0.44D-07  0.23D-07 10 10    54.11
  11      1.20972777    -0.62409864 -3671.34736400     0.00000042    -0.00000003  0.19D-07  0.13D-07 11 11    60.36
  12      1.20973742    -0.62409818 -3671.34736353     0.00000046    -0.00000002  0.89D-08  0.75D-08 12 12    65.52
  13      1.20974394    -0.62409793 -3671.34736328     0.00000025    -0.00000001  0.36D-08  0.43D-08 13 13    72.01

 Norm of t1 vector:      0.13800491      S-energy:     0.00000019      T1 diagnostic:  0.02300082
                                                                       D1 diagnostic:  0.08892506
 Norm of t2 vector:      0.43669049      P-energy:    -0.62409812
                                         Alpha-Beta:  -0.46885028
                                         Alpha-Alpha: -0.07762392
                                         Beta-Beta:   -0.07762392

 Singles amplitudes (print threshold =  0.500E-01):

         I         SYM. A    A   T(IA) [Alpha-Alpha]

         5         1         7     -0.05632297
 
         I         SYM. A    A   T(IA) [Beta-Beta]

         5         1         7     -0.05632297

 Doubles amplitudes (print threshold =  0.500E-01):

         I         J         SYM. A    SYM. B    A         B      T(IJ, AB) [Alpha-Beta]

         5         5         2         2         1         1     -0.05979467
         5         5         3         3         1         1     -0.05979467

 Spin contamination <S**2-Sz**2-Sz>     0.00000000

 Memory could be reduced to 143.62 Mwords without degradation in triples
 

  Correlated core orbitals:             9.1      10.1       4.2       4.3
  Orbital energies:                    -2.6923   -1.9286   -1.5671   -1.5671
 
  RCCSD core-core energy               -0.134992467965
  RCCSD core-valence energy            -0.197155378934
  RCCSD valence correlation energy     -0.291950081250
 

 RESULTS
 =======

  Reference energy                  -3670.723265354720
  RCCSD singles energy                  0.000000187915
  RCCSD pair energy                    -0.624098116065
  RCCSD correlation energy             -0.624097928150
  Triples (T) contribution             -0.026797030710
  Total correlation energy             -0.650894958860
 
  RHF-RCCSD energy                  -3671.347363282870
  RHF-RCCSD[T] energy               -3671.375481688688
  RHF-RCCSD-T energy                -3671.373850309995
 !RHF-RCCSD(T) energy               -3671.374160313580

 Program statistics:

 Available memory in ccsd:               999999162
 Min. memory needed in ccsd:               9269475
 Max. memory used in ccsd:                13027373
 Max. memory used in cckext:              11905262 (13 integral passes)
 Max. memory used in cckint:              14810557 ( 1 integral passes)



 **********************************************************************************************************************************
 DATASETS  * FILE   NREC   LENGTH (MB)   RECORD NAMES
              1      22       22.36       500      610      700      900      950      970     1000      129      960     1700   
                                          VAR    BASINP    GEOM    SYMINP    ZMAT    AOBASIS   BASIS     P2S    ABASIS    OPER   
                                         1101     1401     1411     1412     1650     1100     1400     1410     1200     1210   
                                          SR      EKINR    POTR     PVPR    MOLCAS      S      EKIN      POT      H0       H01  
                                         1080     1600   
                                         AOSYM     SMH  

              2       4        3.53       700     1000      520     2100   
                                         GEOM     BASIS   MCVARS     RHF  

 PROGRAMS   *        TOTAL  RCCSD(T)       RHF       INT
 CPU TIMES  *       187.41    117.96      3.51     65.69
 REAL TIME  *       277.32 SEC
 DISK USED  *        14.47 GB      
 SF USED    *         2.15 GB      
 GA USED    *         0.00 MB       (max)       0.00 MB       (current)
 **********************************************************************************************************************************
 SETTING CCSD           =     -3671.37416031  AU                              
 SETTING BIND           =         0.26995679  AU                              
 Output type csv         
                                                                                                                                                                                                                                                                

  1.20,SCF,CCSD,BIND
   1.2,   -3670.723265,   -3671.374160,   0.26995679
                                                  

 RCCSD(T)/USERDEF energy=  -3671.374160313580

        RCCSD(T)        RHF-SCF 
  -3671.37416031  -3670.72326535
 **********************************************************************************************************************************
 Molpro calculation terminated
 Variable memory released
