<?xml version="1.0"?>
<molpro xmlns="http://www.molpro.net/schema/molpro-output"
  xmlns:xsd="http://www.w3.org/1999/XMLSchema"
  xmlns:cml="http://www.xml-cml.org/schema"
  xmlns:stm="http://www.xml-cml.org/schema"
  xmlns:xhtml="http://www.w3.org/1999/xhtml">
 <!--

 Nodes     nprocs
 nid01974    11
 Number of processes for MPI-2 version of Molpro:   nprocs(total)=   12   nprocs(compute)=   11   nprocs(helper)=    1

 Using customized tuning parameters: mindgm=7; mindgv=16; mindgc=1; mindgr=1; noblas=0; minvec=7
 default implementation of scratch files=sf

 --><job>
  <!--

 Variables initialized (889), CPU time= 0.02 sec
 Commands  initialized (702), CPU time= 0.01 sec, 572 directives.
 Default parameters read. Elapsed time= 0.12 sec

 Checking input...
 Passed
1


                                         ***  PROGRAM SYSTEM MOLPRO  ***
                                       Copyright, TTI GmbH Stuttgart, 2015
                                    Version 2015.1 linked Dec 29 2018 15:55:43


 **********************************************************************************************************************************
 LABEL *   Calculation for Lu atom, singlet and triplet
  64 bit mpp version                                                                     DATE: 31-Mar-23          TIME: 18:09:38
 **********************************************************************************************************************************

 SHA1:             19cd028119e0e09f93f0674bd8af7968d9b3eff6
 **********************************************************************************************************************************
  -->
  <!--

 THRESHOLDS:

 ZERO    =  1.00D-12  ONEINT  =  1.00D-12  TWOINT  =  1.00D-15  PREFAC  =  1.00D-14  LOCALI  =  1.00D-09  EORDER  =  1.00D-04
 ENERGY  =  0.00D+00  ETEST   =  0.00D+00  EDENS   =  0.00D+00  THRDEDEF=  1.00D-06  GRADIENT=  1.00D-02  STEP    =  1.00D-03
 ORBITAL =  1.00D-05  CIVEC   =  1.00D-05  COEFF   =  1.00D-04  PRINTCI =  5.00D-02  PUNCHCI =  9.90D+01  OPTGRAD =  3.00D-04
 OPTENERG=  1.00D-06  OPTSTEP =  3.00D-04  THRGRAD =  1.00D-10  COMPRESS=  1.00D-11  VARMIN  =  1.00D-07  VARMAX  =  1.00D-03
 THRDOUB =  0.00D+00  THRDIV  =  1.00D-05  THRRED  =  1.00D-07  THRPSP  =  1.00D+00  THRDC   =  1.00D-10  THRCS   =  1.00D-10
 THRNRM  =  1.00D-08  THREQ   =  0.00D+00  THRDE   =  1.00D+00  THRREF  =  1.00D-05  SPARFAC =  1.00D+00  THRDLP  =  1.00D-07
 THRDIA  =  1.00D-10  THRDLS  =  1.00D-07  THRGPS  =  0.00D+00  THRKEX  =  0.00D+00  THRDIS  =  2.00D-01  THRVAR  =  1.00D-10
 THRLOC  =  1.00D-06  THRGAP  =  1.00D-06  THRLOCT = -1.00D+00  THRGAPT = -1.00D+00  THRORB  =  1.00D-06  THRMLTP =  0.00D+00
 THRCPQCI=  1.00D-10  KEXTA   =  0.00D+00  THRCOARS=  0.00D+00  SYMTOL  =  1.00D-06  GRADTOL =  1.00D-06  THROVL  =  1.00D-08
 THRORTH =  1.00D-08  GRID    =  1.00D-06  GRIDMAX =  1.00D-03  DTMAX   =  0.00D+00  THROCCDE=  1.00D-01  THROCCDE=  1.00D-01



 THRESHOLDS:

 ZERO    =  1.00D-12  ONEINT  =  1.00D-15  TWOINT  =  1.00D-15  PREFAC  =  1.00D-14  LOCALI  =  1.00D-09  EORDER  =  1.00D-04
 ENERGY  =  0.00D+00  ETEST   =  0.00D+00  EDENS   =  0.00D+00  THRDEDEF=  1.00D-06  GRADIENT=  1.00D-02  STEP    =  1.00D-03
 ORBITAL =  1.00D-05  CIVEC   =  1.00D-05  COEFF   =  1.00D-04  PRINTCI =  5.00D-02  PUNCHCI =  9.90D+01  OPTGRAD =  3.00D-04
 OPTENERG=  1.00D-06  OPTSTEP =  3.00D-04  THRGRAD =  1.00D-10  COMPRESS=  1.00D-11  VARMIN  =  1.00D-07  VARMAX  =  1.00D-03
 THRDOUB =  0.00D+00  THRDIV  =  1.00D-05  THRRED  =  1.00D-07  THRPSP  =  1.00D+00  THRDC   =  1.00D-10  THRCS   =  1.00D-10
 THRNRM  =  1.00D-08  THREQ   =  0.00D+00  THRDE   =  1.00D+00  THRREF  =  1.00D-05  SPARFAC =  1.00D+00  THRDLP  =  1.00D-07
 THRDIA  =  1.00D-10  THRDLS  =  1.00D-07  THRGPS  =  0.00D+00  THRKEX  =  0.00D+00  THRDIS  =  2.00D-01  THRVAR  =  1.00D-10
 THRLOC  =  1.00D-06  THRGAP  =  1.00D-06  THRLOCT = -1.00D+00  THRGAPT = -1.00D+00  THRORB  =  1.00D-06  THRMLTP =  0.00D+00
 THRCPQCI=  1.00D-10  KEXTA   =  0.00D+00  THRCOARS=  0.00D+00  SYMTOL  =  1.00D-06  GRADTOL =  1.00D-06  THROVL  =  1.00D-08
 THRORTH =  1.00D-08  GRID    =  1.00D-06  GRIDMAX =  1.00D-03  DTMAX   =  0.00D+00  THROCCDE=  1.00D-01  THROCCDE=  1.00D-01



Geometry recognized as XYZ


 Variable memory set to 1000000000 words,  buffer space   230000 words

 SETTING BASIS          =    USERDEF

 DO I                   =         9.00000000

 Running procedure=IIID1
  --><jobstep command="RHF-SCF" commandset="SCFPRO">
   <!--


 Recomputing integrals since basis changed


 Using spherical harmonics



 PROGRAM * SEWARD (Integral evaluation for generally contracted gaussian basis sets)     Author: Roland Lindh, 1990

 Geometry written to block  1 of record 700

 Orientation using atomic masses
 Molecule type: Atom
 Symmetry elements: X,Y,Z
 Rotational constants:       0.0000000      0.0000000      0.0000000 GHz  (calculated with average atomic masses)

 Point group  D2h


   --><cml:molecule>
    <cml:symmetry pointGroup="D2h"/>
    <cml:atomArray>
     <cml:atom id="a1" elementType="Lu" x3="0.0" y3="0.0" z3="0.0"/>
    </cml:atomArray>
    <cml:bondArray>
    </cml:bondArray>
   </cml:molecule><!--

 ATOMIC COORDINATES

 NR  ATOM    CHARGE       X              Y              Z

   1  LU     25.00    0.000000000    0.000000000    0.000000000

 NUCLEAR CHARGE:                   25
 NUMBER OF PRIMITIVE AOS:         581
 NUMBER OF SYMMETRY AOS:          442
 NUMBER OF CONTRACTIONS:          442   ( 103Ag  +  70B3u +  70B2u +  36B1g +  70B1u +  36B2g +  36B3g +  21Au  )
 NUMBER OF CORE ORBITALS:           0   (   0Ag  +   0B3u +   0B2u +   0B1g +   0B1u +   0B2g +   0B3g +   0Au  )
 NUMBER OF VALENCE ORBITALS:       17   (   4Ag  +   3B3u +   3B2u +   1B1g +   3B1u +   1B2g +   1B3g +   1Au  )


 NUCLEAR REPULSION ENERGY    0.00000000

 EXTRA SYMMETRY OF AOS IN SYMMETRY 1:   1 1 1 1 1 1 1 1 1 1   1 1 1 1 1 1 1 1 1 1   1 1 1 1 1 1 1 1 1 1   1 1 1 1 1 1 1 1 2 3
                                        2 3 2 3 2 3 2 3 2 3   2 3 2 3 2 3 2 3 2 3   2 3 2 3 2 3 2 3 2 3   2 3 2 3 2 3 2 3 2 3
                                        2 3 4 5 6 4 5 6 4 5   6 4 5 6 4 5 6 4 5 6   4 5 6
 EXTRA SYMMETRY OF AOS IN SYMMETRY 2:   1 1 1 1 1 1 1 1 1 1   1 1 1 1 1 1 1 1 1 1   1 1 1 1 1 1 1 1 1 1   1 2 3 2 3 2 3 2 3 2
                                        3 2 3 2 3 2 3 2 3 2   3 2 3 2 3 2 3 2 3 2   3 4 5 6 4 5 6 4 5 6
 EXTRA SYMMETRY OF AOS IN SYMMETRY 3:   1 1 1 1 1 1 1 1 1 1   1 1 1 1 1 1 1 1 1 1   1 1 1 1 1 1 1 1 1 1   1 2 3 2 3 2 3 2 3 2
                                        3 2 3 2 3 2 3 2 3 2   3 2 3 2 3 2 3 2 3 2   3 4 5 6 4 5 6 4 5 6
 EXTRA SYMMETRY OF AOS IN SYMMETRY 4:   1 1 1 1 1 1 1 1 1 1   1 1 1 1 1 1 1 1 1 1   1 1 2 3 2 3 2 3 2 3   2 3 2 3 2 3
 EXTRA SYMMETRY OF AOS IN SYMMETRY 5:   1 1 1 1 1 1 1 1 1 1   1 1 1 1 1 1 1 1 1 1   1 1 1 1 1 1 1 1 1 1   1 2 3 2 3 2 3 2 3 2
                                        3 2 3 2 3 2 3 2 3 2   3 2 3 2 3 2 3 2 3 2   3 4 5 6 4 5 6 4 5 6
 EXTRA SYMMETRY OF AOS IN SYMMETRY 6:   1 1 1 1 1 1 1 1 1 1   1 1 1 1 1 1 1 1 1 1   1 1 2 3 2 3 2 3 2 3   2 3 2 3 2 3
 EXTRA SYMMETRY OF AOS IN SYMMETRY 7:   1 1 1 1 1 1 1 1 1 1   1 1 1 1 1 1 1 1 1 1   1 1 2 3 2 3 2 3 2 3   2 3 2 3 2 3
 EXTRA SYMMETRY OF AOS IN SYMMETRY 8:   1 1 1 1 1 1 1 1 1 1   1 1 1 1 1 2 3 2 3 2   3

 Eigenvalues of metric

         1 0.333E-06 0.964E-06 0.340E-05 0.186E-04 0.475E-04 0.703E-04 0.799E-04 0.799E-04
         2 0.960E-06 0.179E-05 0.251E-04 0.110E-03 0.525E-03 0.525E-03 0.534E-03 0.156E-02
         3 0.960E-06 0.179E-05 0.251E-04 0.110E-03 0.525E-03 0.525E-03 0.534E-03 0.156E-02
         4 0.799E-04 0.144E-03 0.223E-02 0.632E-02 0.897E-02 0.238E-01 0.240E-01 0.240E-01
         5 0.960E-06 0.179E-05 0.251E-04 0.110E-03 0.525E-03 0.525E-03 0.534E-03 0.156E-02
         6 0.799E-04 0.144E-03 0.223E-02 0.632E-02 0.897E-02 0.238E-01 0.240E-01 0.240E-01
         7 0.799E-04 0.144E-03 0.223E-02 0.632E-02 0.897E-02 0.238E-01 0.240E-01 0.240E-01
         8 0.525E-03 0.142E-01 0.219E-01 0.528E-01 0.103E+00 0.167E+00 0.268E+00 0.268E+00


 Contracted 2-electron integrals neglected if value below      1.0D-15
 AO integral compression algorithm  1   Integral accuracy      1.0D-15

     3531.604 MB (compressed) written to integral file ( 42.0%)

     Node minimum: 155.714 MB, node maximum: 436.208 MB


 NUMBER OF SORTED TWO-ELECTRON INTEGRALS:   55861870.     BUFFER LENGTH:  32768
 NUMBER OF SEGMENTS:   2  SEGMENT LENGTH:   31997722      RECORD LENGTH: 524288

 Memory used in sort:      32.55 MW

 SORT1 READ  1050599776. AND WROTE    31971422. INTEGRALS IN     93 RECORDS. CPU TIME:    26.46 SEC, REAL TIME:    30.64 SEC
 SORT2 READ   352987961. AND WROTE   613618504. INTEGRALS IN  17083 RECORDS. CPU TIME:     1.35 SEC, REAL TIME:     2.48 SEC

 Node minimum:    55639389.  Node maximum:    55868715. integrals

 OPERATOR DM      FOR CENTER  0  COORDINATES:    0.000000    0.000000    0.000000


 **********************************************************************************************************************************
 DATASETS  * FILE   NREC   LENGTH (MB)   RECORD NAMES
              1      19       21.26       500      610      700      900      950      970     1000      129      960     1100
                                          VAR    BASINP    GEOM    SYMINP    ZMAT    AOBASIS   BASIS     P2S    ABASIS      S
                                         1400     1410     1420     1200     1210     1080     1600     1650     1700
                                           T        V       ECP      H0       H01     AOSYM     SMH    MOLCAS    OPER

 PROGRAMS   *        TOTAL       INT
 CPU TIMES  *       159.14    158.72
 REAL TIME  *       166.55 SEC
 DISK USED  *         7.80 GB
 GA USED    *         0.00 MB       (max)       0.00 MB       (current)
 **********************************************************************************************************************************


 PROGRAM * RHF-SCF (OPEN SHELL)       Authors: W. Meyer, H.-J. Werner


 NUMBER OF ELECTRONS:      12+   11-    SPACE SYMMETRY=4    SPIN SYMMETRY: Doublet
 CONVERGENCE THRESHOLDS:    1.00E-05 (Density)    1.00E-07 (Energy)
 MAX. NUMBER OF ITERATIONS:       60
 INTERPOLATION TYPE:            DIIS
 INTERPOLATION STEPS:              2 (START)      1 (STEP)
 LEVEL SHIFTS:                 -0.60 (CLOSED) -0.30 (OPEN)

 Number of closed-shell orbitals:   11 (   1   3   3   0   3   0   0   1 )
 Number of open-shell orbitals:      1 (   0   0   0   1   0   0   0   0 )


 Guess basis ATOMIC-GUESS,LU=ECP46_GUESS not found. No density guess!


 Molecular orbital dump at record        4202.2

 ITERATION    DDIFF          GRAD             ENERGY        2-EL.EN.            DIPOLE MOMENTS         DIIS   ORB.
    1      0.000D+00      0.000D+00      -146.17585460    445.627231    0.00000    0.00000    0.00000    0    start
    2      0.000D+00      0.346D+00      -127.64101856     88.912935    0.00000    0.00000    0.00000    0    diag,B
    3      0.937D+01      0.182D+00      -155.81636255    423.569711    0.00000    0.00000    0.00000    1    diag,B
    4      0.937D+01      0.296D+00      -171.52597526    377.645237    0.00000    0.00000    0.00000    2    diag,B
    5      0.572D-01      0.168D+00      -178.39953147    342.302853    0.00000    0.00000    0.00000    3    diag,B
    6      0.501D-01      0.844D-01      -181.09640445    305.450591    0.00000    0.00000    0.00000    4    diag,B
    7      0.245D-01      0.925D-02      -181.17945885    297.708849    0.00000    0.00000    0.00000    5    fixocc
    8      0.796D-02      0.637D-02      -181.19338428    298.001113    0.00000    0.00000    0.00000    6    diag,B
    9      0.228D-02      0.288D-02      -181.19650992    298.596093    0.00000    0.00000    0.00000    7    diag,B
   10      0.178D-02      0.306D-03      -181.19657050    298.710536    0.00000    0.00000    0.00000    8    orth
   11      0.308D-03      0.545D-04      -181.19657545    298.687109    0.00000    0.00000    0.00000    9    diag,B
   12      0.109D-03      0.275D-04      -181.19657828    298.684320    0.00000    0.00000    0.00000    9    diag,B
   13      0.649D-04      0.152D-04      -181.19658013    298.678116    0.00000    0.00000    0.00000    9    diag,B
   14      0.110D-03      0.869D-05      -181.19658051    298.684329    0.00000    0.00000    0.00000    9    diag,B
   15      0.669D-04      0.390D-05      -181.19658052    298.681710    0.00000    0.00000    0.00000    9    diag,B
   16      0.545D-05      0.656D-06      -181.19658053    298.681796    0.00000    0.00000    0.00000    0    orth

 Final alpha occupancy:   1   3   3   1   3   0   0   1
 Final beta  occupancy:   1   3   3   0   3   0   0   1

 !RHF STATE 1.4 Energy               -181.196580525408
   --><property name="Energy" method="RHF" principal="true" stateSymmetry="4" stateNumber="1"
     value="-181.196580525408"/><!--
 Nuclear energy                         0.00000000
 One-electron energy                 -330.53747839
 Two-electron energy                  149.34089787
 Virial quotient                       -1.84132240
 !RHF STATE 1.4 Dipole moment           0.00000000     0.00000000     0.00000000
 Dipole moment /Debye                   0.00000000     0.00000000     0.00000000
   --><property name="Dipole moment" method="RHF" principal="true" stateSymmetry="4"
     stateNumber="1" value="0.0 0.0 0.0"/><!--

 ELECTRON ORBITALS
 =================


   Orb  Occ    Energy  Couls-En    Coefficients

                                   1 1s      1 1s      1 1s      1 1s      1 1s      1 1s      1 1s      1 1s      1 1s      1 1s
                                   1 1s      1 1s      1 1s      1 1s      1 1s      1 1s      1 1s      1 1s      1 1s      1 1s
                                   1 1s      1 1s      1 1s      1 1s      1 1s      1 1s      1 1s      1 1s      1 1s      1 1s
                                   1 1s      1 1s      1 1s      1 1s      1 1s      1 1s      1 1s      1 1s      1 3d0     1 3d2+
                                   1 3d0     1 3d2+    1 3d0     1 3d2+    1 3d0     1 3d2+    1 3d0     1 3d2+    1 3d0     1 3d2+
                                   1 3d0     1 3d2+    1 3d0     1 3d2+    1 3d0     1 3d2+    1 3d0     1 3d2+    1 3d0     1 3d2+
                                   1 3d0     1 3d2+    1 3d0     1 3d2+    1 3d0     1 3d2+    1 3d0     1 3d2+    1 3d0     1 3d2+
                                   1 3d0     1 3d2+    1 3d0     1 3d2+    1 3d0     1 3d2+    1 3d0     1 3d2+    1 3d0     1 3d2+
                                   1 3d0     1 3d2+    1 5g0     1 5g4+    1 5g2+    1 5g0     1 5g4+    1 5g2+    1 5g0     1 5g4+
                                   1 5g2+    1 5g0     1 5g4+    1 5g2+    1 5g0     1 5g4+    1 5g2+    1 5g0     1 5g4+    1 5g2+
                                   1 5g0     1 5g4+    1 5g2+

   1.1   2    -3.2853  -19.6817 -0.000000  0.000000 -0.000000  0.000000 -0.000000  0.000000 -0.000000  0.000000 -0.000000  0.000000
                                -0.000000  0.000001 -0.000003  0.000012 -0.000082 -0.000350  0.000362 -0.000876  0.002966  0.000293
                                -0.015811  0.169618 -0.257820  0.070889  0.453012 -0.878496 -0.386848  1.139250  0.417502  0.082180
                                -0.061900  0.090642 -0.136546  0.102286 -0.040300  0.015532 -0.004009  0.000714  0.000000 -0.000000
                                -0.000000  0.000000  0.000000 -0.000000 -0.000000  0.000000  0.000000 -0.000000 -0.000001  0.000000
                                 0.000003 -0.000000 -0.000009  0.000000  0.000054 -0.000000 -0.000148  0.000000  0.000145 -0.000000
                                 0.000059  0.000000 -0.001674 -0.000000  0.006977  0.000000  0.001852  0.000000 -0.001149 -0.000000
                                 0.003494  0.000000 -0.004965 -0.000000  0.002467  0.000000 -0.000490 -0.000000  0.000177  0.000000
                                -0.000047 -0.000000  0.000002 -0.000010  0.000000 -0.000010  0.000052  0.000000  0.000080 -0.000349
                                 0.000000  0.000508 -0.002797  0.000000 -0.000459  0.002496 -0.000000  0.000179 -0.000971  0.000000
                                -0.000058  0.000316 -0.000000

   2.1   0    -0.7881  -12.9339  0.000000 -0.000000  0.000000 -0.000000  0.000000 -0.000000  0.000000 -0.000000  0.000000 -0.000000
                                 0.000000 -0.000000  0.000000 -0.000001  0.000005  0.000017 -0.000013  0.000021 -0.000047 -0.000016
                                 0.000163 -0.001285  0.001853 -0.000780 -0.001378  0.002581  0.003177 -0.003596 -0.003348 -0.002576
                                 0.000110 -0.001064  0.001339 -0.000941  0.000347 -0.000128  0.000032 -0.000006 -0.000000  0.000000
                                 0.000001 -0.000000 -0.000004 -0.000000  0.000017  0.000000 -0.000060 -0.000000  0.000189  0.000000
                                -0.000565 -0.000000  0.001772  0.000000 -0.008688 -0.000000  0.021324  0.000000 -0.020400 -0.000000
                                 0.022662  0.000000 -0.129690 -0.000000  0.447722  0.000000  0.589714  0.000000  0.175731  0.000000
                                -0.002079  0.000000 -0.014400 -0.000000  0.018297  0.000000 -0.006508 -0.000000  0.002818  0.000000
                                -0.000813 -0.000000  0.000047  0.000076  0.000000 -0.000144 -0.000237 -0.000000  0.001914  0.003207
                                 0.000000  0.009999  0.014187  0.000000 -0.008517 -0.012637 -0.000000  0.003969  0.005774  0.000000
                                -0.001391 -0.002044 -0.000000

   3.1   0    -0.7507  -12.8552  0.000000 -0.000000  0.000000 -0.000000  0.000000  0.000000 -0.000000  0.000000 -0.000000  0.000000
                                 0.000000 -0.000000  0.000000 -0.000000  0.000000  0.000000 -0.000000  0.000000 -0.000000 -0.000000
                                 0.000000 -0.000000  0.000000 -0.000000  0.000000 -0.000000 -0.000000  0.000000  0.000000  0.000000
                                -0.000000 -0.000000 -0.000000  0.000000 -0.000000  0.000000 -0.000000  0.000000  0.000000 -0.000000
                                -0.000000  0.000001  0.000000 -0.000004 -0.000000  0.000016  0.000000 -0.000055 -0.000000  0.000175
                                 0.000000 -0.000520 -0.000000  0.001632  0.000000 -0.007987 -0.000000  0.019587  0.000000 -0.018760
                                -0.000000  0.021494  0.000000 -0.127298 -0.000000  0.443109 -0.000000  0.585026 -0.000000  0.187538
                                -0.000000 -0.010242 -0.000000  0.000990 -0.000000  0.010180 -0.000000 -0.004780 -0.000000  0.002176
                                 0.000000 -0.000640 -0.000000 -0.000000  0.000038  0.000000  0.000000 -0.000118 -0.000000 -0.000000
                                 0.001595 -0.000000 -0.000000  0.008160  0.000000  0.000000 -0.006963 -0.000000 -0.000000  0.003273
                                 0.000000  0.000000 -0.001150

                                   1 2px     1 2px     1 2px     1 2px     1 2px     1 2px     1 2px     1 2px     1 2px     1 2px
                                   1 2px     1 2px     1 2px     1 2px     1 2px     1 2px     1 2px     1 2px     1 2px     1 2px
                                   1 2px     1 2px     1 2px     1 2px     1 2px     1 2px     1 2px     1 2px     1 2px     1 2px
                                   1 2px     1 4f1+    1 4f3+    1 4f1+    1 4f3+    1 4f1+    1 4f3+    1 4f1+    1 4f3+    1 4f1+
                                   1 4f3+    1 4f1+    1 4f3+    1 4f1+    1 4f3+    1 4f1+    1 4f3+    1 4f1+    1 4f3+    1 4f1+
                                   1 4f3+    1 4f1+    1 4f3+    1 4f1+    1 4f3+    1 4f1+    1 4f3+    1 4f1+    1 4f3+    1 4f1+
                                   1 4f3+    1 6h1+    1 6h3+    1 6h5+    1 6h1+    1 6h3+    1 6h5+    1 6h1+    1 6h3+    1 6h5+


   1.2   2    -2.3098  -17.2368  0.000000 -0.000000  0.000000 -0.000000  0.000000 -0.000000  0.000001 -0.000003  0.000011 -0.000035
                                 0.000104 -0.000289  0.000799 -0.002428  0.008966 -0.074342  0.180654 -0.344114  0.610781 -0.603629
                                -0.063434  0.755517 -0.034002  0.454319 -0.005423  0.035892 -0.001432  0.005874 -0.000395  0.000202
                                -0.000049  0.000000 -0.000000 -0.000001  0.000001  0.000006 -0.000004 -0.000030  0.000021  0.000271
                                -0.000211 -0.000487  0.000352  0.000821 -0.001056  0.000530 -0.001566  0.001980 -0.003175  0.003814
                                -0.007159  0.000125 -0.004647 -0.000102  0.000135  0.000037 -0.000294 -0.000012  0.000166  0.000003
                                -0.000057  0.000000 -0.000002  0.000008 -0.000068 -0.000096  0.000579  0.000011 -0.000011 -0.000033

   2.2   2    -0.7322  -14.7076  0.000000 -0.000000  0.000000 -0.000000  0.000000 -0.000000  0.000000 -0.000000  0.000000 -0.000000
                                 0.000001 -0.000004  0.000010 -0.000032  0.000117 -0.000977  0.002376 -0.004400  0.007694 -0.008183
                                 0.001972  0.007798  0.002413  0.000352  0.031682 -0.009100 -0.004855 -0.031293  0.000630 -0.000260
                                 0.000056  0.000011  0.000007 -0.000075 -0.000045  0.000366  0.000221 -0.001774 -0.001070  0.018320
                                 0.011039 -0.029160 -0.017583  0.102620  0.061659  0.166368  0.099763  0.282752  0.169612  0.347336
                                 0.209893  0.220593  0.135306  0.077696  0.047909 -0.021063 -0.012965  0.011066  0.006813 -0.003529
                                -0.002172  0.000320  0.000155 -0.000047  0.001600  0.000817 -0.000264  0.002524  0.001131 -0.000282

   3.2   2    -0.7222  -14.6985  0.000000 -0.000000  0.000000 -0.000000  0.000000 -0.000000  0.000000 -0.000000  0.000000 -0.000001
                                 0.000002 -0.000006  0.000017 -0.000053  0.000196 -0.001633  0.003977 -0.007598  0.013624 -0.013879
                                 0.000234  0.016460  0.000091  0.007556  0.031841 -0.006908 -0.004753 -0.031461  0.000635 -0.000262
                                 0.000057 -0.000007  0.000011  0.000045 -0.000075 -0.000221  0.000365  0.001073 -0.001773 -0.011085
                                 0.018305  0.017629 -0.029134 -0.062253  0.102486 -0.101092  0.166066 -0.171591  0.282017 -0.209170
                                 0.346337 -0.132284  0.222013 -0.047576  0.080091  0.012792 -0.021490 -0.006812  0.011443  0.002175
                                -0.003652 -0.000178  0.000163  0.000029 -0.000873  0.000798  0.000185 -0.001425  0.001330  0.000149

   4.2   0    -0.3110   -6.2623  0.000000 -0.000000  0.000000 -0.000000  0.000000 -0.000000  0.000000 -0.000001  0.000002 -0.000006
                                 0.000018 -0.000050  0.000139 -0.000429  0.001613 -0.013718  0.033690 -0.069254  0.145004 -0.164095
                                -0.018095  0.307716 -0.120042  0.281620 -1.670803 -0.168720 -0.705498  1.390092 -0.001458 -0.002831
                                 0.000929 -0.000000 -0.000000  0.000000  0.000002 -0.000001 -0.000008  0.000007  0.000040 -0.000054
                                -0.000401  0.000099  0.000658 -0.000058 -0.001954  0.000115 -0.002819 -0.000045 -0.005434  0.001122
                                -0.005374 -0.002835 -0.000370 -0.009623 -0.000650 -0.001654 -0.000073 -0.002452 -0.000232  0.000530
                                 0.000061  0.000001 -0.000001 -0.000014 -0.000014 -0.000036  0.000174 -0.000019  0.000001 -0.000061

   5.2   0    -0.1553   -3.3091  0.000000 -0.000000  0.000000 -0.000000  0.000000 -0.000000  0.000000 -0.000000  0.000001 -0.000002
                                 0.000005 -0.000015  0.000042 -0.000133  0.000517 -0.004574  0.011443 -0.026985  0.069338 -0.086808
                                -0.016222  0.204714 -0.113273  0.209944 -8.046939 -0.142489 -0.679907  8.544218  0.682228 -0.042665
                                 0.012958 -0.000000 -0.000000  0.000000  0.000001 -0.000000 -0.000004  0.000002  0.000018 -0.000010
                                -0.000174  0.000025  0.000288  0.000102 -0.000827  0.000301 -0.001157  0.000355 -0.002318  0.001141
                                -0.001996 -0.001881  0.000471 -0.006716  0.000513  0.000471  0.001247  0.002249  0.001555  0.002929
                                 0.000614  0.000001  0.000000 -0.000008 -0.000007 -0.000021  0.000112 -0.000009  0.000008 -0.000060

                                   1 2py     1 2py     1 2py     1 2py     1 2py     1 2py     1 2py     1 2py     1 2py     1 2py
                                   1 2py     1 2py     1 2py     1 2py     1 2py     1 2py     1 2py     1 2py     1 2py     1 2py
                                   1 2py     1 2py     1 2py     1 2py     1 2py     1 2py     1 2py     1 2py     1 2py     1 2py
                                   1 2py     1 4f1-    1 4f3-    1 4f1-    1 4f3-    1 4f1-    1 4f3-    1 4f1-    1 4f3-    1 4f1-
                                   1 4f3-    1 4f1-    1 4f3-    1 4f1-    1 4f3-    1 4f1-    1 4f3-    1 4f1-    1 4f3-    1 4f1-
                                   1 4f3-    1 4f1-    1 4f3-    1 4f1-    1 4f3-    1 4f1-    1 4f3-    1 4f1-    1 4f3-    1 4f1-
                                   1 4f3-    1 6h1-    1 6h3-    1 6h5-    1 6h1-    1 6h3-    1 6h5-    1 6h1-    1 6h3-    1 6h5-


   1.3   2    -2.3098  -17.2368  0.000000 -0.000000  0.000000 -0.000000  0.000000 -0.000000  0.000001 -0.000003  0.000011 -0.000035
                                 0.000104 -0.000289  0.000799 -0.002428  0.008966 -0.074342  0.180654 -0.344114  0.610781 -0.603629
                                -0.063434  0.755517 -0.034002  0.454319 -0.005423  0.035892 -0.001432  0.005874 -0.000395  0.000202
                                -0.000049  0.000000  0.000000 -0.000001 -0.000001  0.000006  0.000004 -0.000030 -0.000021  0.000271
                                 0.000211 -0.000487 -0.000352  0.000821  0.001056  0.000530  0.001566  0.001980  0.003175  0.003814
                                 0.007159  0.000125  0.004647 -0.000102 -0.000135  0.000037  0.000294 -0.000012 -0.000166  0.000003
                                 0.000057  0.000000  0.000002  0.000008 -0.000068  0.000096  0.000579  0.000011  0.000011 -0.000033

   2.3   2    -0.7322  -14.7076  0.000000 -0.000000  0.000000 -0.000000  0.000000 -0.000000  0.000000 -0.000000  0.000000 -0.000000
                                 0.000001 -0.000004  0.000010 -0.000032  0.000117 -0.000977  0.002376 -0.004400  0.007694 -0.008183
                                 0.001972  0.007798  0.002413  0.000352  0.031682 -0.009100 -0.004855 -0.031293  0.000630 -0.000260
                                 0.000056  0.000011 -0.000007 -0.000075  0.000045  0.000366 -0.000221 -0.001774  0.001070  0.018320
                                -0.011039 -0.029160  0.017583  0.102620 -0.061659  0.166367 -0.099763  0.282751 -0.169612  0.347336
                                -0.209893  0.220593 -0.135307  0.077696 -0.047909 -0.021063  0.012965  0.011066 -0.006813 -0.003529
                                 0.002172  0.000320 -0.000155 -0.000047  0.001600 -0.000817 -0.000264  0.002524 -0.001131 -0.000282

   3.3   2    -0.7222  -14.6985 -0.000000  0.000000 -0.000000  0.000000 -0.000000  0.000000 -0.000000  0.000000 -0.000000  0.000001
                                -0.000002  0.000006 -0.000017  0.000053 -0.000196  0.001633 -0.003977  0.007598 -0.013624  0.013879
                                -0.000234 -0.016460 -0.000091 -0.007556 -0.031841  0.006908  0.004753  0.031461 -0.000635  0.000262
                                -0.000057  0.000007  0.000011 -0.000045 -0.000075  0.000221  0.000365 -0.001073 -0.001773  0.011085
                                 0.018305 -0.017629 -0.029134  0.062253  0.102486  0.101093  0.166066  0.171592  0.282016  0.209171
                                 0.346337  0.132284  0.222013  0.047576  0.080091 -0.012792 -0.021490  0.006812  0.011443 -0.002175
                                -0.003652  0.000178  0.000163 -0.000029  0.000873  0.000798 -0.000185  0.001425  0.001330 -0.000149

   4.3   0    -0.3110   -6.2623  0.000000 -0.000000  0.000000 -0.000000  0.000000 -0.000000  0.000000 -0.000001  0.000002 -0.000006
                                 0.000018 -0.000050  0.000139 -0.000429  0.001613 -0.013718  0.033690 -0.069254  0.145004 -0.164095
                                -0.018095  0.307716 -0.120042  0.281620 -1.670803 -0.168720 -0.705498  1.390092 -0.001458 -0.002831
                                 0.000929 -0.000000  0.000000  0.000000 -0.000002 -0.000001  0.000008  0.000007 -0.000040 -0.000054
                                 0.000401  0.000099 -0.000658 -0.000058  0.001954  0.000115  0.002819 -0.000045  0.005434  0.001122
                                 0.005374 -0.002835  0.000370 -0.009623  0.000650 -0.001654  0.000073 -0.002452  0.000232  0.000530
                                -0.000061  0.000001  0.000001 -0.000014 -0.000014  0.000036  0.000174 -0.000019 -0.000001 -0.000061

   5.3   0    -0.1553   -3.3091  0.000000 -0.000000  0.000000 -0.000000  0.000000 -0.000000  0.000000 -0.000000  0.000001 -0.000002
                                 0.000005 -0.000015  0.000042 -0.000133  0.000517 -0.004574  0.011443 -0.026985  0.069338 -0.086808
                                -0.016222  0.204714 -0.113273  0.209944 -8.046939 -0.142489 -0.679907  8.544218  0.682228 -0.042665
                                 0.012958 -0.000000  0.000000  0.000000 -0.000001 -0.000000  0.000004  0.000002 -0.000018 -0.000010
                                 0.000174  0.000025 -0.000288  0.000102  0.000827  0.000301  0.001157  0.000355  0.002318  0.001141
                                 0.001996 -0.001881 -0.000471 -0.006716 -0.000513  0.000471 -0.001247  0.002249 -0.001555  0.002929
                                -0.000614  0.000001 -0.000000 -0.000008 -0.000007  0.000021  0.000112 -0.000009 -0.000008 -0.000060

                                   1 3d2-    1 3d2-    1 3d2-    1 3d2-    1 3d2-    1 3d2-    1 3d2-    1 3d2-    1 3d2-    1 3d2-
                                   1 3d2-    1 3d2-    1 3d2-    1 3d2-    1 3d2-    1 3d2-    1 3d2-    1 3d2-    1 3d2-    1 3d2-
                                   1 3d2-    1 3d2-    1 5g2-    1 5g4-    1 5g2-    1 5g4-    1 5g2-    1 5g4-    1 5g2-    1 5g4-
                                   1 5g2-    1 5g4-    1 5g2-    1 5g4-    1 5g2-    1 5g4-

   1.4   +    -1.2296  -13.6742 -0.000000  0.000001 -0.000005  0.000020 -0.000070  0.000221 -0.000660  0.002067 -0.010093  0.024633
                                -0.023353  0.024810 -0.140047  0.494178  0.600175  0.097689  0.066696 -0.123230  0.072895 -0.017303
                                 0.006674 -0.001833 -0.000010 -0.000000  0.000031 -0.000000 -0.000460 -0.000000 -0.001334  0.000000
                                 0.001195 -0.000000 -0.000524  0.000000  0.000180 -0.000000

   2.4   0    -0.1891   -4.2476 -0.000000  0.000000 -0.000000  0.000001 -0.000004  0.000013 -0.000037  0.000114 -0.000523  0.001227
                                -0.001177  0.002515 -0.023437  0.092529  0.125646 -0.013884 -0.472644  0.225930 -0.646176 -0.195983
                                 0.001894 -0.001601  0.000002 -0.000000 -0.000008 -0.000000  0.000050 -0.000000  0.000181 -0.000000
                                -0.002420 -0.000000 -0.002813 -0.000000 -0.003481 -0.000000

   3.4   0    -0.1087   -2.4876 -0.000000  0.000000 -0.000000  0.000001 -0.000003  0.000008 -0.000023  0.000070 -0.000318  0.000735
                                -0.000702  0.001652 -0.016110  0.064320  0.088218 -0.010375 -0.508962  0.340976 -0.697937  0.628397
                                 0.647563  0.002099  0.000001 -0.000000 -0.000006 -0.000000  0.000035 -0.000000 -0.000155 -0.000000
                                -0.001439 -0.000000 -0.002935 -0.000000 -0.001036 -0.000000

                                   1 2pz     1 2pz     1 2pz     1 2pz     1 2pz     1 2pz     1 2pz     1 2pz     1 2pz     1 2pz
                                   1 2pz     1 2pz     1 2pz     1 2pz     1 2pz     1 2pz     1 2pz     1 2pz     1 2pz     1 2pz
                                   1 2pz     1 2pz     1 2pz     1 2pz     1 2pz     1 2pz     1 2pz     1 2pz     1 2pz     1 2pz
                                   1 2pz     1 4f0     1 4f2+    1 4f0     1 4f2+    1 4f0     1 4f2+    1 4f0     1 4f2+    1 4f0
                                   1 4f2+    1 4f0     1 4f2+    1 4f0     1 4f2+    1 4f0     1 4f2+    1 4f0     1 4f2+    1 4f0
                                   1 4f2+    1 4f0     1 4f2+    1 4f0     1 4f2+    1 4f0     1 4f2+    1 4f0     1 4f2+    1 4f0
                                   1 4f2+    1 6h2+    1 6h4+    1 6h0     1 6h2+    1 6h4+    1 6h0     1 6h2+    1 6h4+    1 6h0


   1.5   2    -2.3155  -17.2537  0.000000 -0.000000  0.000000 -0.000000  0.000000 -0.000000  0.000001 -0.000003  0.000011 -0.000036
                                 0.000104 -0.000291  0.000805 -0.002446  0.009033 -0.074905  0.182062 -0.346721  0.614372 -0.606042
                                -0.064246  0.756862 -0.027144  0.448540 -0.011953  0.033452 -0.001151  0.012350 -0.000540  0.000264
                                -0.000063  0.000000  0.000000 -0.000002 -0.000000  0.000009  0.000000 -0.000044 -0.000000  0.000403
                                 0.000000 -0.000714 -0.000000  0.001350  0.000000  0.001151 -0.000000  0.003455  0.000000  0.006974
                                 0.000000  0.001619  0.000000 -0.000168 -0.000000  0.000138  0.000000 -0.000067 -0.000000  0.000022
                                 0.000000  0.000000  0.000004  0.000001 -0.000000  0.000364 -0.000082  0.000000 -0.000025  0.000025

   2.5   2    -0.7308  -14.7219 -0.000000  0.000000 -0.000000  0.000000 -0.000000  0.000000 -0.000000  0.000000 -0.000000  0.000000
                                -0.000001  0.000002 -0.000007  0.000020 -0.000074  0.000614 -0.001499  0.002982 -0.005492  0.005261
                                 0.001535 -0.007801  0.001875 -0.006321  0.001104 -0.002016 -0.000313 -0.001092  0.000024 -0.000010
                                 0.000002  0.000013  0.000000 -0.000088 -0.000000  0.000427  0.000000 -0.002073 -0.000000  0.021412
                                 0.000000 -0.034072 -0.000000  0.120027  0.000000  0.194692  0.000000  0.330797  0.000000  0.405548
                                 0.000000  0.257070  0.000000  0.090818  0.000000 -0.024599 -0.000000  0.012949  0.000000 -0.004131
                                -0.000000 -0.000000 -0.000085  0.000382 -0.000000 -0.000504  0.001898  0.000000 -0.000485  0.003029

   3.5   2    -0.7210  -14.7127  0.000000 -0.000000  0.000000 -0.000000  0.000000 -0.000000  0.000000 -0.000000  0.000000 -0.000000
                                 0.000000 -0.000000  0.000000 -0.000000  0.000000 -0.000000  0.000000 -0.000000  0.000000 -0.000000
                                 0.000000  0.000000 -0.000000  0.000000 -0.000000 -0.000000 -0.000000  0.000000  0.000000 -0.000000
                                 0.000000 -0.000000  0.000013  0.000000 -0.000088 -0.000000  0.000427  0.000000 -0.002074 -0.000000
                                 0.021430  0.000000 -0.034089 -0.000000  0.120239 -0.000000  0.195120 -0.000000  0.331231 -0.000000
                                 0.404491 -0.000000  0.256718 -0.000000  0.092552  0.000000 -0.024838 -0.000000  0.013246  0.000000
                                -0.004230  0.000285  0.000000 -0.000000  0.001394 -0.000000  0.000000  0.002302  0.000000 -0.000000

   4.5   0    -0.3175   -6.3133  0.000000 -0.000000  0.000000 -0.000000  0.000000 -0.000000  0.000000 -0.000001  0.000002 -0.000006
                                 0.000017 -0.000046  0.000129 -0.000398  0.001503 -0.012824  0.031555 -0.065867  0.141457 -0.162189
                                -0.020395  0.314700 -0.130110  0.295852 -1.372272 -0.183200 -0.719942  1.110337  0.004894 -0.005308
                                 0.001467  0.000000 -0.000000 -0.000000  0.000000  0.000001 -0.000000 -0.000004  0.000000  0.000051
                                -0.000000 -0.000072  0.000000  0.000495 -0.000000  0.000949 -0.000000  0.001522 -0.000000  0.002945
                                -0.000000 -0.003543 -0.000000 -0.011663 -0.000000 -0.001739  0.000000 -0.002839 -0.000000  0.000638
                                 0.000000 -0.000000 -0.000009  0.000003 -0.000000  0.000111 -0.000012 -0.000000 -0.000034 -0.000023

   5.5   0    -0.1572   -3.3334  0.000000 -0.000000  0.000000 -0.000000  0.000000 -0.000000  0.000000 -0.000000  0.000000 -0.000001
                                 0.000004 -0.000012  0.000033 -0.000106  0.000420 -0.003791  0.009570 -0.023958  0.065950 -0.084762
                                -0.017995  0.209912 -0.121590  0.220693 -7.524059 -0.156773 -0.691923  8.066643  0.665854 -0.049983
                                 0.013933  0.000000  0.000000 -0.000000 -0.000000  0.000001  0.000000 -0.000003 -0.000000  0.000040
                                 0.000000 -0.000056 -0.000000  0.000370  0.000000  0.000708  0.000000  0.001122  0.000000  0.001991
                                 0.000000 -0.002546  0.000000 -0.008386 -0.000000  0.000521  0.000000  0.002481 -0.000000  0.003301
                                 0.000000  0.000000 -0.000005  0.000002  0.000000  0.000071 -0.000007 -0.000000 -0.000036 -0.000013

                                   1 3d1+    1 3d1+    1 3d1+    1 3d1+    1 3d1+    1 3d1+    1 3d1+    1 3d1+    1 3d1+    1 3d1+
                                   1 3d1+    1 3d1+    1 3d1+    1 3d1+    1 3d1+    1 3d1+    1 3d1+    1 3d1+    1 3d1+    1 3d1+
                                   1 3d1+    1 3d1+    1 5g1+    1 5g3+    1 5g1+    1 5g3+    1 5g1+    1 5g3+    1 5g1+    1 5g3+
                                   1 5g1+    1 5g3+    1 5g1+    1 5g3+    1 5g1+    1 5g3+

   1.6   0    -0.7786  -12.9140 -0.000000  0.000001 -0.000004  0.000017 -0.000059  0.000186 -0.000553  0.001737 -0.008509  0.020880
                                -0.019981  0.022364 -0.129083  0.446548  0.588573  0.178757 -0.004312 -0.010326  0.016159 -0.006055
                                 0.002650 -0.000768  0.000037 -0.000046 -0.000113  0.000143  0.001512 -0.001942  0.008107 -0.008644
                                -0.006852  0.007687  0.003213 -0.003520 -0.001125  0.001247

   2.6   0    -0.1887   -4.2551 -0.000000  0.000000 -0.000000  0.000002 -0.000005  0.000017 -0.000050  0.000154 -0.000726  0.001746
                                -0.001702  0.003153 -0.026653  0.101144  0.145984  0.009463 -0.481699  0.248240 -0.666280 -0.198968
                                 0.000882 -0.001368  0.000008 -0.000006 -0.000026  0.000016  0.000354 -0.000279  0.001420 -0.001019
                                -0.003959  0.000586 -0.002887 -0.000955 -0.004846 -0.000098

                                   1 3d1-    1 3d1-    1 3d1-    1 3d1-    1 3d1-    1 3d1-    1 3d1-    1 3d1-    1 3d1-    1 3d1-
                                   1 3d1-    1 3d1-    1 3d1-    1 3d1-    1 3d1-    1 3d1-    1 3d1-    1 3d1-    1 3d1-    1 3d1-
                                   1 3d1-    1 3d1-    1 5g1-    1 5g3-    1 5g1-    1 5g3-    1 5g1-    1 5g3-    1 5g1-    1 5g3-
                                   1 5g1-    1 5g3-    1 5g1-    1 5g3-    1 5g1-    1 5g3-

   1.7   0    -0.7786  -12.9140 -0.000000  0.000001 -0.000004  0.000017 -0.000059  0.000186 -0.000553  0.001737 -0.008509  0.020880
                                -0.019981  0.022364 -0.129083  0.446548  0.588573  0.178757 -0.004312 -0.010326  0.016159 -0.006055
                                 0.002650 -0.000768  0.000037  0.000046 -0.000113 -0.000143  0.001512  0.001942  0.008107  0.008644
                                -0.006852 -0.007687  0.003213  0.003520 -0.001125 -0.001247

   2.7   0    -0.1887   -4.2551 -0.000000  0.000000 -0.000000  0.000002 -0.000005  0.000017 -0.000050  0.000154 -0.000726  0.001746
                                -0.001702  0.003153 -0.026653  0.101144  0.145984  0.009463 -0.481699  0.248240 -0.666280 -0.198968
                                 0.000882 -0.001368  0.000008  0.000006 -0.000026 -0.000016  0.000354  0.000279  0.001420  0.001019
                                -0.003959 -0.000586 -0.002887  0.000955 -0.004846  0.000098

                                   1 4f2-    1 4f2-    1 4f2-    1 4f2-    1 4f2-    1 4f2-    1 4f2-    1 4f2-    1 4f2-    1 4f2-
                                   1 4f2-    1 4f2-    1 4f2-    1 4f2-    1 4f2-    1 6h4-    1 6h2-    1 6h4-    1 6h2-    1 6h4-
                                   1 6h2-

   1.8   2    -0.7320  -14.7037  0.000013 -0.000088  0.000427 -0.002071  0.021380 -0.034037  0.119648  0.193850  0.329472  0.405804
                                 0.259288  0.091594 -0.024815  0.013040 -0.004158 -0.000000  0.000346 -0.000000  0.001760  0.000000
                                 0.002663

   2.8   0    -0.1239   -3.1054 -0.000001  0.000006 -0.000029  0.000143 -0.001539  0.002375 -0.009732 -0.016737 -0.027297 -0.031836
                                -0.008120  0.034722  0.180472  0.432310  0.489956  0.000000 -0.000014 -0.000000 -0.000195 -0.000000
                                 0.000162

   3.8   0    -0.0677   -2.6611  0.000002 -0.000014  0.000067 -0.000321  0.003102 -0.005150  0.013863  0.018863  0.036493  0.032251
                                 0.025162 -0.159979  0.025326 -1.296772  1.453672 -0.000000  0.000017  0.000000  0.000251  0.000000
                                -0.000238

 HOMO      3.5    -0.721012 =     -19.6197eV
 LUMO      2.1    -0.788122 =     -21.4459eV
 LUMO-HOMO        -0.067110 =      -1.8262eV


 **********************************************************************************************************************************
 DATASETS  * FILE   NREC   LENGTH (MB)   RECORD NAMES
              1      19       21.31       500      610      700      900      950      970     1000      129      960     1100
                                          VAR    BASINP    GEOM    SYMINP    ZMAT    AOBASIS   BASIS     P2S    ABASIS      S
                                         1400     1410     1420     1200     1210     1080     1600     1650     1700
                                           T        V       ECP      H0       H01     AOSYM     SMH    MOLCAS    OPER

              2       5        6.25       200      700     1000      520     4202
                                        OPTIONS   GEOM     BASIS   MCVARS     RHF

 PROGRAMS   *        TOTAL       RHF       INT
 CPU TIMES  *       162.34      3.20    158.72
 REAL TIME  *       170.69 SEC
 DISK USED  *         8.15 GB
 SF USED    *         0.12 MB
 GA USED    *         0.00 MB       (max)       0.00 MB       (current)
 **********************************************************************************************************************************
   -->
   <time start="18:09:38" end="18:12:28" cpu="162.34" system="6.78" real="170.69"/>
   <storage units="megabyte" memory="8001.84" sf="0.12" df="352.05" eaf="7798.7" ga="0.0"/>
  </jobstep><!--
  --><jobstep command="POP" commandset="POP">
   <!--


 PROGRAM * POP (Mulliken population analysis)


 Density matrix read from record         4202.2  Type=RHF/CHARGE (state 1.4)

 Population analysis by basis function type

 Unique atom        s        p        d        f        g    Total    Charge
   1  LU      1.99990  6.00087  1.00010 13.99891  0.00000 23.00000  + 2.00000


 **********************************************************************************************************************************
 DATASETS  * FILE   NREC   LENGTH (MB)   RECORD NAMES
              1      19       21.31       500      610      700      900      950      970     1000      129      960     1100
                                          VAR    BASINP    GEOM    SYMINP    ZMAT    AOBASIS   BASIS     P2S    ABASIS      S
                                         1400     1410     1420     1200     1210     1080     1600     1650     1700
                                           T        V       ECP      H0       H01     AOSYM     SMH    MOLCAS    OPER

              2       5        6.25       200      700     1000      520     4202
                                        OPTIONS   GEOM     BASIS   MCVARS     RHF

 PROGRAMS   *        TOTAL       POP       RHF       INT
 CPU TIMES  *       162.38      0.00      3.20    158.72
 REAL TIME  *       170.74 SEC
 DISK USED  *         8.15 GB
 SF USED    *         0.12 MB
 GA USED    *         0.00 MB       (max)       0.00 MB       (current)
 **********************************************************************************************************************************
   -->
   <time start="18:12:28" end="18:12:28" cpu="0.04" system="0.0" real="0.05"/>
   <storage units="megabyte" memory="8001.84" sf="0.12" df="352.05" eaf="7798.7" ga="0.0"/>
  </jobstep><!--
  --><jobstep command="MULTI" commandset="MULTI">
   <!--


 PROGRAM * MULTI (Direct Multiconfiguration SCF)       Authors: P.J. Knowles, H.-J. Werner (1984)     S.T. Elbert (1988)


 Number of closed-shell orbitals:  11 (   1   3   3   0   3   0   0   1 )
 Number of active  orbitals:        5 (   2   0   0   1   0   1   1   0 )
 Number of external orbitals:     426 ( 100  67  67  35  67  35  35  20 )

 State symmetry 1

 Number of electrons:     1    Spin symmetry=Doublet   Space symmetry=1
 Number of states:        2
 Number of CSFs:          2   (2 determinants, 5 intermediate states)

 State symmetry 2

 Number of electrons:     1    Spin symmetry=Doublet   Space symmetry=4
 Number of states:        1
 Number of CSFs:          1   (1 determinants, 5 intermediate states)

 State symmetry 3

 Number of electrons:     1    Spin symmetry=Doublet   Space symmetry=6
 Number of states:        1
 Number of CSFs:          1   (1 determinants, 5 intermediate states)

 State symmetry 4

 Number of electrons:     1    Spin symmetry=Doublet   Space symmetry=7
 Number of states:        1
 Number of CSFs:          1   (1 determinants, 5 intermediate states)

 Molecular orbitals read from record     4202.2  Type=RHF/CANONICAL (state 1.4)
 *** IN SYMMETRY 1 ORBITAL  1 SYMMETRY CONTAMINATION OF 0.734D-02 HAS BEEN REMOVED
 *** IN SYMMETRY 1 ORBITAL  2 SYMMETRY CONTAMINATION OF 0.573D-01 HAS BEEN REMOVED
 *** IN SYMMETRY 1 ORBITAL  3 SYMMETRY CONTAMINATION OF 0.146D-01 HAS BEEN REMOVED

 EXTRA SYMMETRY OF MOS IN SYMMETRY 1:   1 2 3 1 1 2 3 1 2 3   1 2 3 1 2 3 4 6 5 1   2 3 1 4 6 5 2 3 1 2   3 4 6 5 1 4 6 5 2 3
                                        1 4 6 5 1 2 3 4 6 5   1 2 3 2 3 1 4 6 5 2   3 1 2 3 1 1 2 3 1 2   3 1 1 2 3 1 2 3 1 1
                                        2 3 1 2 3 1 1 2 3 1   1 2 3 1 1 1 1 1 1 1   1 1 1
 *** IN SYMMETRY 2 ORBITAL  1 SYMMETRY CONTAMINATION OF 0.868D-02 HAS BEEN REMOVED
 *** IN SYMMETRY 2 ORBITAL  2 SYMMETRY CONTAMINATION OF 0.412D+00 HAS BEEN REMOVED
 *** IN SYMMETRY 2 ORBITAL  3 SYMMETRY CONTAMINATION OF 0.418D+00 HAS BEEN REMOVED
 EXTRA SYMMETRY OF MOS IN SYMMETRY 2:   1 2 3 1 1 2 3 1 2 3   1 1 2 3 1 2 3 1 2 3   1 4 5 6 2 3 1 4 5 6   1 2 3 1 4 5 6 2 3 1
                                        2 3 1 1 2 3 1 2 3 1   1 2 3 1 2 3 1 1 2 3   1 1 1 1 1 1 1 1 1 1
 *** IN SYMMETRY 3 ORBITAL  1 SYMMETRY CONTAMINATION OF 0.868D-02 HAS BEEN REMOVED
 *** IN SYMMETRY 3 ORBITAL  2 SYMMETRY CONTAMINATION OF 0.412D+00 HAS BEEN REMOVED
 *** IN SYMMETRY 3 ORBITAL  3 SYMMETRY CONTAMINATION OF 0.418D+00 HAS BEEN REMOVED
 EXTRA SYMMETRY OF MOS IN SYMMETRY 3:   1 2 3 1 1 2 3 1 2 3   1 1 2 3 1 2 3 1 2 3   1 4 5 6 2 3 1 4 5 6   1 2 3 1 4 5 6 2 3 1
                                        2 3 1 1 2 3 1 2 3 1   1 2 3 1 2 3 1 1 2 3   1 1 1 1 1 1 1 1 1 1
 *** IN SYMMETRY 4 ORBITAL  1 SYMMETRY CONTAMINATION OF 0.218D-02 HAS BEEN REMOVED
 EXTRA SYMMETRY OF MOS IN SYMMETRY 4:   1 1 1 1 1 2 3 1 2 3   1 1 2 3 2 3 1 2 3 1   2 3 1 1 2 3 1 1 1 1   1 1 1 1 1 1
 *** IN SYMMETRY 5 ORBITAL  1 SYMMETRY CONTAMINATION OF 0.518D-02 HAS BEEN REMOVED
 *** IN SYMMETRY 5 ORBITAL  2 SYMMETRY CONTAMINATION OF 0.288D-01 HAS BEEN REMOVED
 *** IN SYMMETRY 5 ORBITAL  3 SYMMETRY CONTAMINATION OF 0.265D-02 HAS BEEN REMOVED
 EXTRA SYMMETRY OF MOS IN SYMMETRY 5:   1 2 3 1 1 2 3 1 2 3   1 1 2 3 1 2 3 1 2 3   1 6 4 5 2 3 1 6 4 5   1 2 3 1 6 4 5 2 3 1
                                        2 3 1 1 2 3 1 2 3 1   1 2 3 1 2 3 1 1 2 3   1 1 1 1 1 1 1 1 1 1
 *** IN SYMMETRY 6 ORBITAL  1 SYMMETRY CONTAMINATION OF 0.294D-01 HAS BEEN REMOVED
 EXTRA SYMMETRY OF MOS IN SYMMETRY 6:   1 1 1 1 1 2 3 1 2 3   1 1 2 3 2 3 1 2 3 1   2 3 1 1 2 3 1 1 1 1   1 1 1 1 1 1
 *** IN SYMMETRY 7 ORBITAL  1 SYMMETRY CONTAMINATION OF 0.294D-01 HAS BEEN REMOVED
 EXTRA SYMMETRY OF MOS IN SYMMETRY 7:   1 1 1 1 1 2 3 1 2 3   1 1 2 3 2 3 1 2 3 1   2 3 1 1 2 3 1 1 1 1   1 1 1 1 1 1
 *** IN SYMMETRY 8 ORBITAL  1 SYMMETRY CONTAMINATION OF 0.317D-02 HAS BEEN REMOVED
 EXTRA SYMMETRY OF MOS IN SYMMETRY 8:   1 1 1 1 1 1 3 2 1 3   2 1 3 2 1 1 1 1 1 1   1

 Wavefunction dump at record             5202.2

 Convergence thresholds  0.10E-01 (gradient)  0.10E-05 (energy)  0.10E-02 (step length)

 Weight factors for state symmetry  1:    0.20000   0.20000
 Weight factors for state symmetry  2:    0.20000
 Weight factors for state symmetry  3:    0.20000
 Weight factors for state symmetry  4:    0.20000

 Number of orbital rotations:     1030   (     2 Core/Active    723 Core/Virtual   0 Active/Active    305 Active/Virtual)
 Total number of variables:       1037


 ITER. MIC  NCI  NEG     ENERGY(VAR)     ENERGY(PROJ)   ENERGY CHANGE     GRAD(0)  GRAD(ORB)   GRAD(CI)     STEP       TIME

   1   52   16    0    -181.19030910    -181.19480299   -0.00449390    0.04504590 0.00000000 0.00000000  0.15D+00      1.62
   2   18   20    0    -181.19480260    -181.19480279   -0.00000018    0.00092347 0.00000000 0.00000000  0.31D-03      3.94
   3   30   24    0    -181.19480279    -181.19480279    0.00000000    0.00000006 0.00000000 0.00000000  0.21D-07      5.48

 ** WVFN ****  CONVERGENCE REACHED, FINAL GRADIENT:  0.93D-10



 Results for state 1.1
 =====================

 !MCSCF STATE 1.1 Energy             -181.194802785426
   --><property name="Energy" method="MCSCF" principal="true" stateSymmetry="1" stateNumber="1"
     value="-181.194802785426"/><!--
 Nuclear energy                         0.00000000
 Kinetic energy                        98.40527025
 One electron energy                 -330.54036932
 Two electron energy                  149.34556653
 Virial ratio                           2.84131198

 !MCSCF STATE 1.1 Dipole moment         0.00000000     0.00000000     0.00000000
 Dipole moment /Debye                   0.00000000     0.00000000     0.00000000
   --><property name="Dipole moment" method="MCSCF" principal="true" stateSymmetry="1"
     stateNumber="1" value="0.0 0.0 0.0"/><!--

 Results for state 2.1
 =====================

 !MCSCF STATE 2.1 Energy             -181.194802785426
   --><property name="Energy" method="MCSCF" principal="true" stateSymmetry="1" stateNumber="2"
     value="-181.194802785426"/><!--
 Nuclear energy                         0.00000000
 Kinetic energy                        98.40527025
 One electron energy                 -330.54036932
 Two electron energy                  149.34556653
 Virial ratio                           2.84131198

 !MCSCF STATE 2.1 Dipole moment         0.00000000     0.00000000     0.00000000
 Dipole moment /Debye                   0.00000000     0.00000000     0.00000000
   --><property name="Dipole moment" method="MCSCF" principal="true" stateSymmetry="1"
     stateNumber="2" value="0.0 0.0 0.0"/><!--



 Results for state 1.4
 =====================

 !MCSCF STATE 1.4 Energy             -181.194802785426
   --><property name="Energy" method="MCSCF" principal="true" stateSymmetry="4" stateNumber="1"
     value="-181.194802785426"/><!--
 Nuclear energy                         0.00000000
 Kinetic energy                        98.40527025
 One electron energy                 -330.54036932
 Two electron energy                  149.34556653
 Virial ratio                           2.84131198

 !MCSCF STATE 1.4 Dipole moment         0.00000000     0.00000000     0.00000000
 Dipole moment /Debye                   0.00000000     0.00000000     0.00000000
   --><property name="Dipole moment" method="MCSCF" principal="true" stateSymmetry="4"
     stateNumber="1" value="0.0 0.0 0.0"/><!--



 Results for state 1.6
 =====================

 !MCSCF STATE 1.6 Energy             -181.194802785426
   --><property name="Energy" method="MCSCF" principal="true" stateSymmetry="6" stateNumber="1"
     value="-181.194802785426"/><!--
 Nuclear energy                         0.00000000
 Kinetic energy                        98.40527025
 One electron energy                 -330.54036932
 Two electron energy                  149.34556653
 Virial ratio                           2.84131198

 !MCSCF STATE 1.6 Dipole moment         0.00000000     0.00000000     0.00000000
 Dipole moment /Debye                   0.00000000     0.00000000     0.00000000
   --><property name="Dipole moment" method="MCSCF" principal="true" stateSymmetry="6"
     stateNumber="1" value="0.0 0.0 0.0"/><!--



 Results for state 1.7
 =====================

 !MCSCF STATE 1.7 Energy             -181.194802785426
   --><property name="Energy" method="MCSCF" principal="true" stateSymmetry="7" stateNumber="1"
     value="-181.194802785426"/><!--
 Nuclear energy                         0.00000000
 Kinetic energy                        98.40527025
 One electron energy                 -330.54036932
 Two electron energy                  149.34556653
 Virial ratio                           2.84131198

 !MCSCF STATE 1.7 Dipole moment         0.00000000     0.00000000     0.00000000
 Dipole moment /Debye                   0.00000000     0.00000000     0.00000000
   --><property name="Dipole moment" method="MCSCF" principal="true" stateSymmetry="7"
     stateNumber="1" value="0.0 0.0 0.0"/><!--

 State-averaged charge density matrix saved on record  5202.2 (density set 1)


 NATURAL ORBITALS (state averaged)
 =================================

   Orb     Occ        Energy       Coefficients

                                   1 1s      1 1s      1 1s      1 1s      1 1s      1 1s      1 1s      1 1s      1 1s      1 1s
                                   1 1s      1 1s      1 1s      1 1s      1 1s      1 1s      1 1s      1 1s      1 1s      1 1s
                                   1 1s      1 1s      1 1s      1 1s      1 1s      1 1s      1 1s      1 1s      1 1s      1 1s
                                   1 1s      1 1s      1 1s      1 1s      1 1s      1 1s      1 1s      1 1s      1 3d0     1 3d2+
                                   1 3d0     1 3d2+    1 3d0     1 3d2+    1 3d0     1 3d2+    1 3d0     1 3d2+    1 3d0     1 3d2+
                                   1 3d0     1 3d2+    1 3d0     1 3d2+    1 3d0     1 3d2+    1 3d0     1 3d2+    1 3d0     1 3d2+
                                   1 3d0     1 3d2+    1 3d0     1 3d2+    1 3d0     1 3d2+    1 3d0     1 3d2+    1 3d0     1 3d2+
                                   1 3d0     1 3d2+    1 3d0     1 3d2+    1 3d0     1 3d2+    1 3d0     1 3d2+    1 3d0     1 3d2+
                                   1 3d0     1 3d2+    1 5g0     1 5g4+    1 5g2+    1 5g0     1 5g4+    1 5g2+    1 5g0     1 5g4+
                                   1 5g2+    1 5g0     1 5g4+    1 5g2+    1 5g0     1 5g4+    1 5g2+    1 5g0     1 5g4+    1 5g2+
                                   1 5g0     1 5g4+    1 5g2+

   1.1  2.00000    -3.285079    -0.000000  0.000000 -0.000000  0.000000 -0.000000  0.000000 -0.000000  0.000000 -0.000000  0.000000
                                -0.000000  0.000001 -0.000003  0.000012 -0.000082 -0.000349  0.000362 -0.000874  0.002964  0.000292
                                -0.015805  0.169586 -0.257777  0.070860  0.453052 -0.878559 -0.386786  1.139213  0.417489  0.082255
                                -0.061942  0.090697 -0.136624  0.102343 -0.040322  0.015541 -0.004012  0.000714  0.000000  0.000000
                                 0.000000  0.000000  0.000000  0.000000  0.000000  0.000000  0.000000  0.000000  0.000000  0.000000
                                 0.000000  0.000000  0.000000  0.000000  0.000000  0.000000  0.000000  0.000000  0.000000  0.000000
                                 0.000000  0.000000  0.000000  0.000000  0.000000  0.000000  0.000000  0.000000  0.000000  0.000000
                                 0.000000  0.000000  0.000000  0.000000  0.000000  0.000000  0.000000  0.000000  0.000000  0.000000
                                 0.000000  0.000000  0.000000  0.000000  0.000000  0.000000  0.000000  0.000000  0.000000  0.000000
                                 0.000000  0.000000  0.000000  0.000000  0.000000  0.000000  0.000000  0.000000  0.000000  0.000000
                                 0.000000  0.000000  0.000000

   2.1  0.20000    -0.798530     0.000000  0.000000  0.000000  0.000000  0.000000  0.000000  0.000000  0.000000  0.000000  0.000000
                                 0.000000  0.000000  0.000000  0.000000  0.000000  0.000000  0.000000  0.000000  0.000000  0.000000
                                 0.000000  0.000000  0.000000  0.000000  0.000000  0.000000  0.000000  0.000000  0.000000  0.000000
                                 0.000000  0.000000  0.000000  0.000000  0.000000  0.000000  0.000000  0.000000  0.000000 -0.000000
                                 0.000000  0.000001  0.000000 -0.000005  0.000000  0.000020  0.000000 -0.000070  0.000000  0.000220
                                 0.000000 -0.000655  0.000000  0.002052  0.000000 -0.010012  0.000000  0.024427  0.000000 -0.023153
                                 0.000000  0.024661  0.000000 -0.139839  0.000000  0.494410  0.000000  0.599970  0.000000  0.097564
                                 0.000000  0.066873  0.000000 -0.123512  0.000000  0.073043  0.000000 -0.017335  0.000000  0.006686
                                 0.000000 -0.001836  0.000000  0.000000  0.000000  0.000000  0.000000  0.000000  0.000000  0.000000
                                 0.000000  0.000000  0.000000  0.000000  0.000000  0.000000  0.000000  0.000000  0.000000  0.000000
                                 0.000000  0.000000  0.000000

   3.1  0.20000    -0.798530     0.000000  0.000000  0.000000  0.000000  0.000000  0.000000  0.000000  0.000000  0.000000  0.000000
                                 0.000000  0.000000  0.000000  0.000000  0.000000  0.000000  0.000000  0.000000  0.000000  0.000000
                                 0.000000  0.000000  0.000000  0.000000  0.000000  0.000000  0.000000  0.000000  0.000000  0.000000
                                 0.000000  0.000000  0.000000  0.000000  0.000000  0.000000  0.000000  0.000000 -0.000000  0.000000
                                 0.000001  0.000000 -0.000005  0.000000  0.000020  0.000000 -0.000070  0.000000  0.000220  0.000000
                                -0.000655  0.000000  0.002052  0.000000 -0.010012  0.000000  0.024427  0.000000 -0.023153  0.000000
                                 0.024661  0.000000 -0.139839  0.000000  0.494410  0.000000  0.599970  0.000000  0.097564  0.000000
                                 0.066873  0.000000 -0.123512  0.000000  0.073043  0.000000 -0.017335  0.000000  0.006686  0.000000
                                -0.001836  0.000000  0.000000  0.000000  0.000000  0.000000  0.000000  0.000000  0.000000  0.000000
                                 0.000000  0.000000  0.000000  0.000000  0.000000  0.000000  0.000000  0.000000  0.000000  0.000000
                                 0.000000  0.000000  0.000000

                                   1 2px     1 2px     1 2px     1 2px     1 2px     1 2px     1 2px     1 2px     1 2px     1 2px
                                   1 2px     1 2px     1 2px     1 2px     1 2px     1 2px     1 2px     1 2px     1 2px     1 2px
                                   1 2px     1 2px     1 2px     1 2px     1 2px     1 2px     1 2px     1 2px     1 2px     1 2px
                                   1 2px     1 4f1+    1 4f3+    1 4f1+    1 4f3+    1 4f1+    1 4f3+    1 4f1+    1 4f3+    1 4f1+
                                   1 4f3+    1 4f1+    1 4f3+    1 4f1+    1 4f3+    1 4f1+    1 4f3+    1 4f1+    1 4f3+    1 4f1+
                                   1 4f3+    1 4f1+    1 4f3+    1 4f1+    1 4f3+    1 4f1+    1 4f3+    1 4f1+    1 4f3+    1 4f1+
                                   1 4f3+    1 6h1+    1 6h3+    1 6h5+    1 6h1+    1 6h3+    1 6h5+    1 6h1+    1 6h3+    1 6h5+


   1.2  2.00000    -2.311318     0.000000 -0.000000  0.000000 -0.000000  0.000000 -0.000000  0.000001 -0.000003  0.000011 -0.000036
                                 0.000104 -0.000290  0.000801 -0.002435  0.008989 -0.074537  0.181141 -0.345019  0.612045 -0.604504
                                -0.063694  0.756041 -0.031765  0.452469 -0.007555  0.035091 -0.001341  0.007988 -0.000442  0.000223
                                -0.000053  0.000000  0.000000  0.000000  0.000000  0.000000  0.000000  0.000000  0.000000  0.000000
                                 0.000000  0.000000  0.000000  0.000000  0.000000  0.000000  0.000000  0.000000  0.000000  0.000000
                                 0.000000  0.000000  0.000000  0.000000  0.000000  0.000000  0.000000  0.000000  0.000000  0.000000
                                 0.000000  0.000000  0.000000  0.000000  0.000000  0.000000  0.000000  0.000000  0.000000  0.000000

   2.2  2.00000    -0.727509     0.000000  0.000000  0.000000  0.000000  0.000000  0.000000  0.000000  0.000000  0.000000  0.000000
                                 0.000000  0.000000  0.000000  0.000000  0.000000  0.000000  0.000000  0.000000  0.000000  0.000000
                                 0.000000  0.000000  0.000000  0.000000  0.000000  0.000000  0.000000  0.000000  0.000000  0.000000
                                 0.000000  0.000000  0.000013  0.000000 -0.000088  0.000000  0.000427  0.000000 -0.002072  0.000000
                                 0.021401  0.000000 -0.034061  0.000000  0.119887  0.000000  0.194355  0.000000  0.330180  0.000000
                                 0.405266  0.000000  0.258272  0.000000  0.092012  0.000000 -0.024830  0.000000  0.013125  0.000000
                                -0.004190  0.000000  0.000000  0.000000  0.000000  0.000000  0.000000  0.000000  0.000000  0.000000

   3.2  2.00000    -0.727509     0.000000  0.000000  0.000000  0.000000  0.000000  0.000000  0.000000  0.000000  0.000000  0.000000
                                 0.000000  0.000000  0.000000  0.000000  0.000000  0.000000  0.000000  0.000000  0.000000  0.000000
                                 0.000000  0.000000  0.000000  0.000000  0.000000  0.000000  0.000000  0.000000  0.000000  0.000000
                                 0.000000  0.000013  0.000000 -0.000088  0.000000  0.000427  0.000000 -0.002072  0.000000  0.021401
                                 0.000000 -0.034061  0.000000  0.119887  0.000000  0.194355  0.000000  0.330180  0.000000  0.405266
                                 0.000000  0.258272  0.000000  0.092012  0.000000 -0.024830  0.000000  0.013125  0.000000 -0.004190
                                 0.000000  0.000000  0.000000  0.000000  0.000000  0.000000  0.000000  0.000000  0.000000  0.000000

                                   1 2py     1 2py     1 2py     1 2py     1 2py     1 2py     1 2py     1 2py     1 2py     1 2py
                                   1 2py     1 2py     1 2py     1 2py     1 2py     1 2py     1 2py     1 2py     1 2py     1 2py
                                   1 2py     1 2py     1 2py     1 2py     1 2py     1 2py     1 2py     1 2py     1 2py     1 2py
                                   1 2py     1 4f1-    1 4f3-    1 4f1-    1 4f3-    1 4f1-    1 4f3-    1 4f1-    1 4f3-    1 4f1-
                                   1 4f3-    1 4f1-    1 4f3-    1 4f1-    1 4f3-    1 4f1-    1 4f3-    1 4f1-    1 4f3-    1 4f1-
                                   1 4f3-    1 4f1-    1 4f3-    1 4f1-    1 4f3-    1 4f1-    1 4f3-    1 4f1-    1 4f3-    1 4f1-
                                   1 4f3-    1 6h1-    1 6h3-    1 6h5-    1 6h1-    1 6h3-    1 6h5-    1 6h1-    1 6h3-    1 6h5-


   1.3  2.00000    -2.311318     0.000000 -0.000000  0.000000 -0.000000  0.000000 -0.000000  0.000001 -0.000003  0.000011 -0.000036
                                 0.000104 -0.000290  0.000801 -0.002435  0.008989 -0.074537  0.181141 -0.345019  0.612045 -0.604504
                                -0.063694  0.756041 -0.031765  0.452469 -0.007555  0.035091 -0.001341  0.007988 -0.000442  0.000223
                                -0.000053  0.000000  0.000000  0.000000  0.000000  0.000000  0.000000  0.000000  0.000000  0.000000
                                 0.000000  0.000000  0.000000  0.000000  0.000000  0.000000  0.000000  0.000000  0.000000  0.000000
                                 0.000000  0.000000  0.000000  0.000000  0.000000  0.000000  0.000000  0.000000  0.000000  0.000000
                                 0.000000  0.000000  0.000000  0.000000  0.000000  0.000000  0.000000  0.000000  0.000000  0.000000

   2.3  2.00000    -0.727509     0.000000  0.000000  0.000000  0.000000  0.000000  0.000000  0.000000  0.000000  0.000000  0.000000
                                 0.000000  0.000000  0.000000  0.000000  0.000000  0.000000  0.000000  0.000000  0.000000  0.000000
                                 0.000000  0.000000  0.000000  0.000000  0.000000  0.000000  0.000000  0.000000  0.000000  0.000000
                                 0.000000  0.000000  0.000013  0.000000 -0.000088  0.000000  0.000427  0.000000 -0.002072  0.000000
                                 0.021401  0.000000 -0.034061  0.000000  0.119887  0.000000  0.194355  0.000000  0.330180  0.000000
                                 0.405266  0.000000  0.258272  0.000000  0.092012  0.000000 -0.024830  0.000000  0.013125  0.000000
                                -0.004190  0.000000  0.000000  0.000000  0.000000  0.000000  0.000000  0.000000  0.000000  0.000000

   3.3  2.00000    -0.727509     0.000000  0.000000  0.000000  0.000000  0.000000  0.000000  0.000000  0.000000  0.000000  0.000000
                                 0.000000  0.000000  0.000000  0.000000  0.000000  0.000000  0.000000  0.000000  0.000000  0.000000
                                 0.000000  0.000000  0.000000  0.000000  0.000000  0.000000  0.000000  0.000000  0.000000  0.000000
                                 0.000000  0.000013  0.000000 -0.000088  0.000000  0.000427  0.000000 -0.002072  0.000000  0.021401
                                 0.000000 -0.034061  0.000000  0.119887  0.000000  0.194355  0.000000  0.330180  0.000000  0.405266
                                 0.000000  0.258272  0.000000  0.092012  0.000000 -0.024830  0.000000  0.013125  0.000000 -0.004190
                                 0.000000  0.000000  0.000000  0.000000  0.000000  0.000000  0.000000  0.000000  0.000000  0.000000

                                   1 3d2-    1 3d2-    1 3d2-    1 3d2-    1 3d2-    1 3d2-    1 3d2-    1 3d2-    1 3d2-    1 3d2-
                                   1 3d2-    1 3d2-    1 3d2-    1 3d2-    1 3d2-    1 3d2-    1 3d2-    1 3d2-    1 3d2-    1 3d2-
                                   1 3d2-    1 3d2-    1 5g2-    1 5g4-    1 5g2-    1 5g4-    1 5g2-    1 5g4-    1 5g2-    1 5g4-
                                   1 5g2-    1 5g4-    1 5g2-    1 5g4-    1 5g2-    1 5g4-

   1.4  0.20000    -0.798530    -0.000000  0.000001 -0.000005  0.000020 -0.000070  0.000220 -0.000655  0.002052 -0.010012  0.024427
                                -0.023153  0.024661 -0.139839  0.494410  0.599970  0.097564  0.066873 -0.123512  0.073043 -0.017335
                                 0.006686 -0.001836  0.000000  0.000000  0.000000  0.000000  0.000000  0.000000  0.000000  0.000000
                                 0.000000  0.000000  0.000000  0.000000  0.000000  0.000000

                                   1 2pz     1 2pz     1 2pz     1 2pz     1 2pz     1 2pz     1 2pz     1 2pz     1 2pz     1 2pz
                                   1 2pz     1 2pz     1 2pz     1 2pz     1 2pz     1 2pz     1 2pz     1 2pz     1 2pz     1 2pz
                                   1 2pz     1 2pz     1 2pz     1 2pz     1 2pz     1 2pz     1 2pz     1 2pz     1 2pz     1 2pz
                                   1 2pz     1 4f0     1 4f2+    1 4f0     1 4f2+    1 4f0     1 4f2+    1 4f0     1 4f2+    1 4f0
                                   1 4f2+    1 4f0     1 4f2+    1 4f0     1 4f2+    1 4f0     1 4f2+    1 4f0     1 4f2+    1 4f0
                                   1 4f2+    1 4f0     1 4f2+    1 4f0     1 4f2+    1 4f0     1 4f2+    1 4f0     1 4f2+    1 4f0
                                   1 4f2+    1 6h2+    1 6h4+    1 6h0     1 6h2+    1 6h4+    1 6h0     1 6h2+    1 6h4+    1 6h0


   1.5  2.00000    -2.311318     0.000000 -0.000000  0.000000 -0.000000  0.000000 -0.000000  0.000001 -0.000003  0.000011 -0.000036
                                 0.000104 -0.000290  0.000801 -0.002435  0.008989 -0.074537  0.181141 -0.345019  0.612045 -0.604504
                                -0.063694  0.756041 -0.031765  0.452469 -0.007555  0.035091 -0.001341  0.007988 -0.000442  0.000223
                                -0.000053  0.000000  0.000000  0.000000  0.000000  0.000000  0.000000  0.000000  0.000000  0.000000
                                 0.000000  0.000000  0.000000  0.000000  0.000000  0.000000  0.000000  0.000000  0.000000  0.000000
                                 0.000000  0.000000  0.000000  0.000000  0.000000  0.000000  0.000000  0.000000  0.000000  0.000000
                                 0.000000  0.000000  0.000000  0.000000  0.000000  0.000000  0.000000  0.000000  0.000000  0.000000

   2.5  2.00000    -0.727509     0.000000 -0.000000  0.000000 -0.000000  0.000000 -0.000000  0.000000 -0.000000  0.000000 -0.000000
                                 0.000000 -0.000000  0.000000 -0.000000  0.000000 -0.000000  0.000000 -0.000000  0.000000 -0.000000
                                -0.000000  0.000000 -0.000000  0.000000 -0.000000  0.000000 -0.000000  0.000000 -0.000000  0.000000
                                -0.000000  0.000013  0.000000 -0.000088  0.000000  0.000427  0.000000 -0.002072  0.000000  0.021401
                                 0.000000 -0.034061  0.000000  0.119887  0.000000  0.194355  0.000000  0.330180  0.000000  0.405266
                                 0.000000  0.258272  0.000000  0.092012  0.000000 -0.024830  0.000000  0.013125  0.000000 -0.004190
                                 0.000000  0.000000  0.000000  0.000000  0.000000  0.000000  0.000000  0.000000  0.000000  0.000000

   3.5  2.00000    -0.727509     0.000000  0.000000  0.000000  0.000000  0.000000  0.000000  0.000000  0.000000  0.000000  0.000000
                                 0.000000  0.000000  0.000000  0.000000  0.000000  0.000000  0.000000  0.000000  0.000000  0.000000
                                 0.000000  0.000000  0.000000  0.000000  0.000000  0.000000  0.000000  0.000000  0.000000  0.000000
                                 0.000000  0.000000  0.000013  0.000000 -0.000088  0.000000  0.000427  0.000000 -0.002072  0.000000
                                 0.021401  0.000000 -0.034061  0.000000  0.119887  0.000000  0.194355  0.000000  0.330180  0.000000
                                 0.405266  0.000000  0.258272  0.000000  0.092012  0.000000 -0.024830  0.000000  0.013125  0.000000
                                -0.004190  0.000000  0.000000  0.000000  0.000000  0.000000  0.000000  0.000000  0.000000  0.000000

                                   1 3d1+    1 3d1+    1 3d1+    1 3d1+    1 3d1+    1 3d1+    1 3d1+    1 3d1+    1 3d1+    1 3d1+
                                   1 3d1+    1 3d1+    1 3d1+    1 3d1+    1 3d1+    1 3d1+    1 3d1+    1 3d1+    1 3d1+    1 3d1+
                                   1 3d1+    1 3d1+    1 5g1+    1 5g3+    1 5g1+    1 5g3+    1 5g1+    1 5g3+    1 5g1+    1 5g3+
                                   1 5g1+    1 5g3+    1 5g1+    1 5g3+    1 5g1+    1 5g3+

   1.6  0.20000    -0.798530    -0.000000  0.000001 -0.000005  0.000020 -0.000070  0.000220 -0.000655  0.002052 -0.010012  0.024427
                                -0.023153  0.024661 -0.139839  0.494410  0.599970  0.097564  0.066873 -0.123512  0.073043 -0.017335
                                 0.006686 -0.001836  0.000000  0.000000  0.000000  0.000000  0.000000  0.000000  0.000000  0.000000
                                 0.000000  0.000000  0.000000  0.000000  0.000000  0.000000

                                   1 3d1-    1 3d1-    1 3d1-    1 3d1-    1 3d1-    1 3d1-    1 3d1-    1 3d1-    1 3d1-    1 3d1-
                                   1 3d1-    1 3d1-    1 3d1-    1 3d1-    1 3d1-    1 3d1-    1 3d1-    1 3d1-    1 3d1-    1 3d1-
                                   1 3d1-    1 3d1-    1 5g1-    1 5g3-    1 5g1-    1 5g3-    1 5g1-    1 5g3-    1 5g1-    1 5g3-
                                   1 5g1-    1 5g3-    1 5g1-    1 5g3-    1 5g1-    1 5g3-

   1.7  0.20000    -0.798530    -0.000000  0.000001 -0.000005  0.000020 -0.000070  0.000220 -0.000655  0.002052 -0.010012  0.024427
                                -0.023153  0.024661 -0.139839  0.494410  0.599970  0.097564  0.066873 -0.123512  0.073043 -0.017335
                                 0.006686 -0.001836  0.000000  0.000000  0.000000  0.000000  0.000000  0.000000  0.000000  0.000000
                                 0.000000  0.000000  0.000000  0.000000  0.000000  0.000000

                                   1 4f2-    1 4f2-    1 4f2-    1 4f2-    1 4f2-    1 4f2-    1 4f2-    1 4f2-    1 4f2-    1 4f2-
                                   1 4f2-    1 4f2-    1 4f2-    1 4f2-    1 4f2-    1 6h4-    1 6h2-    1 6h4-    1 6h2-    1 6h4-
                                   1 6h2-

   1.8  2.00000    -0.727509     0.000013 -0.000088  0.000427 -0.002072  0.021401 -0.034061  0.119887  0.194355  0.330180  0.405266
                                 0.258272  0.092012 -0.024830  0.013125 -0.004190  0.000000  0.000000  0.000000  0.000000  0.000000
                                 0.000000

 Total charge:   2.000000000000


 EXTRA SYMMETRY OF MOS IN SYMMETRY 1:   1 3 2 1 1 2 3 1 2 3   1 2 3 1 3 2 4 5 6 1   2 3 1 5 6 4 2 3 1 3   2 4 6 5 1 6 5 4 2 3
                                        1 6 5 4 1 3 2 6 5 4   1 3 2 3 2 1 4 5 6 3   2 1 3 2 1 1 3 2 1 3   2 1 1 2 3 1 2 3 1 1
                                        2 3 1 3 2 1 1 3 2 1   1 3 2 1 1 1 1 1 1 1   1 1 1
 EXTRA SYMMETRY OF MOS IN SYMMETRY 2:   1 3 2 1 1 2 3 1 3 2   1 1 2 3 1 3 2 1 2 3   1 6 5 4 3 2 1 6 5 4   1 3 2 1 5 6 4 3 2 1
                                        3 2 1 1 3 2 1 2 3 1   1 2 3 1 2 3 1 1 2 3   1 1 1 1 1 1 1 1 1 1
 EXTRA SYMMETRY OF MOS IN SYMMETRY 3:   1 3 2 1 1 3 2 1 3 2   1 1 2 3 1 2 3 1 2 3   1 6 5 4 2 3 1 6 5 4   1 3 2 1 6 5 4 3 2 1
                                        3 2 1 1 3 2 1 3 2 1   1 3 2 1 3 2 1 1 3 2   1 1 1 1 1 1 1 1 1 1
 EXTRA SYMMETRY OF MOS IN SYMMETRY 4:   1 1 1 1 1 2 3 1 2 3   1 1 3 2 3 2 1 3 2 1   3 2 1 1 3 2 1 1 1 1   1 1 1 1 1 1
 EXTRA SYMMETRY OF MOS IN SYMMETRY 5:   1 2 3 1 1 2 3 1 3 2   1 1 2 3 1 3 2 1 2 3   1 6 4 5 3 2 1 4 6 5   1 3 2 1 4 6 5 2 3 1
                                        2 3 1 1 2 3 1 2 3 1   1 3 2 1 2 3 1 1 2 3   1 1 1 1 1 1 1 1 1 1
 EXTRA SYMMETRY OF MOS IN SYMMETRY 6:   1 1 1 1 1 3 2 1 3 2   1 1 2 3 2 3 1 2 3 1   2 3 1 1 2 3 1 1 1 1   1 1 1 1 1 1
 EXTRA SYMMETRY OF MOS IN SYMMETRY 8:   1 1 1 1 1 1 2 3 1 3   2 1 2 3 1 1 1 1 1 1   1

 Natural orbital dump (state averaged) at molpro section  5202.2    (Orbital set 2)


 CI vector for state symmetry 1
 ==============================

 0a 0 0 0          1.0000000   0.0000000
 a0 0 0 0          0.0000000   1.0000000

 TOTAL ENERGIES                      -181.19480279  -181.19480279

 CI vector for state symmetry 2
 ==============================

 00 a 0 0          1.0000000

 TOTAL ENERGIES                      -181.19480279

 CI vector for state symmetry 3
 ==============================

 00 0 a 0          1.0000000

 TOTAL ENERGIES                      -181.19480279

 CI vector for state symmetry 4
 ==============================

 00 0 0 a          1.0000000

 TOTAL ENERGIES                      -181.19480279



 **********************************************************************************************************************************
 DATASETS  * FILE   NREC   LENGTH (MB)   RECORD NAMES
              1      20       62.68       500      610      700      900      950      970     1000      129      960     1100
                                          VAR    BASINP    GEOM    SYMINP    ZMAT    AOBASIS   BASIS     P2S    ABASIS      S
                                         1400     1410     1420     1200     1210     1080     1600     1650     1700     1380
                                           T        V       ECP      H0       H01     AOSYM     SMH    MOLCAS    OPER     JKOP

              2       6        9.83       200      700     1000      520     4202     5202
                                        OPTIONS   GEOM     BASIS   MCVARS     RHF     MCSCF

 PROGRAMS   *        TOTAL     MULTI       POP       RHF       INT
 CPU TIMES  *       169.75      7.37      0.00      3.20    158.72
 REAL TIME  *       179.43 SEC
 DISK USED  *         8.15 GB
 SF USED    *       144.53 MB
 GA USED    *         0.00 MB       (max)       0.00 MB       (current)
 **********************************************************************************************************************************
   -->
   <time start="18:12:28" end="18:12:37" cpu="7.37" system="0.56" real="8.69"/>
   <storage units="megabyte" memory="8001.84" sf="144.53" df="352.05" eaf="7798.7" ga="0.0"/>
  </jobstep><!--
  --><jobstep command="RHF-SCF" commandset="SCFPRO">
   <!--


 PROGRAM * RHF-SCF (OPEN SHELL)       Authors: W. Meyer, H.-J. Werner


 NUMBER OF ELECTRONS:      12+   11-    SPACE SYMMETRY=4    SPIN SYMMETRY: Doublet
 CONVERGENCE THRESHOLDS:    1.00E-05 (Density)    1.00E-07 (Energy)
 MAX. NUMBER OF ITERATIONS:        0
 INTERPOLATION TYPE:            DIIS
 INTERPOLATION STEPS:              2 (START)      1 (STEP)
 LEVEL SHIFTS:                 -0.60 (CLOSED) -0.30 (OPEN)

 Number of closed-shell orbitals:   11 (   1   3   3   0   3   0   0   1 )
 Number of open-shell orbitals:      1 (   0   0   0   1   0   0   0   0 )


 Molecular orbitals read from record     5202.2  Type=MCSCF/NATURAL (state averaged)

 Molecular orbital dump at record        2120.2

 ITERATION    DDIFF          GRAD             ENERGY        2-EL.EN.            DIPOLE MOMENTS         DIIS   ORB.
    1      0.000D+00      0.000D+00      -181.19480279    298.691133    0.00000    0.00000    0.00000    0    start

 Final alpha occupancy:   1   3   3   1   3   0   0   1
 Final beta  occupancy:   1   3   3   0   3   0   0   1

 !RHF STATE 1.4 Energy               -181.194802785426
   --><property name="Energy" method="RHF" principal="true" stateSymmetry="4" stateNumber="1"
     value="-181.194802785426"/><!--
 Nuclear energy                         0.00000000
 One-electron energy                 -330.54036932
 Two-electron energy                  149.34556653
 Virial quotient                       -1.84131198
 !RHF STATE 1.4 Dipole moment           0.00000000     0.00000000     0.00000000
 Dipole moment /Debye                   0.00000000     0.00000000     0.00000000
   --><property name="Dipole moment" method="RHF" principal="true" stateSymmetry="4"
     stateNumber="1" value="0.0 0.0 0.0"/><!--

 Orbital energies:

         1.1          2.1          3.1
     -3.285079    -0.798530    -0.798530

         1.2          2.2          3.2          4.2          5.2
     -2.311318    -0.727509    -0.727509    -0.311245    -0.155396

         1.3          2.3          3.3          4.3          5.3
     -2.311318    -0.727509    -0.727509    -0.311245    -0.155396

         1.4          2.4          3.4
     -0.798530    -0.188630    -0.108316

         1.5          2.5          3.5          4.5          5.5
     -2.311318    -0.727509    -0.727509    -0.311245    -0.155396

         1.6          2.6
     -0.798530    -0.188630

         1.7          2.7
     -0.798530    -0.188630

         1.8          2.8          3.8
     -0.727509    -0.123821    -0.067593

 HOMO      3.2    -0.727509 =     -19.7965eV
 LUMO      2.1    -0.798530 =     -21.7291eV
 LUMO-HOMO        -0.071021 =      -1.9326eV


 **********************************************************************************************************************************
 DATASETS  * FILE   NREC   LENGTH (MB)   RECORD NAMES
              1      20       62.68       500      610      700      900      950      970     1000      129      960     1100
                                          VAR    BASINP    GEOM    SYMINP    ZMAT    AOBASIS   BASIS     P2S    ABASIS      S
                                         1400     1410     1420     1200     1210     1080     1600     1650     1700     1380
                                           T        V       ECP      H0       H01     AOSYM     SMH    MOLCAS    OPER     JKOP

              2       7       13.90       200      700     1000      520     4202     5202     2120
                                        OPTIONS   GEOM     BASIS   MCVARS     RHF     MCSCF     RHF

 PROGRAMS   *        TOTAL       RHF     MULTI       POP       RHF       INT
 CPU TIMES  *       170.26      0.51      7.37      0.00      3.20    158.72
 REAL TIME  *       180.32 SEC
 DISK USED  *         8.15 GB
 SF USED    *       144.53 MB
 GA USED    *         0.00 MB       (max)       0.00 MB       (current)
 **********************************************************************************************************************************
   -->
   <time start="18:12:37" end="18:12:38" cpu="0.51" system="0.08" real="0.89"/>
   <storage units="megabyte" memory="8001.84" sf="144.53" df="352.05" eaf="7798.7" ga="0.0"/>
  </jobstep><!--
 SETTING SCF(9)         =      -181.19480279  AU
 SETTING _CC_NORM_MAX   =         2.00000000
  --><jobstep command="RCCSD(T)" commandset="CCSD">
   <!--


 PROGRAM * CCSD (Restricted open-shell coupled cluster)     Authors: C. Hampel, H.-J. Werner, 1991, M. Deegan, P.J. Knowles, 1992


 Convergence thresholds:  THRVAR = 1.00D-08  THRDEN = 1.00D-06

 CCSD(T)     terms to be evaluated (factor= 1.000)


 Number of closed-shell orbitals:  11 (   1   3   3   0   3   0   0   1 )
 Number of active  orbitals:        1 (   0   0   0   1   0   0   0   0 )
 Number of external orbitals:     430 ( 102  67  67  35  67  36  36  20 )

 Memory could be reduced to 204.08 Mwords without degradation in triples

 Number of N-1 electron functions:              23
 Number of N-2 electron functions:             253
 Number of singly external CSFs:              1486
 Number of doubly external CSFs:           4498196
 Total number of CSFs:                     4499682

 Molecular orbitals read from record     2120.2  Type=RHF/CANONICAL (state 1.4)

 Integral transformation finished. Total CPU:   6.76 sec, npass=  1  Memory used:  40.51 MW

 Starting RMP2 calculation

 Wavefunction is spin-projected

 ITER.      SQ.NORM     CORR.ENERGY   TOTAL ENERGY   ENERGY CHANGE        DEN1      VAR(S)    VAR(P)  DIIS     TIME
   1     10.76792881    -4.18128345  -185.37608624    -4.18128345    -1.14321166  0.23D-04  0.25D+01  0  0     8.03
   2     25.00429897    -5.32449511  -186.51929790    -1.14321166    -1.46955920  0.24D-05  0.33D+01  0  0     8.39

 UNREASONABLE NORM: 25.004299 CALCULATION WILL BE STOPPED

 The threshold can be changed using option CC_NORM_MAX (see manual). The current value is CC_NORM_MAX=2.00

 Norm of t1 vector:      0.03106920      S-energy:    -0.00326884      T1 diagnostic:  0.00340190
 Norm of t2 vector:      4.89931972      P-energy:    -5.32122627
                                         Alpha-Beta:  -3.36986415
                                         Alpha-Alpha: -0.81672901
                                         Beta-Beta:   -1.13463312

 Spin contamination <S**2-Sz**2-Sz>     0.00000000


 RESULTS
 =======

  Reference energy                   -181.194802785426
   --><property name="energy" method="Reference" stateSymmetry="1" stateNumber="1"
     value="-181.194802785426"/><!--
  RCCSD singles energy                 -0.003268840505
   --><property name="energy" method="RCCSD singles" stateSymmetry="1" stateNumber="1"
     value="-0.326884050475229E-02"/><!--
  RCCSD pair energy                    -5.321226271215
   --><property name="energy" method="RCCSD pair" stateSymmetry="1" stateNumber="1"
     value="-5.32122627121529"/><!--
  RCCSD correlation energy             -5.324495111720
   --><property name="energy" method="RCCSD correlation" stateSymmetry="1" stateNumber="1"
     value="-5.32449511172004"/><!--

 !RHF-RCCSD energy                   -186.519297897146
   --><property name="energy" method="RHF-RCCSD" principal="true" stateSymmetry="1"
     stateNumber="1" value="-186.519297897146"/><!--

 Program statistics:

 Available memory in ccsd:               999998628
 Min. memory needed in ccsd:              12527787
 Max. memory used in ccsd:                18118890
 Max. memory used in cckext:                     0 ( 0 integral passes)
 Max. memory used in cckint:              40514083 ( 1 integral passes)


 ? Error
 ? No convergence. This error exit can be avoided using the NOCHECK option
 ? The problem occurs in ccsd
   --><error type="Error" location="ccsd"
     message="No convergence. This error exit can be avoided using the NOCHECK option"/><!--
  --></jobstep><!--
  -->
  <input>
  <!--
 --></job><!--
--></molpro>
