
 Primary working directories    : /global/cscratch1/sd/haihan
 Secondary working directories  : /global/cscratch1/sd/haihan
 Wavefunction directory         : /global/homes/h/haihan/Research/ECP/f_group_element_ecps/Rh/Molpro/molecules/RhH/AE/wfu/
 Main file repository           : /global/cscratch1/sd/haihan/

 SHA1      : 19cd028119e0e09f93f0674bd8af7968d9b3eff6
 NAME      : 2015.1.36
 ARCHNAME  : linux/x86_64
 FC        : /opt/cray/pe/craype/2.5.14/bin/ftn
 BLASLIB   : -L/opt/intel/compilers_and_libraries_2018.1.163/linux/mkl/lib/intel64 -Wl,-_start-group -lmkl_intel_ilp64 -lmkl_intel_thread -lmkl_core -Wl,-_end-group -liomp5
 id        : lbl

 Nodes     nprocs
 nid01080    11
 Number of processes for MPI-2 version of Molpro:   nprocs(total)=   12   nprocs(compute)=   11   nprocs(helper)=    1

 Using customized tuning parameters: mindgm=7; mindgv=16; mindgc=1; mindgr=1; noblas=0; minvec=7
 default implementation of scratch files=sf  

 ***,Calculation for all-electron YH molecule, SCF and CCSD(T)
 memory,1,g
 gthresh,twoint=1.0E-15
 gthresh,throvl=1.0E-15
 
 set,dkroll=1,dkho=10,dkhp=4
 basis={
 Including file /global/u2/h/haihan/Research/ECP/f_group_element_ecps/Rh/Molpro/molecules/RhH/AE/r_1.90/../generate/Rh-aug-cc-pwCVTZ.basis
 Including file /global/u2/h/haihan/Research/ECP/f_group_element_ecps/Rh/Molpro/molecules/RhH/AE/r_1.90/../generate/H-aug-cc-pVTZ.basis
 }
 
 Rh_ccsd=-4782.723260
 H_ccsd=-0.49982785
 
                                                                                 !These are the wf cards parameters
 ne = 46
 symm = 1
 ss= 2
 
                                                                                 !There are irrep cards paramters
 A1=12
 B1=5
 B2=5
 A2=2
 
 
 geometry={
     2
     RhH molecule
     Rh 0.0 0.0 0.0
     H 0.0 0.0 1.90
 }
 {rhf,nitord=20;
  maxit,200;
  wf,ne,symm,ss
  occ,A1,B1,B2,A2
  closed,A1-2,B1,B2,A2
  print,orbitals=2
 }
 scf=energy
 _CC_NORM_MAX=2.0
 {rccsd(t),shifts=0.5,shiftp=0.5,thrdis=1.0;diis,1,1,15,1;maxit,200;core}
 ccsd=energy
 bind=ccsd-Rh_ccsd-H_ccsd
 
 
 table,1.90,scf,ccsd,bind
 save
 type,csv
 

 Variables initialized (889), CPU time= 0.00 sec
 Commands  initialized (702), CPU time= 0.02 sec, 572 directives.
 Default parameters read. Elapsed time= 0.15 sec

 Checking input...
 Passed
1


                                         ***  PROGRAM SYSTEM MOLPRO  ***
                                       Copyright, TTI GmbH Stuttgart, 2015
                                    Version 2015.1 linked Dec 29 2018 15:55:43


 **********************************************************************************************************************************
 LABEL *   Calculation for all-electron YH molecule, SCF and CCSD(T)                     
  64 bit mpp version                                                                     DATE: 25-Sep-22          TIME: 10:03:07  
 **********************************************************************************************************************************

 SHA1:             19cd028119e0e09f93f0674bd8af7968d9b3eff6
 **********************************************************************************************************************************

 THRESHOLDS:

 ZERO    =  1.00D-12  ONEINT  =  1.00D-12  TWOINT  =  1.00D-15  PREFAC  =  1.00D-14  LOCALI  =  1.00D-09  EORDER  =  1.00D-04
 ENERGY  =  0.00D+00  ETEST   =  0.00D+00  EDENS   =  0.00D+00  THRDEDEF=  1.00D-06  GRADIENT=  1.00D-02  STEP    =  1.00D-03
 ORBITAL =  1.00D-05  CIVEC   =  1.00D-05  COEFF   =  1.00D-04  PRINTCI =  5.00D-02  PUNCHCI =  9.90D+01  OPTGRAD =  3.00D-04
 OPTENERG=  1.00D-06  OPTSTEP =  3.00D-04  THRGRAD =  1.00D-10  COMPRESS=  1.00D-11  VARMIN  =  1.00D-07  VARMAX  =  1.00D-03
 THRDOUB =  0.00D+00  THRDIV  =  1.00D-05  THRRED  =  1.00D-07  THRPSP  =  1.00D+00  THRDC   =  1.00D-10  THRCS   =  1.00D-10
 THRNRM  =  1.00D-08  THREQ   =  0.00D+00  THRDE   =  1.00D+00  THRREF  =  1.00D-05  SPARFAC =  1.00D+00  THRDLP  =  1.00D-07
 THRDIA  =  1.00D-10  THRDLS  =  1.00D-07  THRGPS  =  0.00D+00  THRKEX  =  0.00D+00  THRDIS  =  2.00D-01  THRVAR  =  1.00D-10
 THRLOC  =  1.00D-06  THRGAP  =  1.00D-06  THRLOCT = -1.00D+00  THRGAPT = -1.00D+00  THRORB  =  1.00D-06  THRMLTP =  0.00D+00
 THRCPQCI=  1.00D-10  KEXTA   =  0.00D+00  THRCOARS=  0.00D+00  SYMTOL  =  1.00D-06  GRADTOL =  1.00D-06  THROVL  =  1.00D-08
 THRORTH =  1.00D-08  GRID    =  1.00D-06  GRIDMAX =  1.00D-03  DTMAX   =  0.00D+00  THROCCDE=  1.00D-01  THROCCDE=  1.00D-01



 THRESHOLDS:

 ZERO    =  1.00D-12  ONEINT  =  1.00D-12  TWOINT  =  1.00D-15  PREFAC  =  1.00D-14  LOCALI  =  1.00D-09  EORDER  =  1.00D-04
 ENERGY  =  0.00D+00  ETEST   =  0.00D+00  EDENS   =  0.00D+00  THRDEDEF=  1.00D-06  GRADIENT=  1.00D-02  STEP    =  1.00D-03
 ORBITAL =  1.00D-05  CIVEC   =  1.00D-05  COEFF   =  1.00D-04  PRINTCI =  5.00D-02  PUNCHCI =  9.90D+01  OPTGRAD =  3.00D-04
 OPTENERG=  1.00D-06  OPTSTEP =  3.00D-04  THRGRAD =  1.00D-10  COMPRESS=  1.00D-11  VARMIN  =  1.00D-07  VARMAX  =  1.00D-03
 THRDOUB =  0.00D+00  THRDIV  =  1.00D-05  THRRED  =  1.00D-07  THRPSP  =  1.00D+00  THRDC   =  1.00D-10  THRCS   =  1.00D-10
 THRNRM  =  1.00D-08  THREQ   =  0.00D+00  THRDE   =  1.00D+00  THRREF  =  1.00D-05  SPARFAC =  1.00D+00  THRDLP  =  1.00D-07
 THRDIA  =  1.00D-10  THRDLS  =  1.00D-07  THRGPS  =  0.00D+00  THRKEX  =  0.00D+00  THRDIS  =  2.00D-01  THRVAR  =  1.00D-10
 THRLOC  =  1.00D-06  THRGAP  =  1.00D-06  THRLOCT = -1.00D+00  THRGAPT = -1.00D+00  THRORB  =  1.00D-06  THRMLTP =  0.00D+00
 THRCPQCI=  1.00D-10  KEXTA   =  0.00D+00  THRCOARS=  0.00D+00  SYMTOL  =  1.00D-06  GRADTOL =  1.00D-06  THROVL  =  1.00D-15
 THRORTH =  1.00D-08  GRID    =  1.00D-06  GRIDMAX =  1.00D-03  DTMAX   =  0.00D+00  THROCCDE=  1.00D-01  THROCCDE=  1.00D-01


 SETTING DKROLL         =         1.00000000                                  
 SETTING DKHO           =        10.00000000                                  
 SETTING DKHP           =         4.00000000                                  

 Variable memory set to 1000000000 words,  buffer space   230000 words

 SETTING BASIS          =    USERDEF
 SETTING RH_CCSD        =     -4782.72326000                                  
 SETTING H_CCSD         =        -0.49982785                                  
 SETTING NE             =        46.00000000                                  
 SETTING SYMM           =         1.00000000                                  
 SETTING SS             =         2.00000000                                  
 SETTING A1             =        12.00000000                                  
 SETTING B1             =         5.00000000                                  
 SETTING B2             =         5.00000000                                  
 SETTING A2             =         2.00000000                                  

Geometry recognized as XYZ



 Recomputing integrals since basis changed


 Using spherical harmonics



 PROGRAM * SEWARD (Integral evaluation for generally contracted gaussian basis sets)     Author: Roland Lindh, 1990

 Geometry written to block  1 of record 700


 Point group  C2v 



 ATOMIC COORDINATES

 NR  ATOM    CHARGE       X              Y              Z

   1  RH     45.00    0.000000000    0.000000000    0.000000000
   2  H       1.00    0.000000000    0.000000000    3.590479637

 Bond lengths in Bohr (Angstrom)

 1-2  3.590479637
     ( 1.900000000)

 NUCLEAR CHARGE:                   46
 NUMBER OF PRIMITIVE AOS:         337
 NUMBER OF SYMMETRY AOS:          284
 NUMBER OF CONTRACTIONS:          284   ( 125A1  +  64B1  +  64B2  +  31A2  )
 NUMBER OF CORE ORBITALS:          18   (   9A1  +   4B1  +   4B2  +   1A2  )
 NUMBER OF VALENCE ORBITALS:        7   (   4A1  +   1B1  +   1B2  +   1A2  )


 NUCLEAR REPULSION ENERGY   12.53314447

 One-electron integrals computed with SEWARD

 10nd-order Douglas-Kroll-Hess method activated. McWeeny DKH parametrization is used.

 Computing Douglas-Kroll / X2C integrals

 AO integral compression algorithm  1   Integral accuracy      1.0D-15

     1008.992 MB (compressed) written to integral file ( 54.8%)

     Node minimum: 40.632 MB, node maximum: 239.600 MB


 NUMBER OF SORTED TWO-ELECTRON INTEGRALS:   19300400.     BUFFER LENGTH:  32768
 NUMBER OF SEGMENTS:   2  SEGMENT LENGTH:   15988400      RECORD LENGTH: 524288

 Memory used in sort:      16.55 MW

 SORT1 READ   230097281. AND WROTE     8728613. INTEGRALS IN     26 RECORDS. CPU TIME:     3.50 SEC, REAL TIME:     4.10 SEC
 SORT2 READ    95247405. AND WROTE   212246766. INTEGRALS IN  10054 RECORDS. CPU TIME:     0.51 SEC, REAL TIME:     0.82 SEC

 Node minimum:    19276303.  Node maximum:    19391137. integrals

 OPERATOR DM      FOR CENTER  0  COORDINATES:    0.000000    0.000000    0.000000

 EXTRA SYMMETRY OF AOS IN SYMMETRY 1:   1 1 1 1 1 1 1 1 1 1   1 1 1 1 1 1 1 1 1 1   1 1 1 1 1 1 1 1 1 1   1 1 1 1 1 1 1 1 1 1
                                        1 1 1 1 1 1 1 1 1 1   1 1 1 1 1 1 1 1 2 1   2 1 2 1 2 1 2 1 2 1   2 1 2 1 2 1 2 1 2 1
                                        2 1 2 1 2 1 2 1 2 1   2 1 2 1 2 1 2 1 2 1   2 1 2 1 3 2 1 3 2 1   3 2 1 1 1 1 1 1 1 1
                                        1 1 2 1 2
 EXTRA SYMMETRY OF AOS IN SYMMETRY 2:   1 1 1 1 1 1 1 1 1 1   1 1 1 1 1 1 1 1 1 1   1 1 1 1 1 1 1 1 1 1   1 1 1 1 1 1 1 1 1 1
                                        1 1 1 1 2 1 2 1 2 1   2 1 2 1 2 1 2 1 2 1   1 1 1 1
 EXTRA SYMMETRY OF AOS IN SYMMETRY 3:   1 1 1 1 1 1 1 1 1 1   1 1 1 1 1 1 1 1 1 1   1 1 1 1 1 1 1 1 1 1   1 1 1 1 1 1 1 1 1 1
                                        1 1 1 1 2 1 2 1 2 1   2 1 2 1 2 1 2 1 2 1   1 1 1 1
 EXTRA SYMMETRY OF AOS IN SYMMETRY 4:   1 1 1 1 1 1 1 1 1 1   1 1 1 1 1 1 1 1 1 1   1 1 1 1 2 1 2 1 2 1   1

 Eigenvalues of metric

         1 0.116E-07 0.861E-06 0.875E-06 0.268E-05 0.276E-05 0.433E-05 0.605E-05 0.190E-04
         2 0.882E-06 0.276E-05 0.615E-05 0.330E-04 0.490E-04 0.537E-03 0.682E-03 0.158E-02
         3 0.882E-06 0.276E-05 0.615E-05 0.330E-04 0.490E-04 0.537E-03 0.682E-03 0.158E-02
         4 0.276E-05 0.493E-04 0.686E-03 0.163E-02 0.452E-02 0.127E-01 0.271E-01 0.556E-01


 **********************************************************************************************************************************
 DATASETS  * FILE   NREC   LENGTH (MB)   RECORD NAMES
              1      22       21.63       500      610      700      900      950      970     1000      129      960     1700   
                                          VAR    BASINP    GEOM    SYMINP    ZMAT    AOBASIS   BASIS     P2S    ABASIS    OPER   
                                         1101     1401     1411     1412     1650     1100     1400     1410     1200     1210   
                                          SR      EKINR    POTR     PVPR    MOLCAS      S      EKIN      POT      H0       H01  
                                         1080     1600   
                                         AOSYM     SMH  

 PROGRAMS   *        TOTAL       INT
 CPU TIMES  *        40.98     40.67
 REAL TIME  *        43.21 SEC
 DISK USED  *         2.19 GB      
 GA USED    *         0.00 MB       (max)       0.00 MB       (current)
 **********************************************************************************************************************************


 PROGRAM * RHF-SCF (OPEN SHELL)       Authors: W. Meyer, H.-J. Werner


 NUMBER OF ELECTRONS:      24+   22-    SPACE SYMMETRY=1    SPIN SYMMETRY: Triplet 
 CONVERGENCE THRESHOLDS:    1.00E-05 (Density)    1.00E-07 (Energy)
 MAX. NUMBER OF ITERATIONS:      200
 INTERPOLATION TYPE:            DIIS
 INTERPOLATION STEPS:              2 (START)      1 (STEP)
 LEVEL SHIFTS:                 -0.60 (CLOSED) -0.30 (OPEN) 

 Number of closed-shell orbitals:   22 (  10   5   5   2 )
 Number of open-shell orbitals:      2 (   2   0   0   0 )


 Orbital guess generated from atomic densities. Full valence occupancy:   13   5   5   2

 Molecular orbital dump at record        2100.2

 ITERATION    DDIFF          GRAD             ENERGY        2-EL.EN.            DIPOLE MOMENTS         DIIS   ORB.
    1      0.000D+00      0.000D+00     -4766.00278550   3218.805811    0.00000    0.00000   -2.12415    0    start
    2      0.000D+00      0.490D-01     -4775.24747338   3934.523759    0.00000    0.00000    2.82057    1    diag,B
    3      0.646D+00      0.879D-01     -4779.24023929   3823.955988    0.00000    0.00000    1.74140    2    diag,B
    4      0.671D-01      0.452D-01     -4781.15888550   3738.290513    0.00000    0.00000    0.46005    3    diag,B
    5      0.236D-01      0.197D-01     -4781.67943095   3687.492809    0.00000    0.00000   -0.57273    4    diag,B
    6      0.799D-02      0.642D-02     -4781.77811107   3660.335459    0.00000    0.00000   -1.26304    5    diag,B
    7      0.323D-02      0.110D-02     -4781.79278251   3656.432987    0.00000    0.00000   -1.50638    6    diag,B
    8      0.212D-02      0.796D-03     -4781.80326710   3655.672337    0.00000    0.00000   -1.65192    7    diag,B
    9      0.106D-02      0.516D-03     -4781.81216822   3655.272688    0.00000    0.00000   -1.76752    8    diag,B
   10      0.148D-02      0.360D-03     -4781.81568560   3654.826286    0.00000    0.00000   -1.81459    9    orth
   11      0.705D-03      0.243D-03     -4781.81655491   3654.105964    0.00000    0.00000   -1.84345    9    diag,B
   12      0.550D-03      0.794D-04     -4781.81670293   3654.032656    0.00000    0.00000   -1.84521    9    diag,B
   13      0.151D-03      0.436D-04     -4781.81672702   3653.936957    0.00000    0.00000   -1.84795    9    diag,B
   14      0.125D-03      0.247D-04     -4781.81673619   3653.980937    0.00000    0.00000   -1.84510    9    diag,B
   15      0.968D-04      0.109D-04     -4781.81673888   3653.970985    0.00000    0.00000   -1.84486    9    diag,B
   16      0.295D-04      0.596D-05     -4781.81673969   3653.982231    0.00000    0.00000   -1.84445    9    diag,B
   17      0.220D-04      0.255D-05     -4781.81673981   3653.979200    0.00000    0.00000   -1.84494    9    diag,B
   18      0.914D-05      0.124D-05     -4781.81673984   3653.981803    0.00000    0.00000   -1.84518    9    diag,B
   19      0.416D-05      0.631D-06     -4781.81673985   3653.980470    0.00000    0.00000   -1.84531    0    orth

 Final alpha occupancy:  12   5   5   2
 Final beta  occupancy:  10   5   5   2

 !RHF STATE 1.1 Energy              -4781.816739848120
 Nuclear energy                        12.53314447
 One-electron energy                -6621.34011953
 Two-electron energy                 1826.99023521
 Virial quotient                       -0.88986104
 !RHF STATE 1.1 Dipole moment           0.00000000     0.00000000    -1.84531219
 Dipole moment /Debye                   0.00000000     0.00000000    -4.69000855

 ELECTRON ORBITALS
 =================


   Orb  Occ    Energy  Couls-En    Coefficients

                                   1 1s      1 1s      1 1s      1 1s      1 1s      1 1s      1 1s      1 1s      1 1s      1 1s   
                                   1 1s      1 1s      1 1s      1 1s      1 1s      1 1s      1 1s      1 1s      1 1s      1 1s   
                                   1 1s      1 1s      1 1s      1 1s      1 1s      1 1s      1 1s      1 1s      1 1s      1 1s   
                                   1 1s      1 1s      1 2pz     1 2pz     1 2pz     1 2pz     1 2pz     1 2pz     1 2pz     1 2pz  
                                   1 2pz     1 2pz     1 2pz     1 2pz     1 2pz     1 2pz     1 2pz     1 2pz     1 2pz     1 2pz  
                                   1 2pz     1 2pz     1 2pz     1 2pz     1 2pz     1 2pz     1 2pz     1 3d0     1 3d2+    1 3d0  
                                   1 3d2+    1 3d0     1 3d2+    1 3d0     1 3d2+    1 3d0     1 3d2+    1 3d0     1 3d2+    1 3d0  
                                   1 3d2+    1 3d0     1 3d2+    1 3d0     1 3d2+    1 3d0     1 3d2+    1 3d0     1 3d2+    1 3d0  
                                   1 3d2+    1 3d0     1 3d2+    1 3d0     1 3d2+    1 3d0     1 3d2+    1 3d0     1 3d2+    1 3d0  
                                   1 3d2+    1 3d0     1 3d2+    1 4f0     1 4f2+    1 4f0     1 4f2+    1 4f0     1 4f2+    1 4f0  
                                   1 4f2+    1 4f0     1 4f2+    1 5g0     1 5g4+    1 5g2+    1 5g0     1 5g4+    1 5g2+    1 5g0  
                                   1 5g4+    1 5g2+    2 1s      2 1s      2 1s      2 1s      2 1s      2 1s      2 2pz     2 2pz  
                                   2 2pz     2 3d0     2 3d2+    2 3d0     2 3d2+ 

   1.1   2  -857.7981-1899.2505  0.000045  0.000122  0.000335  0.000765  0.001628  0.003290  0.006567  0.013170  0.026884  0.055549
                                 0.112517  0.208272  0.308816  0.297915 -0.004400  0.130168  0.011230  0.004375 -0.010069  0.057712
                                -0.076248  0.038772 -0.016979  0.005337 -0.001667  0.000810 -0.000177  0.000092 -0.000046  0.000023
                                -0.000008  0.000001 -0.000000 -0.000000 -0.000000 -0.000000 -0.000000 -0.000000 -0.000000 -0.000001
                                -0.000001 -0.000000  0.000000 -0.000005  0.000006 -0.000004  0.000014 -0.000018  0.000010 -0.000016
                                 0.000016 -0.000004  0.000001  0.000001  0.000002 -0.000001 -0.000001 -0.000000  0.000000 -0.000000
                                 0.000000  0.000000  0.000000  0.000000 -0.000000 -0.000000  0.000000 -0.000000 -0.000000  0.000000
                                 0.000000 -0.000000 -0.000000  0.000005  0.000000 -0.000009 -0.000000  0.000008  0.000000 -0.000007
                                -0.000000  0.000011  0.000000 -0.000009 -0.000000  0.000003  0.000000 -0.000000 -0.000000  0.000001
                                 0.000000 -0.000001 -0.000000 -0.000000  0.000000  0.000002  0.000000 -0.000002 -0.000000  0.000001
                                 0.000000  0.000000 -0.000000  0.000000 -0.000000  0.000000 -0.000000 -0.000000  0.000000  0.000000
                                -0.000000 -0.000000 -0.000000  0.000000  0.000000 -0.000000 -0.000004  0.000003  0.000000  0.000001
                                 0.000002 -0.000000 -0.000000 -0.000001  0.000000

   2.1   2  -127.3693 -387.3524 -0.000015 -0.000041 -0.000113 -0.000258 -0.000550 -0.001115 -0.002238 -0.004529 -0.009382 -0.019887
                                -0.042212 -0.085437 -0.150305 -0.190842  0.002596 -0.066954  0.308952  0.553396  0.266847  0.112298
                                -0.128725  0.099275 -0.047918  0.017337 -0.005991  0.002894 -0.000719  0.000365 -0.000185  0.000094
                                -0.000035  0.000002 -0.000000 -0.000000 -0.000000 -0.000000 -0.000001 -0.000003 -0.000009 -0.000024
                                -0.000054 -0.000097 -0.000125 -0.000124  0.000037 -0.000042  0.000049 -0.000066  0.000036 -0.000059
                                 0.000057 -0.000015  0.000002  0.000007  0.000011 -0.000004 -0.000002 -0.000000 -0.000000 -0.000000
                                 0.000000 -0.000000  0.000000 -0.000000  0.000000 -0.000003  0.000000 -0.000004 -0.000000  0.000001
                                 0.000000 -0.000003 -0.000000  0.000025  0.000000 -0.000042 -0.000000  0.000034  0.000000 -0.000031
                                -0.000000  0.000048  0.000000 -0.000040 -0.000000  0.000011 -0.000000 -0.000000 -0.000000  0.000005
                                -0.000000 -0.000003 -0.000000  0.000001 -0.000000  0.000004  0.000000 -0.000005 -0.000000  0.000002
                                 0.000000  0.000002  0.000000  0.000005  0.000004  0.000000 -0.000002 -0.000001  0.000000  0.000002
                                 0.000001  0.000000 -0.000000  0.000000  0.000001 -0.000003 -0.000020  0.000012  0.000000  0.000005
                                 0.000008 -0.000001 -0.000000 -0.000003 -0.000000

   3.1   2  -113.9393 -368.2532 -0.000000 -0.000000 -0.000000 -0.000000 -0.000000 -0.000000 -0.000001 -0.000002 -0.000003 -0.000007
                                -0.000016 -0.000032 -0.000057 -0.000072  0.000001 -0.000024  0.000129  0.000208  0.000057  0.000265
                                -0.000382  0.000260 -0.000156  0.000072 -0.000046  0.000033 -0.000016  0.000013 -0.000005  0.000004
                                -0.000005 -0.000002  0.000016  0.000055  0.000203  0.000713  0.002485  0.008366  0.026118  0.072484
                                 0.167219  0.296003  0.348845  0.212902  0.000838  0.050286  0.007400 -0.004461  0.002479 -0.002339
                                 0.001938 -0.000429  0.000056 -0.000019  0.000008 -0.000005 -0.000000 -0.000000  0.000000 -0.000000
                                 0.000000 -0.000001  0.000000 -0.000004  0.000000 -0.000013  0.000000 -0.000018  0.000000 -0.000006
                                 0.000000 -0.000002  0.000000  0.000013  0.000000 -0.000020 -0.000000  0.000016  0.000000 -0.000013
                                -0.000000  0.000024  0.000000 -0.000020 -0.000000  0.000008 -0.000000 -0.000003 -0.000000  0.000001
                                -0.000000 -0.000001 -0.000000  0.000010 -0.000000  0.000017  0.000000 -0.000012 -0.000000  0.000005
                                 0.000000 -0.000001  0.000000  0.000000 -0.000000 -0.000000 -0.000000 -0.000000  0.000000  0.000000
                                -0.000000  0.000000 -0.000000  0.000000  0.000000 -0.000001 -0.000003  0.000007  0.000000  0.000002
                                 0.000001 -0.000001 -0.000000 -0.000001 -0.000000

   4.1   2   -24.0555 -131.7198  0.000007  0.000018  0.000049  0.000111  0.000237  0.000481  0.000965  0.001956  0.004059  0.008640
                                 0.018447  0.037878  0.068222  0.092153 -0.003566  0.035057 -0.204793 -0.489249 -0.317216  0.276932
                                -0.066451  0.474041  0.367060  0.293570  0.054345 -0.004951  0.002787 -0.000894  0.000531 -0.000148
                                 0.000079 -0.000007  0.000000  0.000000  0.000000  0.000001  0.000002  0.000006  0.000020  0.000056
                                 0.000134  0.000251  0.000308  0.000133 -0.000063 -0.000407 -0.000876 -0.000006 -0.000660  0.000146
                                -0.000239  0.000084 -0.000063  0.000036  0.000046  0.000003  0.000006 -0.000000  0.000000 -0.000000
                                -0.000000 -0.000000 -0.000000 -0.000001 -0.000000  0.000000 -0.000000 -0.000001 -0.000000 -0.000011
                                -0.000000 -0.000043 -0.000000 -0.000153 -0.000000  0.000169  0.000000 -0.000097 -0.000000  0.000076
                                 0.000000 -0.000077 -0.000000  0.000063  0.000000 -0.000017 -0.000000  0.000055  0.000000  0.000009
                                -0.000000  0.000003  0.000000  0.000070 -0.000000 -0.000246  0.000000  0.000199 -0.000000 -0.000024
                                 0.000000  0.000031 -0.000000  0.000054  0.000045  0.000000 -0.000099 -0.000079 -0.000000  0.000033
                                 0.000018 -0.000000  0.000000 -0.000001  0.000005 -0.000054 -0.000060 -0.000026 -0.000001  0.000027
                                 0.000020 -0.000002 -0.000000  0.000001  0.000000

   5.1   2   -19.5157 -123.5976  0.000000  0.000000  0.000000  0.000000  0.000000  0.000001  0.000002  0.000004  0.000008  0.000016
                                 0.000035  0.000071  0.000128  0.000176 -0.000010  0.000069 -0.000403 -0.000943 -0.000603  0.000663
                                -0.000254  0.001314  0.000371  0.000470 -0.000019  0.000070 -0.000067  0.000067 -0.000124  0.000168
                                -0.000073 -0.000027 -0.000007 -0.000025 -0.000091 -0.000320 -0.001118 -0.003788 -0.011973 -0.034028
                                -0.081583 -0.152275 -0.185076 -0.030106 -0.003653  0.296824  0.488374  0.011758  0.284286  0.039570
                                 0.007408  0.000405  0.000863 -0.000124  0.000164 -0.000064 -0.000006 -0.000000  0.000000 -0.000001
                                 0.000000 -0.000007  0.000000 -0.000027  0.000000 -0.000081  0.000000 -0.000194  0.000000 -0.000332
                                 0.000000 -0.000377  0.000000 -0.000332  0.000000  0.000221  0.000000 -0.000171 -0.000000  0.000088
                                 0.000000 -0.000141 -0.000000  0.000091  0.000000 -0.000021 -0.000000  0.000004 -0.000000  0.000040
                                -0.000000 -0.000020  0.000000  0.000208 -0.000000 -0.000776  0.000000  0.000536 -0.000000 -0.000105
                                 0.000000  0.000021 -0.000000  0.000014  0.000000 -0.000000 -0.000014  0.000000  0.000000  0.000006
                                 0.000000 -0.000000 -0.000000  0.000000  0.000000  0.000006 -0.000114  0.000082 -0.000002 -0.000006
                                 0.000032 -0.000003  0.000000  0.000003  0.000000

   6.1   2   -12.2473 -111.7056 -0.000000  0.000000 -0.000000  0.000000  0.000000  0.000000  0.000000  0.000000  0.000000  0.000000
                                 0.000000  0.000000  0.000000 -0.000000  0.000000 -0.000000  0.000000 -0.000000  0.000000 -0.000000
                                 0.000000 -0.000000  0.000000 -0.000000  0.000000 -0.000000  0.000000 -0.000000  0.000000 -0.000000
                                 0.000000  0.000000  0.000000 -0.000000 -0.000000 -0.000000 -0.000000 -0.000000 -0.000000 -0.000000
                                -0.000000 -0.000000 -0.000000 -0.000000  0.000000  0.000000  0.000000 -0.000000  0.000000  0.000000
                                -0.000000 -0.000000 -0.000000  0.000000 -0.000000  0.000000  0.000000  0.000000  0.000148  0.000000
                                 0.001271  0.000000  0.007703  0.000000  0.031655  0.000000  0.096005  0.000000  0.213609  0.000000
                                 0.329105  0.000000  0.338647  0.000000  0.197078 -0.000000 -0.018182  0.000000  0.035283  0.000000
                                 0.018328 -0.000000 -0.006656  0.000000  0.005687 -0.000000 -0.000405  0.000000  0.000245 -0.000000
                                -0.000035  0.000000  0.000013 -0.000000 -0.000508  0.000000  0.001469 -0.000000 -0.001260  0.000000
                                 0.000129 -0.000000 -0.000046  0.000000 -0.000000 -0.000120 -0.000000  0.000000  0.000150  0.000000
                                -0.000000 -0.000034 -0.000000 -0.000000  0.000000 -0.000000  0.000000 -0.000000 -0.000000  0.000000
                                 0.000000 -0.000000 -0.000001 -0.000000  0.000011

   7.1   2   -12.2452 -111.7090  0.000000  0.000000  0.000000  0.000000  0.000000  0.000000  0.000000  0.000000  0.000001  0.000001
                                 0.000003  0.000006  0.000010  0.000016 -0.000004  0.000009 -0.000040 -0.000081 -0.000109  0.000689
                                -0.001002  0.000994 -0.000529  0.000211 -0.000321  0.000251 -0.000083 -0.000058  0.000176 -0.000125
                                 0.000056  0.000033 -0.000000 -0.000000 -0.000000 -0.000000 -0.000001 -0.000004 -0.000011 -0.000032
                                -0.000077 -0.000145 -0.000177 -0.000041  0.000010  0.000279  0.000605 -0.000123  0.000379  0.000044
                                 0.000016 -0.000037 -0.000112  0.000140 -0.000053  0.000030  0.000018  0.000148 -0.000000  0.001272
                                -0.000000  0.007704 -0.000000  0.031658 -0.000000  0.096013 -0.000000  0.213626 -0.000000  0.329134
                                -0.000000  0.338656 -0.000000  0.196980 -0.000000 -0.018112  0.000000  0.035290 -0.000000  0.018234
                                -0.000000 -0.006438  0.000000  0.005396 -0.000000 -0.000356  0.000000  0.000264 -0.000000 -0.000063
                                 0.000000  0.000029 -0.000000 -0.000547  0.000000  0.001604 -0.000000 -0.001432  0.000000  0.000177
                                -0.000000 -0.000027  0.000000  0.000032 -0.000075  0.000000 -0.000087  0.000106 -0.000000  0.000034
                                -0.000018  0.000000 -0.000000 -0.000003  0.000026 -0.000128 -0.000024 -0.000099 -0.000007  0.000089
                                 0.000029 -0.000025  0.000000 -0.000024 -0.000000

   8.1   2    -3.7175  -52.1467 -0.000003 -0.000007 -0.000020 -0.000045 -0.000097 -0.000196 -0.000395 -0.000800 -0.001662 -0.003535
                                -0.007572 -0.015545 -0.028281 -0.037537 -0.000071 -0.013381  0.088991  0.237021  0.121871  0.275828
                                -0.687100  0.260239 -0.869573 -0.020808 -0.084075  0.865866  0.496279  0.018937  0.019338 -0.009108
                                 0.003442 -0.000295 -0.000000 -0.000000 -0.000000 -0.000001 -0.000003 -0.000011 -0.000035 -0.000100
                                -0.000243 -0.000454 -0.000571  0.000074 -0.000185  0.001303  0.001367  0.001124  0.000564 -0.001816
                                 0.000313 -0.003767 -0.004791 -0.001543 -0.000981  0.000314  0.000242  0.000000  0.000000  0.000000
                                 0.000000  0.000001  0.000000  0.000006  0.000000  0.000014  0.000000  0.000043  0.000000  0.000039
                                 0.000000  0.000145  0.000000 -0.001060 -0.000000  0.002106  0.000000 -0.002156 -0.000000  0.002388
                                 0.000000 -0.003991 -0.000000  0.002606  0.000000 -0.001331 -0.000000 -0.000043  0.000000 -0.000490
                                -0.000000  0.000275  0.000000 -0.000084  0.000000  0.000029 -0.000000 -0.000347  0.000000 -0.000107
                                -0.000000 -0.000065 -0.000000 -0.000191 -0.000148 -0.000000 -0.000614 -0.000545 -0.000000 -0.000748
                                -0.000627  0.000000  0.000015  0.000069  0.000277  0.000761  0.002209 -0.001013 -0.000151 -0.000738
                                -0.000922  0.000202 -0.000000  0.000351 -0.000000

   9.1   2    -2.3435  -46.6611 -0.000000 -0.000000 -0.000000 -0.000001 -0.000001 -0.000002 -0.000005 -0.000010 -0.000020 -0.000044
                                -0.000093 -0.000191 -0.000348 -0.000466  0.000004 -0.000170  0.001113  0.002945  0.001556  0.003300
                                -0.008501  0.003195 -0.011898  0.000851 -0.003150  0.017646  0.005284 -0.007995 -0.000434 -0.004416
                                 0.002134  0.000970  0.000003  0.000009  0.000035  0.000123  0.000430  0.001459  0.004620  0.013188
                                 0.031834  0.060049  0.073456  0.002279  0.002695 -0.157609 -0.270785 -0.036567 -0.114660  0.293010
                                 0.049568  0.525103  0.299906  0.038245 -0.005896  0.002679  0.000066  0.000001  0.000000  0.000005
                                 0.000000  0.000030  0.000000  0.000123  0.000000  0.000374  0.000000  0.000856  0.000000  0.001270
                                 0.000000  0.001288  0.000000 -0.001453  0.000000  0.002201 -0.000000 -0.003922  0.000000 -0.000056
                                -0.000000 -0.004464  0.000000 -0.002697 -0.000000 -0.003587 -0.000000 -0.000316 -0.000000 -0.001068
                                -0.000000  0.000659 -0.000000 -0.003249 -0.000000  0.005216 -0.000000 -0.009525  0.000000 -0.003773
                                 0.000000 -0.001437  0.000000  0.000091  0.000003 -0.000000 -0.000142 -0.000001 -0.000000  0.000332
                                 0.000004 -0.000000  0.000098  0.000619  0.002606  0.005006  0.005472 -0.002628 -0.000690 -0.001965
                                -0.001804  0.000391 -0.000000  0.000613 -0.000000

  10.1   2    -0.3511  -15.8066 -0.000000 -0.000001 -0.000003 -0.000006 -0.000013 -0.000026 -0.000053 -0.000106 -0.000221 -0.000470
                                -0.001008 -0.002068 -0.003773 -0.004967 -0.000083 -0.001722  0.011899  0.032472  0.015189  0.055973
                                -0.125066  0.058282 -0.147257  0.006231 -0.010627  0.167382  0.152252  0.007753 -0.113285 -0.178159
                                -0.078002  0.012289  0.000000  0.000001  0.000003  0.000012  0.000041  0.000140  0.000444  0.001270
                                 0.003059  0.005806  0.007003  0.001165 -0.001295 -0.014336 -0.032794  0.004398 -0.016941  0.053394
                                -0.016695  0.074570  0.033158 -0.049220 -0.050980 -0.026724  0.005986  0.000011  0.000000  0.000091
                                 0.000000  0.000560  0.000000  0.002294  0.000000  0.007100  0.000000  0.015747  0.000000  0.024054
                                 0.000000  0.020389  0.000000  0.015800 -0.000000 -0.038087  0.000000  0.008352 -0.000000 -0.086114
                                -0.000000  0.036770  0.000000 -0.117428 -0.000000 -0.067607 -0.000000 -0.049678  0.000000 -0.012957
                                -0.000000 -0.003210  0.000000 -0.001954 -0.000000  0.002106  0.000000 -0.003726 -0.000000 -0.006986
                                 0.000000 -0.004709 -0.000000  0.000102  0.000035 -0.000000 -0.000061  0.000106  0.000000 -0.001891
                                -0.000293 -0.000000 -0.004459 -0.032549 -0.132775 -0.303394 -0.319738 -0.038456  0.003702  0.017636
                                 0.018674 -0.001839 -0.000000 -0.001001  0.000000

  11.1   +    -0.4777  -34.0560 -0.000000  0.000000  0.000000  0.000000  0.000000  0.000000  0.000000  0.000000  0.000000  0.000000
                                 0.000000  0.000000  0.000000  0.000000  0.000000 -0.000000 -0.000000 -0.000000  0.000000 -0.000000
                                 0.000000 -0.000000  0.000000 -0.000000  0.000000 -0.000000  0.000000  0.000000  0.000000  0.000000
                                -0.000000  0.000000  0.000000  0.000000  0.000000  0.000000  0.000000  0.000000  0.000000  0.000000
                                 0.000000  0.000000  0.000000  0.000000 -0.000000  0.000000 -0.000000  0.000000 -0.000000  0.000000
                                -0.000000  0.000000 -0.000000  0.000000  0.000000  0.000000  0.000000  0.000000 -0.000045  0.000000
                                -0.000384  0.000000 -0.002351  0.000000 -0.009646  0.000000 -0.029833  0.000000 -0.066288  0.000000
                                -0.100855  0.000000 -0.085999 -0.000000 -0.046870 -0.000000  0.126947 -0.000000  0.004362 -0.000000
                                 0.328258 -0.000000 -0.081827 -0.000000  0.449930 -0.000000  0.259131 -0.000000  0.155670 -0.000000
                                 0.042483  0.000000 -0.003526 -0.000000 -0.001728  0.000000  0.003125 -0.000000 -0.005141 -0.000000
                                -0.005093  0.000000 -0.008218 -0.000000  0.000000 -0.000934  0.000000  0.000000 -0.002491 -0.000000
                                 0.000000 -0.004151  0.000000  0.000000  0.000000  0.000000  0.000000 -0.000000  0.000000  0.000000
                                 0.000000  0.000000  0.000341 -0.000000 -0.000454

  12.1   +    -0.4234  -31.8153  0.000000  0.000001  0.000002  0.000004  0.000010  0.000019  0.000039  0.000079  0.000164  0.000349
                                 0.000748  0.001533  0.002800  0.003668  0.000091  0.001252 -0.008799 -0.024232 -0.010659 -0.049456
                                 0.106688 -0.055382  0.120341 -0.011622  0.017451 -0.143476 -0.111384  0.008051  0.121575  0.171110
                                 0.061104 -0.000184 -0.000000 -0.000000 -0.000002 -0.000005 -0.000019 -0.000064 -0.000201 -0.000574
                                -0.001389 -0.002619 -0.003218  0.000049 -0.000274  0.007212  0.011861  0.002365  0.004461 -0.015583
                                -0.002358 -0.031525 -0.010522  0.029850  0.032187  0.016777  0.000537  0.000042  0.000000  0.000359
                                 0.000000  0.002202  0.000000  0.009034  0.000000  0.027940  0.000000  0.062085  0.000000  0.094465
                                 0.000000  0.080547  0.000000  0.044123  0.000000 -0.119425 -0.000000 -0.004048 -0.000000 -0.308455
                                -0.000000  0.075124 -0.000000 -0.418368 -0.000000 -0.241613 -0.000000 -0.148417 -0.000000 -0.046616
                                -0.000000  0.006791 -0.000000  0.002341  0.000000 -0.005700  0.000000  0.008581 -0.000000  0.007676
                                 0.000000  0.011058 -0.000000 -0.000555  0.000572  0.000000 -0.000627  0.001777  0.000000  0.001973
                                 0.002722  0.000000  0.000470  0.003806  0.014548  0.046674  0.088343  0.004051  0.002628  0.001659
                                 0.005715 -0.001156  0.000000 -0.000889 -0.000000

  13.1   0    -0.0051   -9.1064 -0.000000 -0.000001 -0.000002 -0.000004 -0.000008 -0.000016 -0.000032 -0.000065 -0.000133 -0.000287
                                -0.000606 -0.001273 -0.002219 -0.003660  0.001102 -0.002072  0.008568  0.016014  0.031596 -0.222039
                                 0.348657 -0.306307  0.162731 -0.143489  0.115661 -0.003939  0.171860 -0.122582  0.158598 -0.351704
                                 0.232202 -0.850536 -0.000000 -0.000001 -0.000003 -0.000011 -0.000037 -0.000126 -0.000395 -0.001138
                                -0.002716 -0.005225 -0.006061 -0.003440  0.004694  0.009948  0.040357 -0.019764  0.026123 -0.070951
                                 0.040437 -0.076432 -0.024202  0.022806  0.181101  0.107032  0.388754  0.000005 -0.000000  0.000042
                                -0.000000  0.000257 -0.000000  0.001049 -0.000000  0.003258 -0.000000  0.007199 -0.000000  0.011064
                                -0.000000  0.009042 -0.000000  0.009963  0.000000 -0.022745 -0.000000  0.007694  0.000000 -0.044239
                                -0.000000  0.021782  0.000000 -0.060401 -0.000000 -0.023223  0.000000 -0.017483 -0.000000  0.001922
                                 0.000000 -0.051517 -0.000000  0.000559  0.000000 -0.002093 -0.000000  0.002492  0.000000  0.001423
                                -0.000000  0.006402  0.000000  0.000072  0.000151 -0.000000 -0.000006  0.000285 -0.000000 -0.000122
                                -0.000783 -0.000000  0.001100  0.008026  0.033683  0.077049  0.072041  0.100098  0.000537  0.003563
                                 0.031441  0.000246 -0.000000 -0.002324  0.000000

  14.1   0     0.0332   -4.2307 -0.000000 -0.000000 -0.000000 -0.000001 -0.000002 -0.000005 -0.000009 -0.000019 -0.000040 -0.000082
                                -0.000183 -0.000352 -0.000720 -0.000391 -0.000885  0.000470  0.001090  0.008534 -0.014158  0.202808
                                -0.342217  0.268183 -0.216781  0.112529 -0.095348  0.112381 -0.026923  0.048894 -0.059944  0.293932
                                 0.720737  3.331266  0.000000  0.000000  0.000000  0.000000  0.000000  0.000004  0.000004  0.000042
                                 0.000005  0.000300 -0.000637  0.010017 -0.014825  0.011786 -0.049340  0.070493 -0.050993  0.121832
                                -0.140346  0.063893 -0.043652  0.089679  0.097790  0.724445  1.950944 -0.000001  0.000000 -0.000009
                                 0.000000 -0.000070  0.000000 -0.000241  0.000000 -0.000897  0.000000 -0.001572  0.000000 -0.003551
                                 0.000000  0.000964  0.000000 -0.054579 -0.000000  0.100819  0.000000 -0.093536 -0.000000  0.104087
                                 0.000000 -0.161652 -0.000000  0.147282  0.000000 -0.044989 -0.000000  0.104256  0.000000 -0.059451
                                -0.000000  0.470919  0.000000 -0.000960  0.000000  0.006448 -0.000000 -0.007789  0.000000  0.002415
                                 0.000000  0.008341  0.000000  0.000220  0.000007  0.000000 -0.000754 -0.000061  0.000000  0.002002
                                -0.000263  0.000000 -0.000302 -0.003131 -0.006562 -0.036365 -0.243885 -4.293627 -0.000872  0.015646
                                 0.225174  0.000871 -0.000000 -0.030752  0.000000

                                   1 2px     1 2px     1 2px     1 2px     1 2px     1 2px     1 2px     1 2px     1 2px     1 2px  
                                   1 2px     1 2px     1 2px     1 2px     1 2px     1 2px     1 2px     1 2px     1 2px     1 2px  
                                   1 2px     1 2px     1 2px     1 2px     1 2px     1 3d1+    1 3d1+    1 3d1+    1 3d1+    1 3d1+ 
                                   1 3d1+    1 3d1+    1 3d1+    1 3d1+    1 3d1+    1 3d1+    1 3d1+    1 3d1+    1 3d1+    1 3d1+ 
                                   1 3d1+    1 3d1+    1 3d1+    1 4f1+    1 4f3+    1 4f1+    1 4f3+    1 4f1+    1 4f3+    1 4f1+ 
                                   1 4f3+    1 4f1+    1 4f3+    1 5g1+    1 5g3+    1 5g1+    1 5g3+    1 5g1+    1 5g3+    2 2px  
                                   2 2px     2 2px     2 3d1+    2 3d1+ 

   1.2   2  -113.9398 -368.2533  0.000016  0.000055  0.000203  0.000713  0.002485  0.008366  0.026118  0.072484  0.167217  0.296001
                                 0.348845  0.212923  0.000816  0.050297  0.007361 -0.004409  0.002449 -0.002286  0.001885 -0.000413
                                 0.000052 -0.000021  0.000008 -0.000004  0.000001 -0.000000 -0.000000 -0.000001 -0.000005 -0.000016
                                -0.000017 -0.000002 -0.000003  0.000012 -0.000018  0.000010 -0.000006  0.000005 -0.000003  0.000001
                                -0.000001  0.000000 -0.000000 -0.000009  0.000010 -0.000001  0.000006 -0.000002 -0.000002 -0.000001
                                 0.000002 -0.000000 -0.000000  0.000000 -0.000000 -0.000000 -0.000000 -0.000000 -0.000000 -0.000000
                                 0.000000  0.000000  0.000000 -0.000001

   2.2   2   -19.5173 -123.5946 -0.000007 -0.000025 -0.000091 -0.000320 -0.001118 -0.003788 -0.011972 -0.034025 -0.081578 -0.152263
                                -0.185065 -0.030100 -0.003676  0.296800  0.488173  0.012002  0.284235  0.039792  0.007156  0.000493
                                 0.000836 -0.000081  0.000057 -0.000029  0.000009 -0.000000 -0.000001 -0.000005 -0.000020 -0.000057
                                -0.000139 -0.000246 -0.000337 -0.000388  0.000210 -0.000090  0.000013  0.000008 -0.000024 -0.000006
                                -0.000009 -0.000007 -0.000000 -0.000265  0.000240  0.000908 -0.000837 -0.000693  0.000607  0.000097
                                -0.000095 -0.000024  0.000014  0.000010  0.000000 -0.000015  0.000001  0.000003  0.000001  0.000000
                                -0.000002  0.000012  0.000005 -0.000004

   3.2   2   -12.2601 -111.7853 -0.000000 -0.000000 -0.000000 -0.000000 -0.000001 -0.000004 -0.000011 -0.000032 -0.000077 -0.000144
                                -0.000177 -0.000004 -0.000024  0.000345  0.000559 -0.000038  0.000135 -0.000016  0.000022 -0.000026
                                -0.000029 -0.000010 -0.000016 -0.000004  0.000001  0.000149  0.001274  0.007719  0.031719  0.096210
                                 0.214060  0.329676  0.338680  0.195497 -0.017298  0.034369  0.018391 -0.006817  0.005658 -0.000510
                                 0.000190 -0.000065  0.000014 -0.000529  0.000001  0.001495  0.000002 -0.001311  0.000000  0.000134
                                 0.000001 -0.000050  0.000000 -0.000015  0.000046 -0.000010 -0.000066 -0.000006  0.000011  0.000002
                                -0.000003  0.000026  0.000003 -0.000006

   4.2   2    -2.3459  -46.6330  0.000003  0.000009  0.000035  0.000123  0.000430  0.001458  0.004617  0.013178  0.031809  0.060004
                                 0.073392  0.002380  0.002550 -0.157350 -0.270991 -0.035783 -0.115309  0.294507  0.046841  0.525133
                                 0.301667  0.040054 -0.003276  0.001651 -0.000490  0.000000  0.000002  0.000012  0.000050  0.000154
                                 0.000349  0.000542  0.000487  0.000668 -0.001133  0.000363 -0.001778  0.001829 -0.004472 -0.002379
                                -0.000184 -0.000042  0.000002  0.001635 -0.002404 -0.001892  0.003375  0.003925 -0.006443  0.001694
                                -0.002929  0.000770 -0.000946  0.000032  0.000016 -0.000229  0.000013 -0.000029  0.000084  0.000138
                                 0.000237  0.000139 -0.000146  0.000038

   5.2   2    -0.4180  -33.6070  0.000000  0.000000  0.000001  0.000002  0.000008  0.000027  0.000085  0.000241  0.000584  0.001100
                                 0.001354 -0.000053  0.000158 -0.003068 -0.004964 -0.001103 -0.001750  0.007289  0.000089  0.013847
                                 0.004035 -0.020563 -0.013171  0.000386 -0.000291 -0.000044 -0.000378 -0.002320 -0.009514 -0.029437
                                -0.065376 -0.099516 -0.084769 -0.046608  0.127949  0.003039  0.325936 -0.084973  0.443954  0.254396
                                 0.169183  0.057969 -0.003187 -0.002275  0.000025  0.004573 -0.000056 -0.007181  0.000104 -0.006592
                                 0.000081 -0.009812  0.000139 -0.000125 -0.000143 -0.000357 -0.000093 -0.000927 -0.000505  0.001759
                                 0.006333 -0.002203 -0.001186  0.000261

   6.2   0     0.0222   -5.5428 -0.000000 -0.000000 -0.000002 -0.000006 -0.000020 -0.000072 -0.000211 -0.000662 -0.001419 -0.003217
                                -0.002079 -0.018552  0.027231 -0.014479  0.102636 -0.126498  0.096752 -0.229598  0.239200 -0.133219
                                 0.038155 -0.059009  0.241560 -0.351021  1.165091 -0.000001 -0.000009 -0.000048 -0.000228 -0.000604
                                -0.001631 -0.001685 -0.004158  0.035532 -0.063779  0.064322 -0.057650  0.107709 -0.082751  0.038858
                                -0.029756  0.038467 -0.165501 -0.000345 -0.000020  0.001900 -0.000231 -0.002306  0.000162  0.000133
                                 0.000111 -0.003273  0.000719  0.000010  0.000007 -0.000017  0.000031  0.000130 -0.000002  0.001121
                                 0.001544  0.012991 -0.000431 -0.000274

   7.2   0     0.0769   -7.7734 -0.000000 -0.000001 -0.000004 -0.000013 -0.000047 -0.000146 -0.000512 -0.001292 -0.003638 -0.005326
                                -0.011858  0.052991 -0.078879  0.081034 -0.226414  0.373469 -0.251547  0.569345 -0.699972  0.218628
                                -0.208840  0.283252 -0.418725  1.838895 -1.284829 -0.000002 -0.000020 -0.000113 -0.000501 -0.001425
                                -0.003514 -0.004387 -0.007011  0.041790 -0.073897  0.077789 -0.061890  0.128881 -0.090405  0.056149
                                -0.041739  0.037906 -0.317041 -0.000538 -0.000044  0.002134 -0.000458 -0.002773  0.000311 -0.000561
                                 0.000319 -0.010094  0.001649 -0.000150  0.000016  0.000606  0.000073 -0.001293 -0.000013  0.000436
                                 0.012009  0.011351  0.000437 -0.008809

                                   1 2py     1 2py     1 2py     1 2py     1 2py     1 2py     1 2py     1 2py     1 2py     1 2py  
                                   1 2py     1 2py     1 2py     1 2py     1 2py     1 2py     1 2py     1 2py     1 2py     1 2py  
                                   1 2py     1 2py     1 2py     1 2py     1 2py     1 3d1-    1 3d1-    1 3d1-    1 3d1-    1 3d1- 
                                   1 3d1-    1 3d1-    1 3d1-    1 3d1-    1 3d1-    1 3d1-    1 3d1-    1 3d1-    1 3d1-    1 3d1- 
                                   1 3d1-    1 3d1-    1 3d1-    1 4f1-    1 4f3-    1 4f1-    1 4f3-    1 4f1-    1 4f3-    1 4f1- 
                                   1 4f3-    1 4f1-    1 4f3-    1 5g1-    1 5g3-    1 5g1-    1 5g3-    1 5g1-    1 5g3-    2 2py  
                                   2 2py     2 2py     2 3d1-    2 3d1- 

   1.3   2  -113.9398 -368.2533  0.000016  0.000055  0.000203  0.000713  0.002485  0.008366  0.026118  0.072484  0.167217  0.296001
                                 0.348845  0.212923  0.000816  0.050297  0.007361 -0.004409  0.002449 -0.002286  0.001885 -0.000413
                                 0.000052 -0.000021  0.000008 -0.000004  0.000001 -0.000000 -0.000000 -0.000001 -0.000005 -0.000016
                                -0.000017 -0.000002 -0.000003  0.000012 -0.000018  0.000010 -0.000006  0.000005 -0.000003  0.000001
                                -0.000001  0.000000 -0.000000 -0.000009 -0.000010 -0.000001 -0.000006 -0.000002  0.000002 -0.000001
                                -0.000002 -0.000000  0.000000  0.000000  0.000000 -0.000000  0.000000 -0.000000  0.000000 -0.000000
                                 0.000000  0.000000  0.000000 -0.000001

   2.3   2   -19.5173 -123.5946 -0.000007 -0.000025 -0.000091 -0.000320 -0.001118 -0.003788 -0.011972 -0.034025 -0.081578 -0.152263
                                -0.185065 -0.030100 -0.003676  0.296800  0.488173  0.012002  0.284235  0.039792  0.007156  0.000493
                                 0.000836 -0.000081  0.000057 -0.000029  0.000009 -0.000000 -0.000001 -0.000005 -0.000020 -0.000057
                                -0.000139 -0.000246 -0.000337 -0.000388  0.000210 -0.000090  0.000013  0.000008 -0.000024 -0.000006
                                -0.000009 -0.000007 -0.000000 -0.000265 -0.000240  0.000908  0.000837 -0.000693 -0.000607  0.000097
                                 0.000095 -0.000024 -0.000014  0.000010 -0.000000 -0.000015 -0.000001  0.000003 -0.000001  0.000000
                                -0.000002  0.000012  0.000005 -0.000004

   3.3   2   -12.2601 -111.7853 -0.000000 -0.000000 -0.000000 -0.000000 -0.000001 -0.000004 -0.000011 -0.000032 -0.000077 -0.000144
                                -0.000177 -0.000004 -0.000024  0.000345  0.000559 -0.000038  0.000135 -0.000016  0.000022 -0.000026
                                -0.000029 -0.000010 -0.000016 -0.000004  0.000001  0.000149  0.001274  0.007719  0.031719  0.096210
                                 0.214060  0.329676  0.338680  0.195497 -0.017298  0.034369  0.018391 -0.006817  0.005658 -0.000510
                                 0.000190 -0.000065  0.000014 -0.000529 -0.000001  0.001495 -0.000002 -0.001311 -0.000000  0.000134
                                -0.000001 -0.000050 -0.000000 -0.000015 -0.000046 -0.000010  0.000066 -0.000006 -0.000011  0.000002
                                -0.000003  0.000026  0.000003 -0.000006

   4.3   2    -2.3459  -46.6330  0.000003  0.000009  0.000035  0.000123  0.000430  0.001458  0.004617  0.013178  0.031809  0.060004
                                 0.073392  0.002380  0.002550 -0.157350 -0.270991 -0.035783 -0.115309  0.294507  0.046841  0.525133
                                 0.301667  0.040054 -0.003276  0.001651 -0.000490  0.000000  0.000002  0.000012  0.000050  0.000154
                                 0.000349  0.000542  0.000487  0.000668 -0.001133  0.000363 -0.001778  0.001829 -0.004472 -0.002379
                                -0.000184 -0.000042  0.000002  0.001635  0.002404 -0.001892 -0.003375  0.003925  0.006443  0.001694
                                 0.002929  0.000770  0.000946  0.000032 -0.000016 -0.000229 -0.000013 -0.000029 -0.000084  0.000138
                                 0.000237  0.000139 -0.000146  0.000038

   5.3   2    -0.4180  -33.6070  0.000000  0.000000  0.000001  0.000002  0.000008  0.000027  0.000085  0.000241  0.000584  0.001100
                                 0.001354 -0.000053  0.000158 -0.003068 -0.004964 -0.001103 -0.001750  0.007289  0.000089  0.013847
                                 0.004035 -0.020563 -0.013171  0.000386 -0.000291 -0.000044 -0.000378 -0.002320 -0.009514 -0.029437
                                -0.065376 -0.099516 -0.084769 -0.046608  0.127949  0.003039  0.325936 -0.084973  0.443954  0.254396
                                 0.169183  0.057969 -0.003187 -0.002275 -0.000025  0.004573  0.000056 -0.007181 -0.000104 -0.006592
                                -0.000081 -0.009812 -0.000139 -0.000125  0.000143 -0.000357  0.000093 -0.000927  0.000505  0.001759
                                 0.006333 -0.002203 -0.001186  0.000261

   6.3   0     0.0222   -5.5428 -0.000000 -0.000000 -0.000002 -0.000006 -0.000020 -0.000072 -0.000211 -0.000662 -0.001419 -0.003217
                                -0.002079 -0.018552  0.027231 -0.014479  0.102636 -0.126498  0.096752 -0.229598  0.239200 -0.133219
                                 0.038155 -0.059009  0.241560 -0.351021  1.165091 -0.000001 -0.000009 -0.000048 -0.000228 -0.000604
                                -0.001631 -0.001685 -0.004158  0.035532 -0.063779  0.064322 -0.057650  0.107709 -0.082751  0.038858
                                -0.029756  0.038467 -0.165501 -0.000345  0.000020  0.001900  0.000231 -0.002306 -0.000162  0.000133
                                -0.000111 -0.003273 -0.000719  0.000010 -0.000007 -0.000017 -0.000031  0.000130  0.000002  0.001121
                                 0.001544  0.012991 -0.000431 -0.000274

   7.3   0     0.0769   -7.7734 -0.000000 -0.000001 -0.000004 -0.000013 -0.000047 -0.000146 -0.000512 -0.001292 -0.003638 -0.005326
                                -0.011858  0.052991 -0.078879  0.081034 -0.226414  0.373469 -0.251547  0.569345 -0.699972  0.218628
                                -0.208840  0.283252 -0.418725  1.838895 -1.284829 -0.000002 -0.000020 -0.000113 -0.000501 -0.001425
                                -0.003514 -0.004387 -0.007011  0.041790 -0.073897  0.077789 -0.061890  0.128881 -0.090405  0.056149
                                -0.041739  0.037906 -0.317041 -0.000538  0.000044  0.002134  0.000458 -0.002773 -0.000311 -0.000561
                                -0.000319 -0.010094 -0.001649 -0.000150 -0.000016  0.000606 -0.000073 -0.001293  0.000013  0.000436
                                 0.012009  0.011351  0.000437 -0.008809

                                   1 3d2-    1 3d2-    1 3d2-    1 3d2-    1 3d2-    1 3d2-    1 3d2-    1 3d2-    1 3d2-    1 3d2- 
                                   1 3d2-    1 3d2-    1 3d2-    1 3d2-    1 3d2-    1 3d2-    1 3d2-    1 3d2-    1 4f2-    1 4f2- 
                                   1 4f2-    1 4f2-    1 4f2-    1 5g2-    1 5g4-    1 5g2-    1 5g4-    1 5g2-    1 5g4-    2 3d2- 
                                   2 3d2- 

   1.4   2   -12.2618 -111.7849  0.000149  0.001274  0.007719  0.031718  0.096208  0.214056  0.329667  0.338683  0.195576 -0.017379
                                 0.034389  0.018370 -0.006802  0.005658 -0.000502  0.000193 -0.000051  0.000015 -0.000500  0.001446
                                -0.001241  0.000127 -0.000041 -0.000070 -0.000000  0.000080  0.000000 -0.000020 -0.000000 -0.000001
                                 0.000008

   2.4   2    -0.4227  -33.6799 -0.000045 -0.000379 -0.002326 -0.009538 -0.029508 -0.065535 -0.099753 -0.084978 -0.046706  0.128192
                                 0.003030  0.326860 -0.086638  0.446830  0.255763  0.168579  0.053073 -0.003417 -0.001778  0.003711
                                -0.005718 -0.004754 -0.010004  0.000042 -0.000000  0.000078 -0.000000 -0.000674  0.000000  0.000340
                                -0.000112

   3.4   0     0.0868   -5.7703  0.000002  0.000033  0.000134  0.000816  0.001661  0.006113  0.002620  0.025107 -0.303930  0.550910
                                -0.540272  0.523196 -0.918049  0.750977 -0.299162  0.281013 -0.467295  1.244134 -0.000625  0.006327
                                -0.007160  0.003966 -0.005908  0.000023  0.000000  0.000091  0.000000  0.000084 -0.000000  0.000240
                                -0.001046

   4.4   0     0.2871   -9.3132 -0.000014 -0.000076 -0.000678 -0.001977 -0.008737 -0.012066 -0.038612  0.036856 -0.947459  1.742208
                                -1.651621  1.767875 -2.895165  2.566237 -0.839805  1.038152 -1.948093  0.920016  0.002628 -0.024460
                                 0.028045 -0.014910  0.027345 -0.000187 -0.000000  0.000098 -0.000000 -0.001054  0.000000 -0.003501
                                 0.019639

 HOMO      5.2    -0.417980 =     -11.3738eV
 LUMO     13.1    -0.005101 =      -0.1388eV
 LUMO-HOMO         0.412878 =      11.2350eV


 **********************************************************************************************************************************
 DATASETS  * FILE   NREC   LENGTH (MB)   RECORD NAMES
              1      22       21.63       500      610      700      900      950      970     1000      129      960     1700   
                                          VAR    BASINP    GEOM    SYMINP    ZMAT    AOBASIS   BASIS     P2S    ABASIS    OPER   
                                         1101     1401     1411     1412     1650     1100     1400     1410     1200     1210   
                                          SR      EKINR    POTR     PVPR    MOLCAS      S      EKIN      POT      H0       H01  
                                         1080     1600   
                                         AOSYM     SMH  

              2       4        3.50       700     1000      520     2100   
                                         GEOM     BASIS   MCVARS     RHF  

 PROGRAMS   *        TOTAL       RHF       INT
 CPU TIMES  *        43.55      2.56     40.67
 REAL TIME  *        46.22 SEC
 DISK USED  *         2.51 GB      
 SF USED    *         0.10 MB      
 GA USED    *         0.00 MB       (max)       0.00 MB       (current)
 **********************************************************************************************************************************
 SETTING SCF            =     -4781.81673985  AU                              
 SETTING _CC_NORM_MAX   =         2.00000000                                  


 PROGRAM * CCSD (Restricted open-shell coupled cluster)     Authors: C. Hampel, H.-J. Werner, 1991, M. Deegan, P.J. Knowles, 1992


 Convergence thresholds:  THRVAR = 1.00D-08  THRDEN = 1.00D-06

 CCSD(T)     terms to be evaluated (factor= 1.000)


 Number of closed-shell orbitals:  22 (  10   5   5   2 )
 Number of active  orbitals:        2 (   2   0   0   0 )
 Number of external orbitals:     260 ( 113  59  59  29 )

 Memory could be reduced to 192.82 Mwords without degradation in triples

 Number of N-1 electron functions:              46
 Number of N-2 electron functions:            1035
 Number of singly external CSFs:              3826
 Number of doubly external CSFs:          13796463
 Total number of CSFs:                    13800289

 Molecular orbitals read from record     2100.2  Type=RHF/CANONICAL (state 1.1)

 Integral transformation finished. Total CPU:   5.75 sec, npass=  1  Memory used:  20.59 MW

 Starting RMP2 calculation

 Wavefunction is spin-projected

 ITER.      SQ.NORM     CORR.ENERGY   TOTAL ENERGY   ENERGY CHANGE        DEN1      VAR(S)    VAR(P)  DIIS     TIME
   1      1.14099405    -1.51112671 -4783.32786656    -1.51112671    -0.00596495  0.47D-04  0.20D-02  1  1     7.98
   2      1.14684695    -1.51780542 -4783.33454527    -0.00667871    -0.00010428  0.43D-05  0.57D-04  2  2    10.93
   3      1.14787283    -1.51842905 -4783.33516890    -0.00062363    -0.00000332  0.50D-06  0.19D-05  3  3    14.00
   4      1.14799630    -1.51846227 -4783.33520212    -0.00003322    -0.00000015  0.54D-07  0.65D-07  4  4    18.13
   5      1.14800764    -1.51846450 -4783.33520435    -0.00000223    -0.00000001  0.41D-08  0.17D-08  5  5    24.51
   6      1.14800838    -1.51846453 -4783.33520438    -0.00000003    -0.00000000  0.28D-09  0.60D-10  6  6    29.13

 Norm of t1 vector:      0.03964503      S-energy:    -0.00507879      T1 diagnostic:  0.00047147
 Norm of t2 vector:      0.38267042      P-energy:    -1.51338575
                                         Alpha-Beta:  -1.02595711
                                         Alpha-Alpha: -0.26931571
                                         Beta-Beta:   -0.21811292

 Spin contamination <S**2-Sz**2-Sz>     0.00000000
  Reference energy                  -4781.816739848120
  RHF-RMP2 correlation energy          -1.518464534499
 !RHF-RMP2 energy                   -4783.335204382619
 (NB above energy spin projected)

 Starting RCCSD calculation

 ITER.      SQ.NORM     CORR.ENERGY   TOTAL ENERGY   ENERGY CHANGE        DEN1      VAR(S)    VAR(P)  DIIS     TIME
   1      1.12591028    -1.43746058 -4783.25420043    -1.43746058    -0.01977853  0.19D-02  0.28D-02  0  0    46.56
   2      1.13953453    -1.45555227 -4783.27229212    -0.01809169    -0.00222630  0.67D-03  0.60D-03  1  1    65.04
   3      1.14776343    -1.45772326 -4783.27446311    -0.00217099    -0.00091392  0.52D-03  0.19D-03  2  2    84.14
   4      1.16285295    -1.46167188 -4783.27841173    -0.00394862    -0.00031934  0.24D-03  0.41D-04  3  3   102.53
   5      1.17893003    -1.46329788 -4783.28003773    -0.00162600    -0.00011061  0.80D-04  0.16D-04  4  4   120.68
   6      1.19137690    -1.46415561 -4783.28089546    -0.00085773    -0.00004019  0.27D-04  0.68D-05  5  5   139.00
   7      1.19819825    -1.46448872 -4783.28122857    -0.00033311    -0.00001463  0.11D-04  0.20D-05  6  6   157.90
   8      1.20295005    -1.46470866 -4783.28144850    -0.00021994    -0.00000473  0.35D-05  0.62D-06  7  7   176.13
   9      1.20482844    -1.46478739 -4783.28152724    -0.00007874    -0.00000166  0.12D-05  0.26D-06  8  8   194.87
  10      1.20578719    -1.46483010 -4783.28156995    -0.00004271    -0.00000054  0.36D-06  0.97D-07  9  9   217.95
  11      1.20608004    -1.46484225 -4783.28158210    -0.00001215    -0.00000020  0.13D-06  0.38D-07 10 10   236.58
  12      1.20614605    -1.46484403 -4783.28158388    -0.00000178    -0.00000007  0.46D-07  0.15D-07 11 11   258.04
  13      1.20613243    -1.46484213 -4783.28158197     0.00000190    -0.00000004  0.24D-07  0.82D-08 12 12   276.54
  14      1.20615007    -1.46484225 -4783.28158210    -0.00000013    -0.00000002  0.10D-07  0.37D-08 13 13   295.17
  15      1.20613509    -1.46484063 -4783.28158048     0.00000162    -0.00000001  0.39D-08  0.13D-08 14 14   314.56
  16      1.20613666    -1.46484057 -4783.28158042     0.00000006    -0.00000000  0.29D-08  0.95D-09 15 15   338.20

 Norm of t1 vector:      0.22732302      S-energy:    -0.00531999      T1 diagnostic:  0.02272422
                                                                       D1 diagnostic:  0.09687039
 Norm of t2 vector:      0.39301515      P-energy:    -1.45952059
                                         Alpha-Beta:  -1.01388776
                                         Alpha-Alpha: -0.24432505
                                         Beta-Beta:   -0.20130778

 Singles amplitudes (print threshold =  0.500E-01):

         I         SYM. A    A   T(IA) [Alpha-Alpha]

        10         1         3      0.08330085
        10         1         5     -0.06901945
        10         1         9     -0.05487326
        12         1         3     -0.07043859
        12         1         5      0.05576829
 
         I         SYM. A    A   T(IA) [Beta-Beta]

        10         1         2      0.12122557

 Spin contamination <S**2-Sz**2-Sz>     0.00000000

 Memory could be reduced to 215.22 Mwords without degradation in triples
 

  Correlated core orbitals:             1.1       2.1       3.1       4.1       5.1       6.1       7.1       8.1       9.1       1.2
                                        2.2       3.2       4.2       1.3       2.3       3.3       4.3       1.4
  Orbital energies:                  -857.7984 -127.3785 -113.9474  -24.0608  -19.5229  -12.2742  -12.2707   -3.7741   -2.4114 -113.9493
                                      -19.5230  -12.2645   -2.4188 -113.9493  -19.5230  -12.2645   -2.4188  -12.2650
 
  RCCSD core-core energy               -0.877777491586
  RCCSD core-valence energy            -0.300918010827
  RCCSD valence correlation energy     -0.286145071745
 

 RESULTS
 =======

  Reference energy                  -4781.816739848120
  RCCSD singles energy                 -0.005319986498
  RCCSD pair energy                    -1.459520587660
  RCCSD correlation energy             -1.464840574158
  Triples (T) contribution             -0.030515982755
  Total correlation energy             -1.495356556913
 
  RHF-RCCSD energy                  -4783.281580422278
  RHF-RCCSD[T] energy               -4783.314389043603
  RHF-RCCSD-T energy                -4783.311835779475
 !RHF-RCCSD(T) energy               -4783.312096405033

 Program statistics:

 Available memory in ccsd:               999995052
 Min. memory needed in ccsd:              38205215
 Max. memory used in ccsd:                55951831
 Max. memory used in cckext:              45249821 (16 integral passes)
 Max. memory used in cckint:              20586002 ( 1 integral passes)



 **********************************************************************************************************************************
 DATASETS  * FILE   NREC   LENGTH (MB)   RECORD NAMES
              1      22       21.63       500      610      700      900      950      970     1000      129      960     1700   
                                          VAR    BASINP    GEOM    SYMINP    ZMAT    AOBASIS   BASIS     P2S    ABASIS    OPER   
                                         1101     1401     1411     1412     1650     1100     1400     1410     1200     1210   
                                          SR      EKINR    POTR     PVPR    MOLCAS      S      EKIN      POT      H0       H01  
                                         1080     1600   
                                         AOSYM     SMH  

              2       4        3.50       700     1000      520     2100   
                                         GEOM     BASIS   MCVARS     RHF  

 PROGRAMS   *        TOTAL  RCCSD(T)       RHF       INT
 CPU TIMES  *       739.85    696.23      2.56     40.67
 REAL TIME  *      1190.36 SEC
 DISK USED  *        50.72 GB      
 SF USED    *         4.17 GB      
 GA USED    *         0.00 MB       (max)       0.00 MB       (current)
 **********************************************************************************************************************************
 SETTING CCSD           =     -4783.31209641  AU                              
 SETTING BIND           =        -0.08900856  AU                              
 Output type csv         
                                                                                                                                                                                                                                                                

  1.90,SCF,CCSD,BIND
   1.9,   -4781.816740,   -4783.312096,   -0.08900856
                                                  

 RCCSD(T)/USERDEF energy=  -4783.312096405033

        RCCSD(T)        RHF-SCF 
  -4783.31209641  -4781.81673985
 **********************************************************************************************************************************
 Molpro calculation terminated
 Variable memory released
