
 Primary working directories    : /global/cscratch1/sd/haihan
 Secondary working directories  : /global/cscratch1/sd/haihan
 Wavefunction directory         : /global/homes/h/haihan/wfu/
 Main file repository           : /global/cscratch1/sd/haihan/

 SHA1      : 19cd028119e0e09f93f0674bd8af7968d9b3eff6
 NAME      : 2015.1.36
 ARCHNAME  : linux/x86_64
 FC        : /opt/cray/pe/craype/2.5.14/bin/ftn
 BLASLIB   : -L/opt/intel/compilers_and_libraries_2018.1.163/linux/mkl/lib/intel64 -Wl,-_start-group -lmkl_intel_ilp64 -lmkl_intel_thread -lmkl_core -Wl,-_end-group -liomp5
 id        : lbl

 Nodes     nprocs
 nid00011    11
 Number of processes for MPI-2 version of Molpro:   nprocs(total)=   12   nprocs(compute)=   11   nprocs(helper)=    1

 Using customized tuning parameters: mindgm=7; mindgv=16; mindgc=1; mindgr=1; noblas=0; minvec=7
 default implementation of scratch files=sf  

 ***,Calculation for Y atom, singlet and triplet
 memory,512,m
 
 set,dkroll=1,dkho=10,dkhp=2
 
 geometry={
 1
 Y
 Y  0.0 0.0 0.0
 }
 
 basis={
 Including file /global/u2/h/haihan/Research/ECP/f_group_element_ecps/Y/Molpro/uc/aug-cc-pwCVTZ.basis
 }
 
 
 
 Including file /global/u2/h/haihan/Research/ECP/f_group_element_ecps/Y/Molpro/uc/states.proc
 
 
 do i=1,15
     if (i.eq.1) then
         Id1s2
     else if (i.eq.2) then
         Is2p1
     else if (i.eq.3) then
         EAd2s2
     else if (i.eq.4) then
         IIds2
     else if (i.eq.5) then
         IId1s1
     else if (i.eq.6) then
         IIId1s
     else if (i.eq.7) then
         IIIp1s
     else if (i.eq.8) then
         IIIsf1
     else if (i.eq.9) then
         IVd
     else if (i.eq.10) then
         Vp5
     else if (i.eq.11) then
         VIp4
     else if (i.eq.12) then
         VIIp3
     else if (i.eq.13) then
         VIIIp2
     else if (i.eq.14) then
         IXp1
     else if (i.eq.15) then
         Xp
     endif
     scf(i)=energy
     _CC_NORM_MAX=2.0
     {rccsd(t),maxit=100;core,5,2,2,1,2,1,1}
     ccsd(i)=energy
 enddo
 
 table,scf,ccsd
 type,csv
 save
 

 Variables initialized (889), CPU time= 0.01 sec
 Commands  initialized (702), CPU time= 0.01 sec, 572 directives.
 Default parameters read. Elapsed time= 0.22 sec

 Checking input...
 Passed
1


                                         ***  PROGRAM SYSTEM MOLPRO  ***
                                       Copyright, TTI GmbH Stuttgart, 2015
                                    Version 2015.1 linked Dec 29 2018 15:55:43


 **********************************************************************************************************************************
 LABEL *   Calculation for Y atom, singlet and triplet                                   
  64 bit mpp version                                                                     DATE: 25-Aug-22          TIME: 14:49:09  
 **********************************************************************************************************************************

 SHA1:             19cd028119e0e09f93f0674bd8af7968d9b3eff6
 **********************************************************************************************************************************
 SETTING DKROLL         =         1.00000000                                  
 SETTING DKHO           =        10.00000000                                  
 SETTING DKHP           =         2.00000000                                  

Geometry recognized as XYZ


 Variable memory set to  512000000 words,  buffer space   230000 words

 SETTING BASIS          =    USERDEF

 DO I                   =         1.00000000   

 Running procedure=ID1S2


 Recomputing integrals since basis changed


 Using spherical harmonics



 PROGRAM * SEWARD (Integral evaluation for generally contracted gaussian basis sets)     Author: Roland Lindh, 1990

 Geometry written to block  1 of record 700

 Orientation using atomic masses  
 Molecule type: Atom
 Symmetry elements: X,Y,Z
 Rotational constants:       0.0000000      0.0000000      0.0000000 GHz  (calculated with average atomic masses)

 Point group  D2h 



 ATOMIC COORDINATES

 NR  ATOM    CHARGE       X              Y              Z

   1  Y      39.00    0.000000000    0.000000000    0.000000000

 NUCLEAR CHARGE:                   39
 NUMBER OF PRIMITIVE AOS:         314
 NUMBER OF SYMMETRY AOS:          264
 NUMBER OF CONTRACTIONS:          264   (  80Ag  +  34B3u +  34B2u +  26B1g +  34B1u +  26B2g +  26B3g +   4Au  )
 NUMBER OF CORE ORBITALS:          18   (   6Ag  +   3B3u +   3B2u +   1B1g +   3B1u +   1B2g +   1B3g +   0Au  )
 NUMBER OF VALENCE ORBITALS:        6   (   3Ag  +   0B3u +   0B2u +   1B1g +   0B1u +   1B2g +   1B3g +   0Au  )


 NUCLEAR REPULSION ENERGY    0.00000000

 One-electron integrals computed with SEWARD

 10nd-order Douglas-Kroll-Hess method activated. Exponential DKH parametrization is used.

 Computing Douglas-Kroll / X2C integrals

 AO integral compression algorithm  1   Integral accuracy      1.0D-11

     434.897 MB (compressed) written to integral file ( 32.3%)

     Node minimum: 17.039 MB, node maximum: 73.400 MB


 NUMBER OF SORTED TWO-ELECTRON INTEGRALS:    7290993.     BUFFER LENGTH:  32768
 NUMBER OF SEGMENTS:   1  SEGMENT LENGTH:    7290993      RECORD LENGTH: 524288

 Memory used in sort:       7.85 MW

 SORT1 READ   168200834. AND WROTE     4265846. INTEGRALS IN     13 RECORDS. CPU TIME:     2.78 SEC, REAL TIME:     2.92 SEC
 SORT2 READ    46914597. AND WROTE    80405938. INTEGRALS IN   3080 RECORDS. CPU TIME:     0.20 SEC, REAL TIME:     0.37 SEC

 Node minimum:     7281205.  Node maximum:     7391951. integrals

 OPERATOR DM      FOR CENTER  0  COORDINATES:    0.000000    0.000000    0.000000

 EXTRA SYMMETRY OF AOS IN SYMMETRY 1:   1 1 1 1 1 1 1 1 1 1   1 1 1 1 1 1 1 1 1 1   1 1 1 1 1 1 1 1 1 1   1 2 3 2 3 2 3 2 3 2
                                        3 2 3 2 3 2 3 2 3 2   3 2 3 2 3 2 3 2 3 2   3 2 3 2 3 2 3 2 3 2   3 4 5 6 4 5 6 4 5 6
 EXTRA SYMMETRY OF AOS IN SYMMETRY 2:   1 1 1 1 1 1 1 1 1 1   1 1 1 1 1 1 1 1 1 1   1 1 1 1 1 1 2 3 2 3   2 3 2 3
 EXTRA SYMMETRY OF AOS IN SYMMETRY 3:   1 1 1 1 1 1 1 1 1 1   1 1 1 1 1 1 1 1 1 1   1 1 1 1 1 1 2 3 2 3   2 3 2 3
 EXTRA SYMMETRY OF AOS IN SYMMETRY 4:   1 1 1 1 1 1 1 1 1 1   1 1 1 1 1 1 1 1 1 1   2 3 2 3 2 3
 EXTRA SYMMETRY OF AOS IN SYMMETRY 5:   1 1 1 1 1 1 1 1 1 1   1 1 1 1 1 1 1 1 1 1   1 1 1 1 1 1 2 3 2 3   2 3 2 3
 EXTRA SYMMETRY OF AOS IN SYMMETRY 6:   1 1 1 1 1 1 1 1 1 1   1 1 1 1 1 1 1 1 1 1   2 3 2 3 2 3
 EXTRA SYMMETRY OF AOS IN SYMMETRY 7:   1 1 1 1 1 1 1 1 1 1   1 1 1 1 1 1 1 1 1 1   2 3 2 3 2 3

 Eigenvalues of metric

         1 0.107E-06 0.136E-05 0.394E-05 0.168E-04 0.168E-04 0.215E-04 0.686E-04 0.686E-04
         2 0.189E-06 0.268E-05 0.145E-04 0.145E-03 0.795E-03 0.200E-02 0.414E-02 0.903E-02
         3 0.189E-06 0.268E-05 0.145E-04 0.145E-03 0.795E-03 0.200E-02 0.414E-02 0.903E-02
         4 0.168E-04 0.686E-04 0.167E-03 0.105E-02 0.382E-02 0.798E-02 0.224E-01 0.452E-01
         5 0.189E-06 0.268E-05 0.145E-04 0.145E-03 0.795E-03 0.200E-02 0.414E-02 0.903E-02
         6 0.168E-04 0.686E-04 0.167E-03 0.105E-02 0.382E-02 0.798E-02 0.224E-01 0.452E-01
         7 0.168E-04 0.686E-04 0.167E-03 0.105E-02 0.382E-02 0.798E-02 0.224E-01 0.452E-01
         8 0.277E+00 0.612E+00 0.125E+01 0.186E+01


 **********************************************************************************************************************************
 DATASETS  * FILE   NREC   LENGTH (MB)   RECORD NAMES
              1      22       20.78       500      610      700      900      950      970     1000      129      960     1700   
                                          VAR    BASINP    GEOM    SYMINP    ZMAT    AOBASIS   BASIS     P2S    ABASIS    OPER   
                                         1101     1401     1411     1412     1650     1100     1400     1410     1200     1210   
                                          SR      EKINR    POTR     PVPR    MOLCAS      S      EKIN      POT      H0       H01  
                                         1080     1600   
                                         AOSYM     SMH  

 PROGRAMS   *        TOTAL       INT
 CPU TIMES  *        39.97     39.73
 REAL TIME  *        41.86 SEC
 DISK USED  *         1.01 GB      
 GA USED    *         0.00 MB       (max)       0.00 MB       (current)
 **********************************************************************************************************************************


 PROGRAM * RHF-SCF (OPEN SHELL)       Authors: W. Meyer, H.-J. Werner


 NUMBER OF ELECTRONS:      20+   19-    SPACE SYMMETRY=1    SPIN SYMMETRY: Doublet 
 CONVERGENCE THRESHOLDS:    1.00E-05 (Density)    1.00E-07 (Energy)
 MAX. NUMBER OF ITERATIONS:       60
 INTERPOLATION TYPE:            DIIS
 INTERPOLATION STEPS:              2 (START)      1 (STEP)
 LEVEL SHIFTS:                 -0.60 (CLOSED) -0.30 (OPEN) 

 Number of closed-shell orbitals:   19 (   7   3   3   1   3   1   1   0 )
 Number of open-shell orbitals:      1 (   1   0   0   0   0   0   0   0 )


 
 Extra symmetries of mos in symmetry 1:   1   1   1   3   2   1   1   3   2
 Orbital guess generated from atomic densities. Full valence occupancy:    9   3   3   2   3   2   2   0


 Molecular orbital dump at record        4202.2

 ITERATION    DDIFF          GRAD             ENERGY        2-EL.EN.            DIPOLE MOMENTS         DIIS   ORB.
    1      0.000D+00      0.000D+00     -3382.67643646   2542.993690    0.00000    0.00000    0.00000    0    start
    2      0.000D+00      0.746D-02     -3382.77159306   2558.753947    0.00000    0.00000    0.00000    1    diag,B
    3      0.751D-01      0.401D-02     -3382.81962894   2563.021955    0.00000    0.00000    0.00000    2    diag,B
    4      0.475D-01      0.224D-02     -3382.86961747   2570.860318    0.00000    0.00000    0.00000    3    diag,B
    5      0.478D-01      0.175D-02     -3382.92134219   2578.569423    0.00000    0.00000    0.00000    4    diag,B
    6      0.415D-01      0.140D-02     -3382.96125542   2583.113208    0.00000    0.00000    0.00000    5    diag,B
    7      0.226D-01      0.644D-03     -3382.96879799   2584.044835    0.00000    0.00000    0.00000    6    fixocc
    8      0.493D-02      0.237D-03     -3382.96931141   2584.289906    0.00000    0.00000    0.00000    7    diag,B
    9      0.106D-02      0.165D-03     -3382.96952122   2584.260520    0.00000    0.00000    0.00000    8    diag,B
   10      0.201D-02      0.788D-04     -3382.96958122   2584.363829    0.00000    0.00000    0.00000    9    orth
   11      0.957D-03      0.507D-04     -3382.96960099   2584.319125    0.00000    0.00000    0.00000    9    diag,B
   12      0.378D-03      0.478D-04     -3382.96961973   2584.377284    0.00000    0.00000    0.00000    9    diag,B
   13      0.437D-03      0.203D-04     -3382.96962478   2584.370437    0.00000    0.00000    0.00000    9    diag,B
   14      0.147D-03      0.105D-04     -3382.96962558   2584.378125    0.00000    0.00000    0.00000    9    diag,B
   15      0.727D-04      0.865D-05     -3382.96962623   2584.367841    0.00000    0.00000    0.00000    9    diag,B
   16      0.724D-04      0.300D-05     -3382.96962630   2584.364990    0.00000    0.00000    0.00000    9    diag,B
   17      0.440D-04      0.989D-06     -3382.96962631   2584.365417    0.00000    0.00000    0.00000    9    diag,B
   18      0.299D-04      0.367D-06     -3382.96962631   2584.365564    0.00000    0.00000    0.00000    9    diag,B
   19      0.118D-04      0.158D-06     -3382.96962631   2584.365648    0.00000    0.00000    0.00000    9    diag,B
   20      0.383D-05      0.656D-07     -3382.96962631   2584.365654    0.00000    0.00000    0.00000    0    orth

 Final alpha occupancy:   8   3   3   1   3   1   1   0
 Final beta  occupancy:   7   3   3   1   3   1   1   0

 !RHF STATE 1.1 Energy              -3382.969626308731
 Nuclear energy                         0.00000000
 One-electron energy                -4675.15245332
 Two-electron energy                 1292.18282701
 Virial quotient                       -0.91549094
 !RHF STATE 1.1 Dipole moment           0.00000000     0.00000000     0.00000000
 Dipole moment /Debye                   0.00000000     0.00000000     0.00000000

 ELECTRON ORBITALS
 =================


   Orb  Occ    Energy  Couls-En    Coefficients

                                   1 1s      1 1s      1 1s      1 1s      1 1s      1 1s      1 1s      1 1s      1 1s      1 1s   
                                   1 1s      1 1s      1 1s      1 1s      1 1s      1 1s      1 1s      1 1s      1 1s      1 1s   
                                   1 1s      1 1s      1 1s      1 1s      1 1s      1 1s      1 1s      1 1s      1 1s      1 1s   
                                   1 1s      1 3d0     1 3d2+    1 3d0     1 3d2+    1 3d0     1 3d2+    1 3d0     1 3d2+    1 3d0  
                                   1 3d2+    1 3d0     1 3d2+    1 3d0     1 3d2+    1 3d0     1 3d2+    1 3d0     1 3d2+    1 3d0  
                                   1 3d2+    1 3d0     1 3d2+    1 3d0     1 3d2+    1 3d0     1 3d2+    1 3d0     1 3d2+    1 3d0  
                                   1 3d2+    1 3d0     1 3d2+    1 3d0     1 3d2+    1 3d0     1 3d2+    1 3d0     1 3d2+    1 3d0  
                                   1 3d2+    1 5g0     1 5g4+    1 5g2+    1 5g0     1 5g4+    1 5g2+    1 5g0     1 5g4+    1 5g2+ 


   1.1   2  -629.6550-1406.0261  0.000041  0.000109  0.000302  0.000698  0.001520  0.003159  0.006523  0.013590  0.028843  0.061543
                                 0.126272  0.229723  0.321096  0.274180 -0.006115  0.101212  0.004786  0.003363 -0.005671  0.014946
                                -0.013804  0.011220 -0.010514  0.003715 -0.002222  0.000655 -0.000061  0.000019 -0.000015  0.000006
                                -0.000001  0.000000 -0.000000  0.000000 -0.000000  0.000000 -0.000000  0.000000 -0.000000 -0.000000
                                -0.000000  0.000000  0.000000 -0.000000 -0.000000  0.000000  0.000000 -0.000000 -0.000000  0.000000
                                 0.000000 -0.000000 -0.000000  0.000000  0.000000 -0.000000 -0.000000  0.000000  0.000000 -0.000000
                                -0.000000  0.000000  0.000000 -0.000000 -0.000000  0.000000  0.000000 -0.000000 -0.000000  0.000000
                                 0.000000  0.000000  0.000000 -0.000000  0.000000  0.000000 -0.000000  0.000000  0.000000 -0.000000

   2.1   2   -88.8648 -281.7370 -0.000013 -0.000036 -0.000099 -0.000230 -0.000501 -0.001045 -0.002170 -0.004562 -0.009831 -0.021569
                                -0.046648 -0.094077 -0.160102 -0.184514  0.004497 -0.024631  0.372693  0.539871  0.216597  0.030353
                                -0.009551  0.039606 -0.037751  0.015024 -0.009441  0.002796 -0.000310  0.000088 -0.000071  0.000027
                                -0.000007  0.000000 -0.000000  0.000000 -0.000000  0.000000 -0.000000  0.000004 -0.000000  0.000015
                                -0.000000  0.000013 -0.000000 -0.000003 -0.000000  0.000001  0.000000  0.000001 -0.000000  0.000001
                                 0.000000  0.000000 -0.000000 -0.000000  0.000000  0.000000 -0.000000 -0.000000  0.000000  0.000000
                                -0.000000 -0.000000  0.000000  0.000000 -0.000000 -0.000000  0.000000  0.000000  0.000000 -0.000000
                                -0.000000 -0.000000 -0.000001  0.000000  0.000000  0.000000 -0.000000 -0.000000 -0.000000  0.000000

   3.1   2   -15.3109  -93.7391  0.000006  0.000015  0.000041  0.000095  0.000207  0.000433  0.000898  0.001891  0.004084  0.008995
                                 0.019593  0.040097  0.070212  0.085332 -0.003439  0.012372 -0.239481 -0.483833 -0.193711 -0.036603
                                 0.520749  0.745957 -0.084726  0.231521 -0.063769  0.024826 -0.001183  0.000644 -0.000507  0.000189
                                -0.000049  0.000000 -0.000000  0.000001 -0.000000  0.000003 -0.000000  0.000011 -0.000000  0.000029
                                -0.000000  0.000056 -0.000000  0.000042  0.000000  0.000138 -0.000000  0.000237 -0.000000  0.000246
                                -0.000000 -0.000006 -0.000000  0.000040 -0.000000 -0.000064  0.000000  0.000040 -0.000000 -0.000028
                                 0.000000  0.000019 -0.000000 -0.000011 -0.000000  0.000005  0.000000 -0.000001 -0.000000  0.000000
                                 0.000000  0.000001  0.000008 -0.000000  0.000002  0.000014 -0.000000 -0.000000 -0.000002  0.000000

   4.1   2    -6.4860  -77.3626 -0.000000 -0.000000 -0.000000 -0.000000 -0.000000 -0.000000 -0.000000 -0.000000 -0.000000 -0.000000
                                -0.000000 -0.000000 -0.000000 -0.000000  0.000000 -0.000000  0.000000  0.000000  0.000000  0.000000
                                -0.000000 -0.000000 -0.000000  0.000000  0.000000  0.000000 -0.000000 -0.000000  0.000000  0.000000
                                 0.000000  0.000000  0.000172  0.000000  0.001506  0.000000  0.008902  0.000000  0.035052  0.000000
                                 0.102084  0.000000  0.219555 -0.000000 -0.000679  0.000000  0.324699  0.000000  0.332926  0.000000
                                 0.197030  0.000000  0.046799  0.000000  0.001972 -0.000000 -0.003383  0.000000  0.006040 -0.000000
                                -0.004281  0.000000  0.003451 -0.000000 -0.002001  0.000000  0.001044 -0.000000 -0.000101  0.000000
                                 0.000027  0.000000 -0.000000  0.000132 -0.000000 -0.000000 -0.000063  0.000000  0.000000  0.000014

   5.1   2    -6.4860  -77.3153 -0.000000 -0.000000 -0.000000 -0.000000 -0.000000 -0.000000 -0.000001 -0.000002 -0.000004 -0.000009
                                -0.000019 -0.000038 -0.000067 -0.000081  0.000000 -0.000008  0.000237  0.000505  0.000171  0.000284
                                -0.000911 -0.000961 -0.000322  0.000306  0.000377  0.000538 -0.000084 -0.000039  0.000018 -0.000006
                                 0.000002  0.000171 -0.000000  0.001504 -0.000000  0.008887 -0.000000  0.034993 -0.000000  0.101906
                                -0.000000  0.219170 -0.000000 -0.000653  0.000000  0.324233 -0.000000  0.332799 -0.000000  0.197896
                                -0.000000  0.047800 -0.000000  0.001488 -0.000000 -0.002889  0.000000  0.005650 -0.000000 -0.004166
                                 0.000000  0.003280 -0.000000 -0.001961  0.000000  0.000985 -0.000000 -0.000105  0.000000  0.000027
                                -0.000000  0.000210 -0.000004 -0.000000 -0.000058 -0.000046  0.000000  0.000016  0.000007 -0.000000

   6.1   2    -2.2377  -35.1313 -0.000002 -0.000005 -0.000015 -0.000035 -0.000076 -0.000159 -0.000331 -0.000696 -0.001505 -0.003314
                                -0.007237 -0.014822 -0.026161 -0.031712  0.000090 -0.003281  0.094117  0.207242  0.067780  0.105959
                                -0.389770 -0.338126 -0.321524  0.062813 -0.159079  0.825984  0.543664  0.041212 -0.021349  0.006528
                                -0.001563 -0.000000  0.000000 -0.000004  0.000000 -0.000021  0.000000 -0.000082  0.000000 -0.000245
                                 0.000000 -0.000484  0.000000 -0.000067  0.000000 -0.000743  0.000000 -0.000820  0.000000 -0.000232
                                -0.000000  0.002022 -0.000000  0.001268 -0.000000  0.002082 -0.000000 -0.000393  0.000000  0.000043
                                -0.000000 -0.000334 -0.000000  0.000091 -0.000000 -0.000063 -0.000000  0.000007  0.000000 -0.000002
                                -0.000000  0.000078  0.000408 -0.000000  0.000198  0.001127 -0.000000  0.000002  0.000011  0.000000

   7.1   2    -0.2012  -11.1352  0.000001  0.000001  0.000004  0.000009  0.000020  0.000043  0.000089  0.000187  0.000404  0.000890
                                 0.001942  0.003986  0.007021  0.008609 -0.000324  0.001226 -0.025807 -0.056139 -0.021084 -0.017317
                                 0.094679  0.144820  0.046747  0.022160 -0.003429 -0.282491 -0.393712  0.179730  0.656362  0.356429
                                 0.002799 -0.000001  0.000000 -0.000009  0.000000 -0.000057  0.000000 -0.000221  0.000000 -0.000663
                                 0.000000 -0.001327  0.000000 -0.000114  0.000000 -0.001955  0.000000 -0.002011  0.000000  0.000318
                                -0.000000  0.003557 -0.000000  0.002404 -0.000000  0.002733 -0.000000  0.009339 -0.000000  0.008825
                                -0.000000  0.015470  0.000000  0.005201 -0.000000  0.013067  0.000000  0.003619 -0.000000 -0.000256
                                 0.000000  0.000178  0.000605 -0.000000  0.000365  0.000476 -0.000000  0.000221  0.000299 -0.000000

   8.1   +    -0.2350  -18.7907  0.000000  0.000000  0.000000  0.000000  0.000000  0.000000  0.000000  0.000000  0.000000  0.000000
                                 0.000000  0.000000  0.000000  0.000000  0.000000 -0.000000 -0.000000 -0.000000  0.000000 -0.000000
                                 0.000000 -0.000000  0.000000 -0.000000  0.000000 -0.000000 -0.000000  0.000000  0.000000  0.000000
                                -0.000000  0.000000 -0.000036  0.000000 -0.000315  0.000000 -0.001888  0.000000 -0.007378  0.000000
                                -0.022039  0.000000 -0.044426  0.000000 -0.003586  0.000000 -0.065336  0.000000 -0.066659 -0.000000
                                 0.010298 -0.000000  0.146578 -0.000000  0.074269 -0.000000  0.187835 -0.000000  0.197175 -0.000000
                                 0.245722 -0.000000  0.164214 -0.000000  0.113303 -0.000000  0.095076 -0.000000  0.026569  0.000000
                                -0.003078  0.000000  0.000000 -0.000343  0.000000  0.000000 -0.001475  0.000000  0.000000 -0.000928

   9.1   0     0.0315   -3.2009 -0.000000 -0.000000 -0.000000 -0.000000 -0.000000 -0.000000 -0.000001 -0.000002 -0.000004 -0.000008
                                -0.000018 -0.000035 -0.000068 -0.000055 -0.000097  0.000103  0.000146  0.000714 -0.000729  0.004903
                                -0.006766  0.012202 -0.017563  0.014032 -0.015413  0.011397  0.000665  0.004688 -0.021505  0.025147
                                -0.026619 -0.000004 -0.000000 -0.000023 -0.000000 -0.000187 -0.000000 -0.000547 -0.000000 -0.002394
                                -0.000000  0.002027  0.000000 -0.008514 -0.000000 -0.000758  0.000000 -0.011941 -0.000000  0.014153
                                 0.000000 -0.071175 -0.000000  0.269776  0.000000 -0.542277 -0.000000  0.705178  0.000000 -0.986835
                                -0.000000  1.390516  0.000000 -1.944173 -0.000000  1.698218  0.000000 -0.931260 -0.000000  1.458089
                                 0.000000  0.000117 -0.000252 -0.000000  0.000355 -0.000948 -0.000000  0.000978 -0.000603 -0.000000

  10.1   0     0.0229   -3.6177 -0.000000 -0.000000 -0.000001 -0.000002 -0.000005 -0.000011 -0.000022 -0.000048 -0.000097 -0.000235
                                -0.000449 -0.001103 -0.001376 -0.004393  0.009411 -0.011035  0.014945 -0.004582  0.091753 -0.439972
                                 0.527843 -1.295452  1.573410 -1.302896  1.387097 -0.687680  0.372478 -0.796763  1.426987 -2.842629
                                 2.541750  0.000000 -0.000000  0.000002 -0.000000  0.000009 -0.000000  0.000036 -0.000000  0.000103
                                -0.000000  0.000262 -0.000000 -0.000049 -0.000000  0.000355 -0.000000  0.000272 -0.000000  0.000056
                                 0.000000 -0.001315 -0.000000  0.001968  0.000000 -0.005630 -0.000000  0.005201  0.000000 -0.011309
                                -0.000000  0.010493  0.000000 -0.018899 -0.000000  0.012581  0.000000 -0.009358 -0.000000  0.017328
                                 0.000000 -0.000050 -0.000229  0.000000 -0.000218 -0.001034  0.000000 -0.000203 -0.000994  0.000000

                                   1 2px     1 2px     1 2px     1 2px     1 2px     1 2px     1 2px     1 2px     1 2px     1 2px  
                                   1 2px     1 2px     1 2px     1 2px     1 2px     1 2px     1 2px     1 2px     1 2px     1 2px  
                                   1 2px     1 2px     1 2px     1 2px     1 2px     1 2px     1 4f1+    1 4f3+    1 4f1+    1 4f3+ 
                                   1 4f1+    1 4f3+    1 4f1+    1 4f3+ 

   1.2   2   -78.9112 -268.3486  0.000014  0.000053  0.000206  0.000769  0.002805  0.009658  0.030133  0.082173  0.183299  0.308907
                                 0.340231  0.185139  0.005603  0.036949  0.012740 -0.016312  0.018469 -0.013974  0.007140 -0.002716
                                 0.000351 -0.000126  0.000046 -0.000015  0.000006 -0.000002  0.000003 -0.000007  0.000000 -0.000001
                                 0.000000 -0.000001 -0.000000  0.000000

   2.2   2   -11.9777  -87.4633 -0.000006 -0.000022 -0.000087 -0.000327 -0.001195 -0.004146 -0.013097 -0.036658 -0.084981 -0.151207
                                -0.169289 -0.004744 -0.000360  0.297182  0.469310 -0.000041  0.313068 -0.028487  0.075366 -0.009645
                                 0.003377 -0.000869  0.000310 -0.000123  0.000043 -0.000013  0.000187 -0.000033 -0.000099  0.000083
                                 0.000026 -0.000006 -0.000009  0.000004

   3.2   2    -1.3019  -30.5636  0.000002  0.000007  0.000029  0.000110  0.000401  0.001394  0.004409  0.012403  0.028886  0.051998
                                 0.057987 -0.002462 -0.005562 -0.125049 -0.244795  0.051113 -0.285812  0.244178 -0.151297  0.472278
                                 0.471168  0.220034  0.037372  0.003604 -0.000005  0.000044  0.001771  0.002219  0.001234  0.005656
                                -0.000661  0.003040  0.000079 -0.000202

   4.2   0     0.0107   -4.9957 -0.000000 -0.000001 -0.000003 -0.000012 -0.000044 -0.000147 -0.000481 -0.001306 -0.003187 -0.005320
                                -0.007364  0.013524 -0.020896  0.034294 -0.054535  0.187158 -0.294626  0.347532 -0.312945  0.140397
                                -0.148836  0.040695 -0.052788  0.341261 -0.089022  0.911833 -0.000319  0.000415 -0.000713  0.003527
                                 0.000518  0.009448  0.003005  0.005399

   5.2   0     0.0417   -5.2487  0.000000  0.000001  0.000004  0.000016  0.000054  0.000205  0.000591  0.001852  0.003759  0.008398
                                 0.003850  0.050437 -0.083769  0.061305 -0.351152  0.752255 -1.305945  1.494993 -1.299482  0.850862
                                -0.220814  0.390051 -0.463530  0.378226 -1.810944  1.495283  0.000417 -0.000538  0.000940 -0.004632
                                -0.000918 -0.012114 -0.002748 -0.009716

                                   1 2py     1 2py     1 2py     1 2py     1 2py     1 2py     1 2py     1 2py     1 2py     1 2py  
                                   1 2py     1 2py     1 2py     1 2py     1 2py     1 2py     1 2py     1 2py     1 2py     1 2py  
                                   1 2py     1 2py     1 2py     1 2py     1 2py     1 2py     1 4f1-    1 4f3-    1 4f1-    1 4f3- 
                                   1 4f1-    1 4f3-    1 4f1-    1 4f3- 

   1.3   2   -78.9112 -268.3486  0.000014  0.000053  0.000206  0.000769  0.002805  0.009658  0.030133  0.082173  0.183299  0.308907
                                 0.340231  0.185139  0.005603  0.036949  0.012740 -0.016312  0.018469 -0.013974  0.007140 -0.002716
                                 0.000351 -0.000126  0.000046 -0.000015  0.000006 -0.000002  0.000003  0.000007  0.000000  0.000001
                                 0.000000  0.000001 -0.000000 -0.000000

   2.3   2   -11.9777  -87.4633 -0.000006 -0.000022 -0.000087 -0.000327 -0.001195 -0.004146 -0.013097 -0.036658 -0.084981 -0.151207
                                -0.169289 -0.004744 -0.000360  0.297182  0.469310 -0.000041  0.313068 -0.028487  0.075366 -0.009645
                                 0.003377 -0.000869  0.000310 -0.000123  0.000043 -0.000013  0.000187  0.000033 -0.000099 -0.000083
                                 0.000026  0.000006 -0.000009 -0.000004

   3.3   2    -1.3019  -30.5636  0.000002  0.000007  0.000029  0.000110  0.000401  0.001394  0.004409  0.012403  0.028886  0.051998
                                 0.057987 -0.002462 -0.005562 -0.125049 -0.244795  0.051113 -0.285812  0.244178 -0.151297  0.472278
                                 0.471168  0.220034  0.037372  0.003604 -0.000005  0.000044  0.001771 -0.002219  0.001234 -0.005656
                                -0.000661 -0.003040  0.000079  0.000202

   4.3   0     0.0107   -4.9957 -0.000000 -0.000001 -0.000003 -0.000012 -0.000044 -0.000147 -0.000481 -0.001306 -0.003187 -0.005320
                                -0.007364  0.013524 -0.020896  0.034294 -0.054535  0.187158 -0.294626  0.347532 -0.312945  0.140397
                                -0.148836  0.040695 -0.052788  0.341261 -0.089022  0.911833 -0.000319 -0.000415 -0.000713 -0.003527
                                 0.000518 -0.009448  0.003005 -0.005399

   5.3   0     0.0417   -5.2487  0.000000  0.000001  0.000004  0.000016  0.000054  0.000205  0.000591  0.001852  0.003759  0.008398
                                 0.003850  0.050437 -0.083769  0.061305 -0.351152  0.752255 -1.305945  1.494993 -1.299482  0.850862
                                -0.220814  0.390051 -0.463530  0.378226 -1.810944  1.495283  0.000417  0.000538  0.000940  0.004632
                                -0.000918  0.012114 -0.002748  0.009716

                                   1 3d2-    1 3d2-    1 3d2-    1 3d2-    1 3d2-    1 3d2-    1 3d2-    1 3d2-    1 3d2-    1 3d2- 
                                   1 3d2-    1 3d2-    1 3d2-    1 3d2-    1 3d2-    1 3d2-    1 3d2-    1 3d2-    1 3d2-    1 3d2- 
                                   1 5g2-    1 5g4-    1 5g2-    1 5g4-    1 5g2-    1 5g4- 

   1.4   2    -6.4787  -77.3179  0.000171  0.001504  0.008890  0.035003  0.101936  0.219220 -0.000651  0.324305  0.332899  0.197792
                                 0.047465  0.001606 -0.003126  0.005755 -0.004247  0.003329 -0.001992  0.001000 -0.000106  0.000027
                                 0.000136 -0.000000 -0.000033  0.000000  0.000009 -0.000000

   2.4   0     0.0320   -3.0490 -0.000003 -0.000013 -0.000127 -0.000306 -0.001696  0.003630 -0.008634  0.001496 -0.009949  0.014295
                                -0.078002  0.274739 -0.563577  0.717879 -1.023166  1.421291 -2.004119  1.735361 -0.972306  1.487224
                                 0.000066 -0.000000  0.000219  0.000000  0.000601 -0.000000

   3.4   0     0.0775   -7.5655 -0.000013 -0.000125 -0.000678 -0.002939 -0.007572 -0.026132  0.011660 -0.032554 -0.015657 -0.018363
                                 0.184997 -0.391449  0.954314 -1.027443  1.715356 -2.133551  3.303514 -2.651714  2.018198 -1.091700
                                 0.000443 -0.000000  0.001492  0.000000  0.002533 -0.000000

                                   1 2pz     1 2pz     1 2pz     1 2pz     1 2pz     1 2pz     1 2pz     1 2pz     1 2pz     1 2pz  
                                   1 2pz     1 2pz     1 2pz     1 2pz     1 2pz     1 2pz     1 2pz     1 2pz     1 2pz     1 2pz  
                                   1 2pz     1 2pz     1 2pz     1 2pz     1 2pz     1 2pz     1 4f0     1 4f2+    1 4f0     1 4f2+ 
                                   1 4f0     1 4f2+    1 4f0     1 4f2+ 

   1.5   2   -78.9133 -268.3507  0.000014  0.000053  0.000206  0.000769  0.002805  0.009658  0.030133  0.082172  0.183297  0.308904
                                 0.340239  0.185151  0.005594  0.036941  0.012733 -0.016308  0.018466 -0.013969  0.007140 -0.002712
                                 0.000354 -0.000124  0.000046 -0.000015  0.000006 -0.000002  0.000001  0.000000 -0.000000  0.000000
                                 0.000000  0.000000 -0.000000 -0.000000

   2.5   2   -11.9854  -87.4630 -0.000006 -0.000022 -0.000087 -0.000327 -0.001195 -0.004145 -0.013094 -0.036648 -0.084957 -0.151164
                                -0.169251 -0.004782 -0.000337  0.297072  0.469076 -0.000015  0.313089 -0.028238  0.075506 -0.009647
                                 0.003327 -0.000895  0.000300 -0.000125  0.000043 -0.000013  0.000218 -0.000000 -0.000095  0.000000
                                 0.000030 -0.000000 -0.000010  0.000000

   3.5   2    -1.3070  -30.6133  0.000002  0.000007  0.000029  0.000110  0.000402  0.001397  0.004418  0.012428  0.028944  0.052102
                                 0.058108 -0.002470 -0.005557 -0.125328 -0.245160  0.051128 -0.286167  0.244188 -0.152387  0.474009
                                 0.474748  0.217697  0.034299  0.003303  0.000013  0.000041  0.002887 -0.000000  0.003334 -0.000000
                                 0.000188 -0.000000  0.000034  0.000000

   4.5   0     0.0101   -5.0304 -0.000000 -0.000001 -0.000003 -0.000011 -0.000043 -0.000145 -0.000474 -0.001286 -0.003136 -0.005243
                                -0.007227  0.013045 -0.020136  0.033341 -0.052067  0.180403 -0.283574  0.334774 -0.301595  0.134569
                                -0.145151  0.036631 -0.051209  0.338076 -0.067771  0.894833 -0.000240  0.000000  0.000318 -0.000000
                                 0.003858 -0.000000  0.005542 -0.000000

   5.5   0     0.0413   -5.1811  0.000000  0.000001  0.000004  0.000015  0.000053  0.000199  0.000570  0.001792  0.003622  0.008145
                                 0.003591  0.050251 -0.083410  0.061610 -0.348710  0.749189 -1.299835  1.488360 -1.294324  0.845328
                                -0.222662  0.389447 -0.459021  0.377822 -1.810949  1.504947  0.000310 -0.000000 -0.000409  0.000000
                                -0.005156  0.000000 -0.006573  0.000000

                                   1 3d1+    1 3d1+    1 3d1+    1 3d1+    1 3d1+    1 3d1+    1 3d1+    1 3d1+    1 3d1+    1 3d1+ 
                                   1 3d1+    1 3d1+    1 3d1+    1 3d1+    1 3d1+    1 3d1+    1 3d1+    1 3d1+    1 3d1+    1 3d1+ 
                                   1 5g1+    1 5g3+    1 5g1+    1 5g3+    1 5g1+    1 5g3+ 

   1.6   2    -6.4841  -77.3159  0.000171  0.001504  0.008888  0.034995  0.101914  0.219182 -0.000652  0.324251  0.332824  0.197871
                                 0.047717  0.001517 -0.002948  0.005676 -0.004186  0.003293 -0.001969  0.000989 -0.000105  0.000027
                                 0.000191  0.000003 -0.000057  0.000028  0.000015 -0.000004

   2.6   0     0.0316   -3.1436 -0.000003 -0.000020 -0.000166 -0.000464 -0.002151  0.002581 -0.008553  0.000022 -0.011247  0.014196
                                -0.073516  0.271398 -0.549472  0.709337 -0.999069  1.400726 -1.964190  1.710572 -0.944863  1.468154
                                 0.000079  0.000130  0.000232  0.000486  0.000828  0.000296

   3.6   0     0.0711   -8.9523 -0.000016 -0.000153 -0.000854 -0.003585 -0.009686 -0.028716  0.009326 -0.037276 -0.023234 -0.014361
                                 0.177101 -0.319264  0.831572 -0.835696  1.481744 -1.757636  2.790119 -2.169888  1.748855 -1.012360
                                 0.000487  0.000765  0.001551  0.002568  0.002892  0.001823

                                   1 3d1-    1 3d1-    1 3d1-    1 3d1-    1 3d1-    1 3d1-    1 3d1-    1 3d1-    1 3d1-    1 3d1- 
                                   1 3d1-    1 3d1-    1 3d1-    1 3d1-    1 3d1-    1 3d1-    1 3d1-    1 3d1-    1 3d1-    1 3d1- 
                                   1 5g1-    1 5g3-    1 5g1-    1 5g3-    1 5g1-    1 5g3- 

   1.7   2    -6.4841  -77.3159  0.000171  0.001504  0.008888  0.034995  0.101914  0.219182 -0.000652  0.324251  0.332824  0.197871
                                 0.047717  0.001517 -0.002948  0.005676 -0.004186  0.003293 -0.001969  0.000989 -0.000105  0.000027
                                 0.000191 -0.000003 -0.000057 -0.000028  0.000015  0.000004

   2.7   0     0.0316   -3.1436 -0.000003 -0.000020 -0.000166 -0.000464 -0.002151  0.002581 -0.008553  0.000022 -0.011247  0.014196
                                -0.073516  0.271398 -0.549472  0.709337 -0.999069  1.400726 -1.964190  1.710572 -0.944863  1.468154
                                 0.000079 -0.000130  0.000232 -0.000486  0.000828 -0.000296

   3.7   0     0.0711   -8.9523 -0.000016 -0.000153 -0.000854 -0.003585 -0.009686 -0.028716  0.009326 -0.037276 -0.023234 -0.014361
                                 0.177101 -0.319264  0.831572 -0.835696  1.481744 -1.757636  2.790119 -2.169888  1.748855 -1.012360
                                 0.000487 -0.000765  0.001551 -0.002568  0.002892 -0.001823

                                   1 4f2-    1 4f2-    1 4f2-    1 4f2- 

   1.8   0     0.1511   -4.9475 -0.003124  0.025173 -0.086615  1.035279

   2.8   0     0.4857   -8.9302  0.042945 -0.015476  1.121956 -0.441954

 HOMO      8.1    -0.234992 =      -6.3945eV
 LUMO      4.5     0.010076 =       0.2742eV
 LUMO-HOMO         0.245068 =       6.6686eV


 **********************************************************************************************************************************
 DATASETS  * FILE   NREC   LENGTH (MB)   RECORD NAMES
              1      22       20.78       500      610      700      900      950      970     1000      129      960     1700   
                                          VAR    BASINP    GEOM    SYMINP    ZMAT    AOBASIS   BASIS     P2S    ABASIS    OPER   
                                         1101     1401     1411     1412     1650     1100     1400     1410     1200     1210   
                                          SR      EKINR    POTR     PVPR    MOLCAS      S      EKIN      POT      H0       H01  
                                         1080     1600   
                                         AOSYM     SMH  

              2       5        5.72       200      700     1000      520     4202   
                                        OPTIONS   GEOM     BASIS   MCVARS     RHF  

 PROGRAMS   *        TOTAL       RHF       INT
 CPU TIMES  *        40.92      0.95     39.73
 REAL TIME  *        43.04 SEC
 DISK USED  *         1.32 GB      
 SF USED    *         0.05 MB      
 GA USED    *         0.00 MB       (max)       0.00 MB       (current)
 **********************************************************************************************************************************


 PROGRAM * POP (Mulliken population analysis)

 
 Density matrix read from record         4202.2  Type=RHF/CHARGE (state 1.1)
 
 Population analysis by basis function type

 Unique atom        s        p        d        f        g    Total    Charge
   1  Y       9.99471 17.99961 11.00527  0.00039  0.00001 39.00000  - 0.00000


 **********************************************************************************************************************************
 DATASETS  * FILE   NREC   LENGTH (MB)   RECORD NAMES
              1      22       20.78       500      610      700      900      950      970     1000      129      960     1700   
                                          VAR    BASINP    GEOM    SYMINP    ZMAT    AOBASIS   BASIS     P2S    ABASIS    OPER   
                                         1101     1401     1411     1412     1650     1100     1400     1410     1200     1210   
                                          SR      EKINR    POTR     PVPR    MOLCAS      S      EKIN      POT      H0       H01  
                                         1080     1600   
                                         AOSYM     SMH  

              2       5        5.72       200      700     1000      520     4202   
                                        OPTIONS   GEOM     BASIS   MCVARS     RHF  

 PROGRAMS   *        TOTAL       POP       RHF       INT
 CPU TIMES  *        40.92      0.00      0.95     39.73
 REAL TIME  *        43.06 SEC
 DISK USED  *         1.32 GB      
 SF USED    *         0.05 MB      
 GA USED    *         0.00 MB       (max)       0.00 MB       (current)
 **********************************************************************************************************************************


 PROGRAM * MULTI (Direct Multiconfiguration SCF)       Authors: P.J. Knowles, H.-J. Werner (1984)     S.T. Elbert (1988)


 Number of closed-shell orbitals:  19 (   7   3   3   1   3   1   1   0 )
 Number of active  orbitals:        5 (   2   0   0   1   0   1   1   0 )
 Number of external orbitals:     240 (  71  31  31  24  31  24  24   4 )

 State symmetry 1

 Number of electrons:     1    Spin symmetry=Doublet   Space symmetry=1
 Number of states:        2
 Number of CSFs:          2   (2 determinants, 5 intermediate states)

 State symmetry 2

 Number of electrons:     1    Spin symmetry=Doublet   Space symmetry=4
 Number of states:        1
 Number of CSFs:          1   (1 determinants, 5 intermediate states)

 State symmetry 3

 Number of electrons:     1    Spin symmetry=Doublet   Space symmetry=6
 Number of states:        1
 Number of CSFs:          1   (1 determinants, 5 intermediate states)

 State symmetry 4

 Number of electrons:     1    Spin symmetry=Doublet   Space symmetry=7
 Number of states:        1
 Number of CSFs:          1   (1 determinants, 5 intermediate states)

 Molecular orbitals read from record     4202.2  Type=RHF/CANONICAL (state 1.1)
 *** IN SYMMETRY 1 ORBITAL  2 SYMMETRY CONTAMINATION OF 0.229D-04 HAS BEEN REMOVED
 *** IN SYMMETRY 1 ORBITAL  3 SYMMETRY CONTAMINATION OF 0.350D-03 HAS BEEN REMOVED
 *** IN SYMMETRY 1 ORBITAL  4 SYMMETRY CONTAMINATION OF 0.162D-03 HAS BEEN REMOVED
 *** IN SYMMETRY 1 ORBITAL  5 SYMMETRY CONTAMINATION OF 0.411D-02 HAS BEEN REMOVED
 *** IN SYMMETRY 1 ORBITAL  6 SYMMETRY CONTAMINATION OF 0.329D-02 HAS BEEN REMOVED
 *** IN SYMMETRY 1 ORBITAL  7 SYMMETRY CONTAMINATION OF 0.305D-01 HAS BEEN REMOVED
 *** IN SYMMETRY 1 ORBITAL  8 SYMMETRY CONTAMINATION OF 0.186D-02 HAS BEEN REMOVED
 *** IN SYMMETRY 1 ORBITAL  9 SYMMETRY CONTAMINATION OF 0.163D-01 HAS BEEN REMOVED

 EXTRA SYMMETRY OF MOS IN SYMMETRY 1:   1 1 1 3 2 1 1 3 2 1   3 2 3 2 1 3 2 4 6 1   1 3 2 3 2 4 6 1 1 3   2 2 3 1 4 6 5 2 3 2
                                        3 1 2 3 1 2 3 1 2 3   1 2 3 1 2 3 1 2 3 1   1 2 3 1 2 3 1 1 2 3   1 1 1 1 1 1 1 1 5 5
 *** IN SYMMETRY 2 ORBITAL  2 SYMMETRY CONTAMINATION OF 0.269D-03 HAS BEEN REMOVED
 *** IN SYMMETRY 2 ORBITAL  3 SYMMETRY CONTAMINATION OF 0.598D-02 HAS BEEN REMOVED
 EXTRA SYMMETRY OF MOS IN SYMMETRY 2:   1 1 1 1 1 1 2 1 1 1   1 1 3 2 1 2 3 1 1 1   1 1 1 1 1 1 1 1 1 1   1 2 3 3
 *** IN SYMMETRY 3 ORBITAL  2 SYMMETRY CONTAMINATION OF 0.269D-03 HAS BEEN REMOVED
 *** IN SYMMETRY 3 ORBITAL  3 SYMMETRY CONTAMINATION OF 0.598D-02 HAS BEEN REMOVED
 EXTRA SYMMETRY OF MOS IN SYMMETRY 3:   1 1 1 1 1 1 2 1 1 1   1 1 3 2 1 2 3 1 1 1   1 1 1 1 1 1 1 1 1 1   1 2 3 3
 *** IN SYMMETRY 4 ORBITAL  1 SYMMETRY CONTAMINATION OF 0.138D-03 HAS BEEN REMOVED
 *** IN SYMMETRY 4 ORBITAL  2 SYMMETRY CONTAMINATION OF 0.858D-04 HAS BEEN REMOVED
 EXTRA SYMMETRY OF MOS IN SYMMETRY 4:   1 1 1 1 1 2 3 1 1 2   3 1 1 2 3 1 1 1 1 1   1 1 1 1 1 1
 *** IN SYMMETRY 5 ORBITAL  2 SYMMETRY CONTAMINATION OF 0.212D-03 HAS BEEN REMOVED
 *** IN SYMMETRY 5 ORBITAL  3 SYMMETRY CONTAMINATION OF 0.260D-02 HAS BEEN REMOVED
 EXTRA SYMMETRY OF MOS IN SYMMETRY 5:   1 1 1 1 1 1 3 1 1 3   1 1 3 2 1 2 3 1 1 1   1 1 1 1 1 1 1 1 1 1   1 1 2 2
 *** IN SYMMETRY 6 ORBITAL  1 SYMMETRY CONTAMINATION OF 0.231D-03 HAS BEEN REMOVED
 *** IN SYMMETRY 6 ORBITAL  2 SYMMETRY CONTAMINATION OF 0.202D-03 HAS BEEN REMOVED
 EXTRA SYMMETRY OF MOS IN SYMMETRY 6:   1 1 1 1 1 2 3 1 1 2   3 1 1 2 3 1 1 1 1 1   1 1 1 1 1 1
 *** IN SYMMETRY 7 ORBITAL  1 SYMMETRY CONTAMINATION OF 0.231D-03 HAS BEEN REMOVED
 *** IN SYMMETRY 7 ORBITAL  2 SYMMETRY CONTAMINATION OF 0.202D-03 HAS BEEN REMOVED
 EXTRA SYMMETRY OF MOS IN SYMMETRY 7:   1 1 1 1 1 2 3 1 1 2   3 1 1 2 3 1 1 1 1 1   1 1 1 1 1 1

 Wavefunction dump at record             5202.2

 Convergence thresholds  0.10E-01 (gradient)  0.10E-05 (energy)  0.10E-02 (step length)

 Weight factors for state symmetry  1:    0.20000   0.20000
 Weight factors for state symmetry  2:    0.20000
 Weight factors for state symmetry  3:    0.20000
 Weight factors for state symmetry  4:    0.20000

 Number of orbital rotations:     1079   (    17 Core/Active    848 Core/Virtual   0 Active/Active    214 Active/Virtual)
 Total number of variables:       1086


 ITER. MIC  NCI  NEG     ENERGY(VAR)     ENERGY(PROJ)   ENERGY CHANGE     GRAD(0)  GRAD(ORB)   GRAD(CI)     STEP       TIME

   1  198   28    0   -3382.82188530   -3421.19015777  -38.36827247   ********************** 0.00000000  0.20D+01      0.95
   2  201   20    0   36209.12751176   -3326.78901455**************   ***********47.96098133 0.00000000  0.10D+01      1.70
   3  201   32    0   -3381.96420683   -3382.95246387   -0.98825704   *********** 1.23608342 0.00000000  0.50D+00      2.67
   4  201   56    0   -3382.96186271   -3382.96523628   -0.00337356    1.24736553 2.09601157 0.00000000  0.60D-01      3.89
   5  201   48    0   -3382.96524321   -3382.96630147   -0.00105826    2.09601611 0.49475829 0.00000000  0.17D-01      5.05
   6  201   60    0   -3382.96630171   -3382.96685708   -0.00055537    0.49475987 0.34322319 0.00000000  0.14D-01      6.31
   7  201   60    0   -3382.96685720   -3382.96732479   -0.00046759    0.34322435 0.18944779 0.00000000  0.17D-01      7.52
   8  201   36    0   -3382.96732491   -3382.96751543   -0.00019052    0.18944904 0.10650712 0.00000000  0.84D-02      8.54
   9  201   36    0   -3382.96751545   -3382.96758563   -0.00007018    0.10650744 0.19103159 0.00000000  0.38D-02      9.50
  10  197   44    0   -3382.96758563   -3382.96763225   -0.00004662    0.19103164 0.32905708 0.00000000  0.33D-02     10.42
  11  201   60    0   -3382.96763225   -3382.96769375   -0.00006150    0.32905690 0.15226333 0.00000000  0.49D-02     11.62
  12  201   52    0   -3382.96769376   -3382.96773395   -0.00004019    0.15226208 0.22647274 0.00000000  0.32D-02     12.80
  13  201   24    0   -3382.96773396   -3382.96774776   -0.00001381    0.22647262 0.15431621 0.00000000  0.12D-02     13.52
  14  201   48    0   -3382.96774776   -3382.96776485   -0.00001709    0.15431622 0.10616210 0.00000000  0.15D-02     14.42
  15  201   20    0   -3382.96776485   -3382.96777900   -0.00001415    0.10616207 0.09317906 0.00000000  0.14D-02     15.10
  16  201   60    0   -3382.96777900   -3382.96779858   -0.00001958    0.09317866 0.07515566 0.00000000  0.19D-02     16.36
  17  201   48    0   -3382.96779858   -3382.96780922   -0.00001064    0.07515560 0.11154930 0.00000000  0.13D-02     17.28
  18  201   48    0   -3382.96780922   -3382.96781614   -0.00000692    0.11154916 0.04220128 0.00000000  0.78D-03     18.20
  19  201   48    0   -3382.96781614   -3382.96782257   -0.00000643    0.04220083 0.04999835 0.00000000  0.91D-03     19.14
  20  201   48    0   -3382.96782257   -3382.96782789   -0.00000532    0.04999794 0.05696348 0.00000000  0.66D-03     20.07

 ** WVFN ****  MAXIMUM NUMBER OF ITERATIONS REACHED



 Results for state 1.1
 =====================

 !MCSCF STATE 1.1 Energy            -3382.967828031736
 Nuclear energy                         0.00000000
 Kinetic energy                      3695.27207838
 One electron energy                -4675.22114972
 Two electron energy                 1292.25332168
 Virial ratio                           1.91548545

 !MCSCF STATE 1.1 Dipole moment         0.00000000     0.00000000     0.00000000
 Dipole moment /Debye                   0.00000000     0.00000000     0.00000000

 Results for state 2.1
 =====================

 !MCSCF STATE 2.1 Energy            -3382.967827740438
 Nuclear energy                         0.00000000
 Kinetic energy                      3695.27203630
 One electron energy                -4675.22102557
 Two electron energy                 1292.25319783
 Virial ratio                           1.91548546

 !MCSCF STATE 2.1 Dipole moment         0.00000000     0.00000000     0.00000000
 Dipole moment /Debye                   0.00000000     0.00000000     0.00000000



 Results for state 1.4
 =====================

 !MCSCF STATE 1.4 Energy            -3382.967827907994
 Nuclear energy                         0.00000000
 Kinetic energy                      3695.27191893
 One electron energy                -4675.22066584
 Two electron energy                 1292.25283794
 Virial ratio                           1.91548549

 !MCSCF STATE 1.4 Dipole moment         0.00000000     0.00000000     0.00000000
 Dipole moment /Debye                   0.00000000     0.00000000     0.00000000



 Results for state 1.6
 =====================

 !MCSCF STATE 1.6 Energy            -3382.967827748551
 Nuclear energy                         0.00000000
 Kinetic energy                      3695.27193208
 One electron energy                -4675.22071490
 Two electron energy                 1292.25288715
 Virial ratio                           1.91548549

 !MCSCF STATE 1.6 Dipole moment         0.00000000     0.00000000     0.00000000
 Dipole moment /Debye                   0.00000000     0.00000000     0.00000000



 Results for state 1.7
 =====================

 !MCSCF STATE 1.7 Energy            -3382.967827997189
 Nuclear energy                         0.00000000
 Kinetic energy                      3695.27192861
 One electron energy                -4675.22069977
 Two electron energy                 1292.25287178
 Virial ratio                           1.91548549

 !MCSCF STATE 1.7 Dipole moment         0.00000000     0.00000000     0.00000000
 Dipole moment /Debye                   0.00000000     0.00000000     0.00000000

 State-averaged charge density matrix saved on record  5202.2 (density set 1)


 NATURAL ORBITALS (state averaged)
 =================================

   Orb     Occ        Energy       Coefficients

                                   1 1s      1 1s      1 1s      1 1s      1 1s      1 1s      1 1s      1 1s      1 1s      1 1s   
                                   1 1s      1 1s      1 1s      1 1s      1 1s      1 1s      1 1s      1 1s      1 1s      1 1s   
                                   1 1s      1 1s      1 1s      1 1s      1 1s      1 1s      1 1s      1 1s      1 1s      1 1s   
                                   1 1s      1 3d0     1 3d2+    1 3d0     1 3d2+    1 3d0     1 3d2+    1 3d0     1 3d2+    1 3d0  
                                   1 3d2+    1 3d0     1 3d2+    1 3d0     1 3d2+    1 3d0     1 3d2+    1 3d0     1 3d2+    1 3d0  
                                   1 3d2+    1 3d0     1 3d2+    1 3d0     1 3d2+    1 3d0     1 3d2+    1 3d0     1 3d2+    1 3d0  
                                   1 3d2+    1 3d0     1 3d2+    1 3d0     1 3d2+    1 3d0     1 3d2+    1 3d0     1 3d2+    1 3d0  
                                   1 3d2+    1 5g0     1 5g4+    1 5g2+    1 5g0     1 5g4+    1 5g2+    1 5g0     1 5g4+    1 5g2+ 


   1.1  2.00000  -629.653008     0.000041  0.000109  0.000302  0.000698  0.001520  0.003160  0.006522  0.013591  0.028843  0.061543
                                 0.126273  0.229722  0.321097  0.274180 -0.006118  0.101216  0.004781  0.003379 -0.005732  0.015174
                                -0.014050  0.011578 -0.010892  0.003878 -0.002326  0.000685 -0.000063  0.000020 -0.000016  0.000006
                                -0.000002  0.000000  0.000000  0.000000  0.000000  0.000000  0.000000  0.000000  0.000000  0.000000
                                 0.000000  0.000000  0.000000 -0.000000 -0.000000  0.000000  0.000000  0.000000  0.000000  0.000000
                                 0.000000  0.000000  0.000000  0.000000  0.000000 -0.000000 -0.000000  0.000000  0.000000 -0.000000
                                -0.000000  0.000000  0.000000 -0.000000 -0.000000  0.000000  0.000000 -0.000000 -0.000000  0.000000
                                 0.000000  0.000000  0.000000  0.000000  0.000000  0.000000  0.000000  0.000000  0.000000  0.000000

   2.1  2.00000   -88.862982    -0.000013 -0.000036 -0.000099 -0.000230 -0.000501 -0.001045 -0.002170 -0.004562 -0.009831 -0.021569
                                -0.046648 -0.094077 -0.160102 -0.184515  0.004495 -0.024627  0.372688  0.539879  0.216582  0.030380
                                -0.009566  0.039579 -0.037713  0.015000 -0.009424  0.002790 -0.000310  0.000087 -0.000071  0.000027
                                -0.000007  0.000000 -0.000000  0.000000 -0.000000  0.000000 -0.000000  0.000000 -0.000000  0.000000
                                -0.000000  0.000000 -0.000000 -0.000000  0.000000  0.000000 -0.000000  0.000000 -0.000000  0.000000
                                -0.000000  0.000000 -0.000000  0.000000 -0.000000 -0.000000  0.000000  0.000000 -0.000000 -0.000000
                                 0.000000  0.000000 -0.000000 -0.000000  0.000000  0.000000 -0.000000 -0.000000  0.000000  0.000000
                                -0.000000  0.000000  0.000000  0.000000  0.000000  0.000000  0.000000  0.000000  0.000000  0.000000

   3.1  2.00000   -15.309159     0.000006  0.000015  0.000041  0.000095  0.000207  0.000432  0.000899  0.001891  0.004084  0.008995
                                 0.019593  0.040098  0.070213  0.085332 -0.003451  0.012391 -0.239495 -0.483820 -0.193723 -0.036723
                                 0.520981  0.745318 -0.083995  0.231134 -0.063500  0.024741 -0.001175  0.000641 -0.000506  0.000189
                                -0.000048 -0.000000 -0.000000 -0.000000 -0.000000 -0.000000 -0.000000 -0.000000 -0.000000 -0.000000
                                -0.000000 -0.000000 -0.000000  0.000000  0.000000 -0.000000 -0.000000 -0.000000 -0.000000 -0.000000
                                -0.000000 -0.000000 -0.000000 -0.000000 -0.000000  0.000000  0.000000 -0.000000 -0.000000  0.000000
                                 0.000000 -0.000000 -0.000000  0.000000  0.000000 -0.000000 -0.000000  0.000000  0.000000 -0.000000
                                -0.000000  0.000000  0.000000  0.000000  0.000000  0.000000  0.000000  0.000000  0.000000  0.000000

   4.1  2.00000    -6.482003     0.000000  0.000000  0.000000  0.000000  0.000000  0.000000  0.000000  0.000000  0.000000  0.000000
                                 0.000000  0.000000  0.000000  0.000000 -0.000000  0.000000 -0.000000 -0.000000 -0.000000 -0.000000
                                 0.000000  0.000000  0.000000  0.000000 -0.000000 -0.000000 -0.000000  0.000000  0.000000  0.000000
                                -0.000000 -0.000000  0.000171 -0.000000  0.001504 -0.000000  0.008891 -0.000000  0.035007 -0.000000
                                 0.101949 -0.000000  0.219260  0.000000 -0.000659 -0.000000  0.324345 -0.000000  0.332847 -0.000000
                                 0.197695 -0.000000  0.047517 -0.000000  0.001612  0.000000 -0.003042 -0.000000  0.005761  0.000000
                                -0.004200 -0.000000  0.003334  0.000000 -0.001972 -0.000000  0.001005  0.000000 -0.000103 -0.000000
                                 0.000027  0.000000  0.000000  0.000000  0.000000  0.000000  0.000000  0.000000  0.000000  0.000000

   5.1  2.00000    -6.482002    -0.000000 -0.000000 -0.000000 -0.000000 -0.000000 -0.000000 -0.000000 -0.000000 -0.000000 -0.000000
                                -0.000000 -0.000000 -0.000000 -0.000000  0.000000 -0.000000  0.000000  0.000000  0.000000  0.000000
                                -0.000000 -0.000000 -0.000000  0.000000 -0.000000  0.000000  0.000000  0.000000  0.000000  0.000000
                                -0.000000  0.000171  0.000000  0.001504  0.000000  0.008891  0.000000  0.035007  0.000000  0.101950
                                 0.000000  0.219260  0.000000 -0.000659 -0.000000  0.324345  0.000000  0.332847  0.000000  0.197695
                                 0.000000  0.047517  0.000000  0.001611  0.000000 -0.003041 -0.000000  0.005761  0.000000 -0.004199
                                -0.000000  0.003333  0.000000 -0.001972 -0.000000  0.001005  0.000000 -0.000103 -0.000000  0.000027
                                 0.000000  0.000000  0.000000  0.000000  0.000000  0.000000  0.000000  0.000000  0.000000  0.000000

   6.1  2.00000    -2.236156    -0.000002 -0.000005 -0.000015 -0.000035 -0.000076 -0.000159 -0.000331 -0.000696 -0.001505 -0.003315
                                -0.007237 -0.014824 -0.026163 -0.031717  0.000080 -0.003266  0.094115  0.207304  0.067718  0.105958
                                -0.389652 -0.339042 -0.320575  0.062393 -0.158948  0.826414  0.543357  0.041179 -0.021318  0.006520
                                -0.001559 -0.000000  0.000000 -0.000000  0.000000 -0.000000  0.000000 -0.000000  0.000000 -0.000000
                                 0.000000 -0.000000  0.000000  0.000000 -0.000000 -0.000000  0.000000 -0.000000  0.000000 -0.000000
                                 0.000000 -0.000000  0.000000 -0.000000  0.000000  0.000000 -0.000000 -0.000000  0.000000  0.000000
                                -0.000000 -0.000000  0.000000  0.000000 -0.000000 -0.000000  0.000000  0.000000 -0.000000 -0.000000
                                 0.000000  0.000000  0.000000  0.000000  0.000000  0.000000  0.000000  0.000000  0.000000  0.000000

   7.1  2.00000    -0.200641     0.000001  0.000001  0.000004  0.000010  0.000021  0.000043  0.000090  0.000190  0.000409  0.000903
                                 0.001966  0.004045  0.007105  0.008758 -0.000458  0.001386 -0.026271 -0.056613 -0.022514 -0.011334
                                 0.087884  0.161803  0.032951  0.023939 -0.000866 -0.290699 -0.395426  0.188483  0.662737  0.355435
                                -0.010503 -0.000000  0.000000 -0.000000  0.000000 -0.000000  0.000000 -0.000000  0.000000 -0.000000
                                 0.000000 -0.000000  0.000000  0.000000 -0.000000 -0.000000  0.000000 -0.000000  0.000000 -0.000000
                                 0.000000 -0.000000  0.000000 -0.000000  0.000000  0.000000 -0.000000 -0.000000  0.000000  0.000000
                                -0.000000 -0.000000  0.000000  0.000000 -0.000000 -0.000000  0.000000  0.000000 -0.000000 -0.000000
                                 0.000000  0.000000  0.000000  0.000000  0.000000  0.000000  0.000000  0.000000  0.000000  0.000000

   8.1  0.20000     0.090134     0.000000  0.000000  0.000000  0.000000  0.000000  0.000000  0.000000  0.000000  0.000000  0.000000
                                 0.000000  0.000000  0.000000  0.000000 -0.000000  0.000000 -0.000000 -0.000000 -0.000000 -0.000000
                                 0.000000  0.000000  0.000000 -0.000000  0.000000 -0.000000 -0.000000  0.000000  0.000000  0.000000
                                -0.000000  0.000000  0.000036  0.000000  0.000314  0.000000  0.001882  0.000000  0.007355  0.000000
                                 0.021972  0.000000  0.044288 -0.000000  0.003577  0.000000  0.065140  0.000000  0.066468  0.000000
                                -0.010194  0.000000 -0.145667  0.000000 -0.074184 -0.000000 -0.186003  0.000000 -0.196848 -0.000000
                                -0.242938  0.000000 -0.167015 -0.000000 -0.111332  0.000000 -0.101136 -0.000000 -0.028325  0.000000
                                 0.003139  0.000000  0.000000  0.000000  0.000000  0.000000  0.000000  0.000000  0.000000  0.000000

   9.1  0.20000     0.090128     0.000000  0.000000  0.000000  0.000000  0.000000  0.000000  0.000000  0.000000  0.000000  0.000000
                                 0.000000  0.000000  0.000000  0.000000 -0.000000  0.000000 -0.000000 -0.000000 -0.000000 -0.000000
                                 0.000000  0.000000  0.000000  0.000000  0.000000 -0.000000 -0.000000  0.000000  0.000000  0.000000
                                -0.000000 -0.000036 -0.000000 -0.000314 -0.000000 -0.001882 -0.000000 -0.007355 -0.000000 -0.021970
                                -0.000000 -0.044286 -0.000000 -0.003575 -0.000000 -0.065136 -0.000000 -0.066462 -0.000000  0.010189
                                -0.000000  0.145664  0.000000  0.074142  0.000000  0.186069  0.000000  0.196731  0.000000  0.243120
                                 0.000000  0.166778  0.000000  0.111746  0.000000  0.100816  0.000000  0.028419  0.000000 -0.003195
                                -0.000000  0.000000  0.000000  0.000000  0.000000  0.000000  0.000000  0.000000  0.000000  0.000000

                                   1 2px     1 2px     1 2px     1 2px     1 2px     1 2px     1 2px     1 2px     1 2px     1 2px  
                                   1 2px     1 2px     1 2px     1 2px     1 2px     1 2px     1 2px     1 2px     1 2px     1 2px  
                                   1 2px     1 2px     1 2px     1 2px     1 2px     1 2px     1 4f1+    1 4f3+    1 4f1+    1 4f3+ 
                                   1 4f1+    1 4f3+    1 4f1+    1 4f3+ 

   1.2  2.00000   -78.910012     0.000014  0.000053  0.000206  0.000769  0.002805  0.009658  0.030133  0.082172  0.183298  0.308906
                                 0.340234  0.185144  0.005598  0.036948  0.012734 -0.016304  0.018461 -0.013967  0.007138 -0.002715
                                 0.000352 -0.000125  0.000046 -0.000015  0.000006 -0.000002  0.000000  0.000000  0.000000  0.000000
                                 0.000000  0.000000  0.000000  0.000000

   2.2  2.00000   -11.978512    -0.000006 -0.000022 -0.000087 -0.000327 -0.001195 -0.004146 -0.013096 -0.036655 -0.084973 -0.151193
                                -0.169277 -0.004769 -0.000326  0.297117  0.469331 -0.000221  0.313288 -0.028578  0.075514 -0.009684
                                 0.003368 -0.000883  0.000309 -0.000125  0.000044 -0.000013  0.000000  0.000000  0.000000  0.000000
                                 0.000000  0.000000  0.000000  0.000000

   3.2  2.00000    -1.301791     0.000002  0.000007  0.000029  0.000110  0.000402  0.001395  0.004412  0.012411  0.028913  0.052026
                                 0.058033 -0.002405 -0.005590 -0.125325 -0.243665  0.048202 -0.281662  0.240095 -0.148982  0.471667
                                 0.472670  0.218920  0.036597  0.003491 -0.000003  0.000038  0.000000  0.000000  0.000000  0.000000
                                 0.000000  0.000000  0.000000  0.000000

                                   1 2py     1 2py     1 2py     1 2py     1 2py     1 2py     1 2py     1 2py     1 2py     1 2py  
                                   1 2py     1 2py     1 2py     1 2py     1 2py     1 2py     1 2py     1 2py     1 2py     1 2py  
                                   1 2py     1 2py     1 2py     1 2py     1 2py     1 2py     1 4f1-    1 4f3-    1 4f1-    1 4f3- 
                                   1 4f1-    1 4f3-    1 4f1-    1 4f3- 

   1.3  2.00000   -78.910012     0.000014  0.000053  0.000206  0.000769  0.002805  0.009658  0.030133  0.082172  0.183298  0.308906
                                 0.340234  0.185144  0.005598  0.036948  0.012737 -0.016310  0.018468 -0.013973  0.007139 -0.002714
                                 0.000352 -0.000125  0.000046 -0.000015  0.000006 -0.000002  0.000000  0.000000  0.000000  0.000000
                                 0.000000  0.000000  0.000000  0.000000

   2.3  2.00000   -11.978511    -0.000006 -0.000022 -0.000087 -0.000327 -0.001195 -0.004146 -0.013096 -0.036655 -0.084973 -0.151193
                                -0.169276 -0.004772 -0.000324  0.297124  0.469276 -0.000092  0.313091 -0.028382  0.075384 -0.009621
                                 0.003352 -0.000874  0.000304 -0.000123  0.000043 -0.000013  0.000000  0.000000  0.000000  0.000000
                                 0.000000  0.000000  0.000000  0.000000

   3.3  2.00000    -1.301791     0.000002  0.000007  0.000029  0.000110  0.000402  0.001395  0.004412  0.012413  0.028908  0.052036
                                 0.058030 -0.002440 -0.005596 -0.125140 -0.244894  0.051004 -0.285761  0.244038 -0.151628  0.472948
                                 0.472340  0.219119  0.036504  0.003529 -0.000016  0.000042  0.000000  0.000000  0.000000  0.000000
                                 0.000000  0.000000  0.000000  0.000000

                                   1 3d2-    1 3d2-    1 3d2-    1 3d2-    1 3d2-    1 3d2-    1 3d2-    1 3d2-    1 3d2-    1 3d2- 
                                   1 3d2-    1 3d2-    1 3d2-    1 3d2-    1 3d2-    1 3d2-    1 3d2-    1 3d2-    1 3d2-    1 3d2- 
                                   1 5g2-    1 5g4-    1 5g2-    1 5g4-    1 5g2-    1 5g4- 

   1.4  2.00000    -6.482003     0.000171  0.001504  0.008891  0.035007  0.101949  0.219260 -0.000659  0.324345  0.332847  0.197695
                                 0.047517  0.001612 -0.003041  0.005761 -0.004200  0.003334 -0.001972  0.001005 -0.000103  0.000027
                                 0.000000  0.000000  0.000000  0.000000  0.000000  0.000000

   2.4  0.20000     0.090127    -0.000036 -0.000314 -0.001882 -0.007354 -0.021970 -0.044285 -0.003575 -0.065135 -0.066462  0.010188
                                 0.145663  0.074144  0.186061  0.196742  0.243108  0.166787  0.111741  0.100822  0.028419 -0.003189
                                 0.000000  0.000000  0.000000  0.000000  0.000000  0.000000

                                   1 2pz     1 2pz     1 2pz     1 2pz     1 2pz     1 2pz     1 2pz     1 2pz     1 2pz     1 2pz  
                                   1 2pz     1 2pz     1 2pz     1 2pz     1 2pz     1 2pz     1 2pz     1 2pz     1 2pz     1 2pz  
                                   1 2pz     1 2pz     1 2pz     1 2pz     1 2pz     1 2pz     1 4f0     1 4f2+    1 4f0     1 4f2+ 
                                   1 4f0     1 4f2+    1 4f0     1 4f2+ 

   1.5  2.00000   -78.910012     0.000014  0.000053  0.000206  0.000769  0.002805  0.009658  0.030133  0.082172  0.183298  0.308906
                                 0.340234  0.185143  0.005600  0.036946  0.012740 -0.016315  0.018475 -0.013980  0.007145 -0.002718
                                 0.000353 -0.000125  0.000046 -0.000015  0.000006 -0.000002  0.000000  0.000000  0.000000  0.000000
                                 0.000000  0.000000  0.000000  0.000000

   2.5  2.00000   -11.978511    -0.000006 -0.000022 -0.000087 -0.000327 -0.001195 -0.004146 -0.013096 -0.036655 -0.084973 -0.151193
                                -0.169275 -0.004796 -0.000295  0.297115  0.469320 -0.000278  0.313525 -0.028885  0.075728 -0.009770
                                 0.003375 -0.000883  0.000308 -0.000124  0.000044 -0.000013  0.000000  0.000000  0.000000  0.000000
                                 0.000000  0.000000  0.000000  0.000000

   3.5  2.00000    -1.301793     0.000002  0.000007  0.000029  0.000110  0.000401  0.001396  0.004413  0.012412  0.028904  0.052050
                                 0.058015 -0.002458 -0.005609 -0.124945 -0.246282  0.054295 -0.290813  0.248986 -0.154847  0.474391
                                 0.472119  0.219155  0.036514  0.003515 -0.000011  0.000040  0.000000  0.000000  0.000000  0.000000
                                 0.000000  0.000000  0.000000  0.000000

                                   1 3d1+    1 3d1+    1 3d1+    1 3d1+    1 3d1+    1 3d1+    1 3d1+    1 3d1+    1 3d1+    1 3d1+ 
                                   1 3d1+    1 3d1+    1 3d1+    1 3d1+    1 3d1+    1 3d1+    1 3d1+    1 3d1+    1 3d1+    1 3d1+ 
                                   1 5g1+    1 5g3+    1 5g1+    1 5g3+    1 5g1+    1 5g3+ 

   1.6  2.00000    -6.482002     0.000171  0.001504  0.008891  0.035007  0.101950  0.219260 -0.000659  0.324345  0.332847  0.197695
                                 0.047517  0.001611 -0.003041  0.005761 -0.004199  0.003333 -0.001972  0.001005 -0.000103  0.000027
                                 0.000000  0.000000  0.000000  0.000000  0.000000  0.000000

   2.6  0.20000     0.090128    -0.000036 -0.000314 -0.001882 -0.007355 -0.021970 -0.044285 -0.003576 -0.065135 -0.066462  0.010188
                                 0.145664  0.074143  0.186066  0.196736  0.243113  0.166784  0.111742  0.100818  0.028419 -0.003193
                                 0.000000  0.000000  0.000000  0.000000  0.000000  0.000000

                                   1 3d1-    1 3d1-    1 3d1-    1 3d1-    1 3d1-    1 3d1-    1 3d1-    1 3d1-    1 3d1-    1 3d1- 
                                   1 3d1-    1 3d1-    1 3d1-    1 3d1-    1 3d1-    1 3d1-    1 3d1-    1 3d1-    1 3d1-    1 3d1- 
                                   1 5g1-    1 5g3-    1 5g1-    1 5g3-    1 5g1-    1 5g3- 

   1.7  2.00000    -6.482002     0.000171  0.001504  0.008891  0.035007  0.101950  0.219260 -0.000659  0.324345  0.332847  0.197695
                                 0.047517  0.001611 -0.003041  0.005761 -0.004199  0.003333 -0.001972  0.001005 -0.000103  0.000027
                                 0.000000  0.000000  0.000000  0.000000  0.000000  0.000000

   2.7  0.20000     0.090128    -0.000036 -0.000314 -0.001882 -0.007355 -0.021970 -0.044286 -0.003575 -0.065135 -0.066462  0.010189
                                 0.145664  0.074143  0.186066  0.196734  0.243117  0.166781  0.111743  0.100819  0.028419 -0.003193
                                 0.000000  0.000000  0.000000  0.000000  0.000000  0.000000
 

 EXTRA SYMMETRY OF MOS IN SYMMETRY 1:   1 1 1 3 2 1 1 3 2 1   2 3 3 2 1 3 2 6 4 5   1 3 2 3 2 4 6 5 1 3   2 2 3 1 4 6 5 2 3 2
                                        3 1 3 2 1 3 2 1 3 2   1 3 2 1 3 2 1 3 2 1   1 3 2 1 3 2 1 1 3 2   1 1 1 1 1 1 1 1 1 1
 EXTRA SYMMETRY OF MOS IN SYMMETRY 2:   1 1 1 1 1 2 3 1 1 2   3 1 2 3 1 3 2 1 1 1   1 1 1 1 1 1 1 1 1 1   1 1 1 1
 EXTRA SYMMETRY OF MOS IN SYMMETRY 3:   1 1 1 1 1 3 2 1 1 2   3 1 2 3 1 2 3 1 1 1   1 1 1 1 1 1 1 1 1 1   1 1 1 1
 EXTRA SYMMETRY OF MOS IN SYMMETRY 4:   1 1 1 1 1 3 2 1 1 2   3 1 1 2 3 1 1 1 1 1   1 1 1 1 1 1
 EXTRA SYMMETRY OF MOS IN SYMMETRY 5:   1 1 1 1 1 3 2 1 1 2   3 1 2 3 1 3 2 1 1 1   1 1 1 1 1 1 1 1 1 1   1 1 1 1
 EXTRA SYMMETRY OF MOS IN SYMMETRY 6:   1 1 1 1 1 2 3 1 1 2   3 1 1 3 2 1 1 1 1 1   1 1 1 1 1 1
 EXTRA SYMMETRY OF MOS IN SYMMETRY 7:   1 1 1 1 1 3 2 1 1 2   3 1 1 2 3 1 1 1 1 1   1 1 1 1 1 1

 Natural orbital dump (state averaged) at molpro section  5202.2    (Orbital set 2)


 CI vector for state symmetry 1
 ==============================

 0a 0 0 0         -0.6437963   0.7651969
 a0 0 0 0          0.7651969   0.6437963

 TOTAL ENERGIES                     -3382.96782803 -3382.96782774

 CI vector for state symmetry 2
 ==============================

 00 a 0 0          1.0000000

 TOTAL ENERGIES                     -3382.96782791

 CI vector for state symmetry 3
 ==============================

 00 0 a 0          1.0000000

 TOTAL ENERGIES                     -3382.96782775

 CI vector for state symmetry 4
 ==============================

 00 0 0 a          1.0000000

 TOTAL ENERGIES                     -3382.96782800



 **********************************************************************************************************************************
 DATASETS  * FILE   NREC   LENGTH (MB)   RECORD NAMES
              1      23       54.56       500      610      700      900      950      970     1000      129      960     1700   
                                          VAR    BASINP    GEOM    SYMINP    ZMAT    AOBASIS   BASIS     P2S    ABASIS    OPER   
                                         1101     1401     1411     1412     1650     1100     1400     1410     1200     1210   
                                          SR      EKINR    POTR     PVPR    MOLCAS      S      EKIN      POT      H0       H01  
                                         1080     1600     1380   
                                         AOSYM     SMH     JKOP   

              2       6        8.65       200      700     1000      520     4202     5202   
                                        OPTIONS   GEOM     BASIS   MCVARS     RHF     MCSCF   

 PROGRAMS   *        TOTAL     MULTI       POP       RHF       INT
 CPU TIMES  *        61.65     20.73      0.00      0.95     39.73
 REAL TIME  *        77.46 SEC
 DISK USED  *         1.32 GB      
 SF USED    *       143.34 MB      
 GA USED    *         0.00 MB       (max)       0.00 MB       (current)
 **********************************************************************************************************************************


 PROGRAM * RHF-SCF (OPEN SHELL)       Authors: W. Meyer, H.-J. Werner


 NUMBER OF ELECTRONS:      20+   19-    SPACE SYMMETRY=1    SPIN SYMMETRY: Doublet 
 CONVERGENCE THRESHOLDS:    1.00E-05 (Density)    1.00E-07 (Energy)
 MAX. NUMBER OF ITERATIONS:        0
 INTERPOLATION TYPE:            DIIS
 INTERPOLATION STEPS:              2 (START)      1 (STEP)
 LEVEL SHIFTS:                 -0.60 (CLOSED) -0.30 (OPEN) 

 Number of closed-shell orbitals:   19 (   7   3   3   1   3   1   1   0 )
 Number of open-shell orbitals:      1 (   1   0   0   0   0   0   0   0 )


 
 Extra symmetries of mos in symmetry 1:   1   1   1   3   2   1   1   3   2
 Molecular orbitals read from record     5202.2  Type=MCSCF/NATURAL (state averaged)

 Molecular orbital dump at record        2101.2

 ITERATION    DDIFF          GRAD             ENERGY        2-EL.EN.            DIPOLE MOMENTS         DIIS   ORB.
    1      0.000D+00      0.000D+00     -3382.96782791   2584.507245    0.00000    0.00000    0.00000    0    start

 Final alpha occupancy:   8   3   3   1   3   1   1   0
 Final beta  occupancy:   7   3   3   1   3   1   1   0

 !RHF STATE 1.1 Energy              -3382.967827911003
 Nuclear energy                         0.00000000
 One-electron energy                -4675.22145053
 Two-electron energy                 1292.25362262
 Virial quotient                       -0.91548543
 !RHF STATE 1.1 Dipole moment           0.00000000     0.00000000     0.00000000
 Dipole moment /Debye                   0.00000000     0.00000000     0.00000000

 Orbital energies:

         1.1          2.1          3.1          4.1          5.1          6.1          7.1          8.1          9.1         10.1
   -629.653008   -88.862982   -15.309159    -6.482003    -6.482002    -2.236156    -0.200641     0.090134     0.090128     0.023212

         1.2          2.2          3.2          4.2          5.2
    -78.910012   -11.978512    -1.301791     0.012029     0.043820

         1.3          2.3          3.3          4.3          5.3
    -78.910012   -11.978511    -1.301791     0.012029     0.043820

         1.4          2.4          3.4
     -6.482003     0.090127     0.033193

         1.5          2.5          3.5          4.5          5.5
    -78.910012   -11.978511    -1.301793     0.012029     0.043820

         1.6          2.6          3.6
     -6.482002     0.090128     0.033193

         1.7          2.7          3.7
     -6.482002     0.090128     0.033193

         1.8          2.8
      0.151489     0.486042

 HOMO      8.1     0.090134 =       2.4527eV
 LUMO      4.5     0.012029 =       0.3273eV
 LUMO-HOMO        -0.078105 =      -2.1253eV


 **********************************************************************************************************************************
 DATASETS  * FILE   NREC   LENGTH (MB)   RECORD NAMES
              1      23       54.56       500      610      700      900      950      970     1000      129      960     1700   
                                          VAR    BASINP    GEOM    SYMINP    ZMAT    AOBASIS   BASIS     P2S    ABASIS    OPER   
                                         1101     1401     1411     1412     1650     1100     1400     1410     1200     1210   
                                          SR      EKINR    POTR     PVPR    MOLCAS      S      EKIN      POT      H0       H01  
                                         1080     1600     1380   
                                         AOSYM     SMH     JKOP   

              2       7       11.78       200      700     1000      520     4202     5202     2101   
                                        OPTIONS   GEOM     BASIS   MCVARS     RHF     MCSCF     RHF  

 PROGRAMS   *        TOTAL       RHF     MULTI       POP       RHF       INT
 CPU TIMES  *        61.69      0.04     20.73      0.00      0.95     39.73
 REAL TIME  *        77.56 SEC
 DISK USED  *         1.32 GB      
 SF USED    *       143.34 MB      
 GA USED    *         0.00 MB       (max)       0.00 MB       (current)
 **********************************************************************************************************************************
 SETTING SCF(1)         =     -3382.96782791  AU                              
 SETTING _CC_NORM_MAX   =         2.00000000                                  


 PROGRAM * CCSD (Restricted open-shell coupled cluster)     Authors: C. Hampel, H.-J. Werner, 1991, M. Deegan, P.J. Knowles, 1992


 Convergence thresholds:  THRVAR = 1.00D-08  THRDEN = 1.00D-06

 CCSD(T)     terms to be evaluated (factor= 1.000)


 Number of core orbitals:          14 (   5   2   2   1   2   1   1   0 )
 Number of closed-shell orbitals:   5 (   2   1   1   0   1   0   0   0 )
 Number of active  orbitals:        1 (   1   0   0   0   0   0   0   0 )
 Number of external orbitals:     244 (  72  31  31  25  31  25  25   4 )

 Memory could be reduced to 26.09 Mwords without degradation in triples

 Number of N-1 electron functions:              11
 Number of N-2 electron functions:              55
 Number of singly external CSFs:               551
 Number of doubly external CSFs:            350358
 Total number of CSFs:                      350909

 Molecular orbitals read from record     2101.2  Type=RHF/CANONICAL (state 1.1)

 Integral transformation finished. Total CPU:   0.55 sec, npass=  1  Memory used:   3.96 MW

 Starting RMP2 calculation

 Wavefunction is spin-projected

 ITER.      SQ.NORM     CORR.ENERGY   TOTAL ENERGY   ENERGY CHANGE        DEN1      VAR(S)    VAR(P)  DIIS     TIME
   1      1.10618903    -0.30093958 -3383.26876749    -0.30093958    -0.00174959  0.87D-04  0.17D-02  1  1     0.61
   2      1.11158029    -0.30295299 -3383.27078090    -0.00201341    -0.00004794  0.76D-05  0.53D-04  2  2     0.73
   3      1.11273939    -0.30324619 -3383.27107410    -0.00029320    -0.00000066  0.37D-06  0.48D-06  3  3     0.75
   4      1.11279080    -0.30325319 -3383.27108110    -0.00000699    -0.00000002  0.18D-07  0.95D-08  4  4     0.78
   5      1.11278959    -0.30325262 -3383.27108053     0.00000056    -0.00000000  0.61D-09  0.13D-09  5  5     0.80

 Norm of t1 vector:      0.04877375      S-energy:    -0.00297786      T1 diagnostic:  0.00822619
 Norm of t2 vector:      0.33228107      P-energy:    -0.30027477
                                         Alpha-Beta:  -0.22394468
                                         Alpha-Alpha: -0.04421212
                                         Beta-Beta:   -0.03211797

 Spin contamination <S**2-Sz**2-Sz>     0.00000000
  Reference energy                  -3382.967827911003
  RHF-RMP2 correlation energy          -0.303252622594
 !RHF-RMP2 energy                   -3383.271080533598
 (NB above energy spin projected)

 Starting RCCSD calculation

 ITER.      SQ.NORM     CORR.ENERGY   TOTAL ENERGY   ENERGY CHANGE        DEN1      VAR(S)    VAR(P)  DIIS     TIME
   1      1.11150989    -0.30732416 -3383.27515207    -0.30732416    -0.00694945  0.20D-02  0.33D-02  1  1     1.09
   2      1.12897667    -0.31455955 -3383.28238746    -0.00723539    -0.00082239  0.36D-03  0.66D-03  2  2     1.31
   3      1.13901639    -0.31630294 -3383.28413085    -0.00174339    -0.00021503  0.15D-03  0.16D-03  3  3     1.54
   4      1.14669334    -0.31728539 -3383.28511330    -0.00098245    -0.00005426  0.45D-04  0.33D-04  4  4     1.76
   5      1.15175475    -0.31780679 -3383.28563470    -0.00052140    -0.00001832  0.17D-04  0.96D-05  5  5     1.98
[...]
                                -0.169781 -0.004850  0.000260  0.299211  0.469716  0.001424  0.315787 -0.030253  0.071763 -0.013297
                                 0.002453 -0.000791  0.000288 -0.000095  0.000036 -0.000011  0.000000  0.000000  0.000000  0.000000
                                 0.000000  0.000000  0.000000  0.000000

                                   1 3d2-    1 3d2-    1 3d2-    1 3d2-    1 3d2-    1 3d2-    1 3d2-    1 3d2-    1 3d2-    1 3d2- 
                                   1 3d2-    1 3d2-    1 3d2-    1 3d2-    1 3d2-    1 3d2-    1 3d2-    1 3d2-    1 3d2-    1 3d2- 
                                   1 5g2-    1 5g4-    1 5g2-    1 5g4-    1 5g2-    1 5g4- 

   1.4  2.00000   -12.000348     0.000174  0.001527  0.009035  0.035565  0.103624  0.221661  0.000625  0.327526  0.335621  0.194161
                                 0.030440  0.006142 -0.012281  0.010458 -0.006749  0.004941 -0.002796  0.001376 -0.000141  0.000035
                                 0.000000  0.000000  0.000000  0.000000  0.000000  0.000000

                                   1 2pz     1 2pz     1 2pz     1 2pz     1 2pz     1 2pz     1 2pz     1 2pz     1 2pz     1 2pz  
                                   1 2pz     1 2pz     1 2pz     1 2pz     1 2pz     1 2pz     1 2pz     1 2pz     1 2pz     1 2pz  
                                   1 2pz     1 2pz     1 2pz     1 2pz     1 2pz     1 2pz     1 4f0     1 4f2+    1 4f0     1 4f2+ 
                                   1 4f0     1 4f2+    1 4f0     1 4f2+ 

   1.5  2.00000   -84.609093     0.000014  0.000053  0.000206  0.000770  0.002806  0.009663  0.030149  0.082224  0.183438  0.309031
                                 0.340198  0.185247  0.005291  0.036841  0.012513 -0.015987  0.018113 -0.013692  0.006978 -0.002648
                                 0.000346 -0.000121  0.000044 -0.000015  0.000006 -0.000002  0.000000  0.000000  0.000000  0.000000
                                 0.000000  0.000000  0.000000  0.000000

   2.5  2.00000   -17.467437    -0.000006 -0.000022 -0.000088 -0.000328 -0.001200 -0.004162 -0.013148 -0.036803 -0.085339 -0.151776
                                -0.169781 -0.004850  0.000260  0.299211  0.469716  0.001424  0.315787 -0.030253  0.071763 -0.013297
                                 0.002453 -0.000791  0.000288 -0.000095  0.000036 -0.000011  0.000000  0.000000  0.000000  0.000000
                                 0.000000  0.000000  0.000000  0.000000

                                   1 3d1+    1 3d1+    1 3d1+    1 3d1+    1 3d1+    1 3d1+    1 3d1+    1 3d1+    1 3d1+    1 3d1+ 
                                   1 3d1+    1 3d1+    1 3d1+    1 3d1+    1 3d1+    1 3d1+    1 3d1+    1 3d1+    1 3d1+    1 3d1+ 
                                   1 5g1+    1 5g3+    1 5g1+    1 5g3+    1 5g1+    1 5g3+ 

   1.6  2.00000   -12.000348     0.000174  0.001527  0.009035  0.035565  0.103624  0.221661  0.000625  0.327526  0.335621  0.194161
                                 0.030440  0.006142 -0.012281  0.010458 -0.006749  0.004941 -0.002796  0.001376 -0.000141  0.000035
                                 0.000000  0.000000  0.000000  0.000000  0.000000  0.000000

                                   1 3d1-    1 3d1-    1 3d1-    1 3d1-    1 3d1-    1 3d1-    1 3d1-    1 3d1-    1 3d1-    1 3d1- 
                                   1 3d1-    1 3d1-    1 3d1-    1 3d1-    1 3d1-    1 3d1-    1 3d1-    1 3d1-    1 3d1-    1 3d1- 
                                   1 5g1-    1 5g3-    1 5g1-    1 5g3-    1 5g1-    1 5g3- 

   1.7  2.00000   -12.000348     0.000174  0.001527  0.009035  0.035565  0.103624  0.221661  0.000625  0.327526  0.335621  0.194161
                                 0.030440  0.006142 -0.012281  0.010458 -0.006749  0.004941 -0.002796  0.001376 -0.000141  0.000035
                                 0.000000  0.000000  0.000000  0.000000  0.000000  0.000000

 Total charge:   9.000000000000
 

 EXTRA SYMMETRY OF MOS IN SYMMETRY 1:   1 1 1 3 2 1 3 2 1 3   2 1 6 4 5 2 3 1 6 5   4 3 2 1 2 3 1 2 3 2   3 5 6 4 2 3 1 2 3 2
                                        3 1 3 2 1 3 2 1 3 2   1 3 2 1 3 2 1 3 2 1   1 3 2 1 3 2 1 1 3 2   1 1 1 1 1 1 1 1 1 1
 EXTRA SYMMETRY OF MOS IN SYMMETRY 2:   1 1 1 1 3 2 1 3 2 1   2 3 1 3 2 1 1 1 1 1   1 1 1 1 1 1 1 1 1 1   1 1 1 1
 EXTRA SYMMETRY OF MOS IN SYMMETRY 3:   1 1 1 1 3 2 1 2 3 1   2 3 1 3 2 1 1 1 1 1   1 1 1 1 1 1 1 1 1 1   1 1 1 1
 EXTRA SYMMETRY OF MOS IN SYMMETRY 4:   1 1 1 2 3 1 2 3 1 1   1 1 3 2 1 1 1 1 1 1   1 1 1 1 1 1
 EXTRA SYMMETRY OF MOS IN SYMMETRY 5:   1 1 1 1 3 2 1 2 3 1   2 3 1 2 3 1 1 1 1 1   1 1 1 1 1 1 1 1 1 1   1 1 1 1
 EXTRA SYMMETRY OF MOS IN SYMMETRY 6:   1 1 1 3 2 1 2 3 1 1   1 1 3 2 1 1 1 1 1 1   1 1 1 1 1 1
 EXTRA SYMMETRY OF MOS IN SYMMETRY 7:   1 1 1 2 3 1 2 3 1 1   1 1 3 2 1 1 1 1 1 1   1 1 1 1 1 1

 Natural orbital dump at molpro section  5202.2    (Orbital set 2)


 CI vector
 =========

              1.0000000

 TOTAL ENERGIES                     -3359.41541572



 **********************************************************************************************************************************
 DATASETS  * FILE   NREC   LENGTH (MB)   RECORD NAMES
              1      23       56.90       500      610      700      900      950      970     1000      129      960     1700   
                                          VAR    BASINP    GEOM    SYMINP    ZMAT    AOBASIS   BASIS     P2S    ABASIS    OPER   
                                         1101     1401     1411     1412     1650     1100     1400     1410     1200     1210   
                                          SR      EKINR    POTR     PVPR    MOLCAS      S      EKIN      POT      H0       H01  
                                         1080     1600     1380   
                                         AOSYM     SMH     JKOP   

              2      21       50.81       200      700     1000      520     4202     5202     2101     2103     5202(1)  2105   
                                        OPTIONS   GEOM     BASIS   MCVARS     RHF     MCSCF     RHF      RHF     MCSCF     RHF  
                                         2107     2109     2111     2113     2115     2117     2119     2121     2123     2125   
                                          RHF      RHF      RHF      RHF      RHF      RHF      RHF      RHF      RHF      RHF  
                                         2127   
                                          RHF  

 PROGRAMS   *        TOTAL     MULTI       POP       RHF  RCCSD(T)       RHF     MULTI       POP       RHF  RCCSD(T)       RHF
 CPU TIMES  *       221.52      0.46      0.00      0.58      1.01      0.02      1.55      0.00      0.64      1.72      0.03
 REAL TIME  *       319.85 SEC
 DISK USED  *         2.39 GB      
 SF USED    *       390.59 MB      
 GA USED    *         0.00 MB       (max)       0.00 MB       (current)
 **********************************************************************************************************************************


 PROGRAM * RHF-SCF (CLOSED SHELL)       Authors: W. Meyer, H.-J. Werner


 NUMBER OF ELECTRONS:      15+   15-    SPACE SYMMETRY=1    SPIN SYMMETRY: Singlet 
 CONVERGENCE THRESHOLDS:    1.00E-05 (Density)    1.00E-07 (Energy)
 MAX. NUMBER OF ITERATIONS:        0
 INTERPOLATION TYPE:            DIIS
 INTERPOLATION STEPS:              2 (START)      1 (STEP)
 LEVEL SHIFTS:                  0.00 (CLOSED)  0.00 (OPEN) 

 Number of closed-shell orbitals:   15 (   6   2   2   1   2   1   1   0 )


 Molecular orbitals read from record     5202.2  Type=MCSCF/NATURAL (state 1.1)

 Molecular orbital dump at record        2129.2

 ITERATION    DDIFF          GRAD             ENERGY        2-EL.EN.            DIPOLE MOMENTS         DIIS   ORB.
    1      0.000D+00      0.000D+00     -3359.41541572   2223.467281    0.00000    0.00000    0.00000    0    start

 Final occupancy:   6   2   2   1   2   1   1   0

 !RHF STATE 1.1 Energy              -3359.415415722888
 Nuclear energy                         0.00000000
 One-electron energy                -4471.14905629
 Two-electron energy                 1111.73364057
 Virial quotient                       -0.91498665
 !RHF STATE 1.1 Dipole moment           0.00000000     0.00000000     0.00000000
 Dipole moment /Debye                   0.00000000     0.00000000     0.00000000

 Orbital energies:

         1.1          2.1          3.1          4.1          5.1          6.1          7.1          8.1
   -635.485108   -94.554019   -20.821052   -12.000348   -12.000348    -6.749376    -3.876098    -3.876098

         1.2          2.2          3.2          4.2
    -84.609093   -17.467437    -5.277486    -2.737861

         1.3          2.3          3.3          4.3
    -84.609093   -17.467437    -5.277486    -2.737861

         1.4          2.4          3.4
    -12.000348    -3.876098    -2.213076

         1.5          2.5          3.5          4.5
    -84.609093   -17.467437    -5.277486    -2.737861

         1.6          2.6          3.6
    -12.000348    -3.876098    -2.213076

         1.7          2.7          3.7
    -12.000348    -3.876098    -2.213076

         1.8          2.8
     -2.616181    -1.627477

 HOMO      6.1    -6.749376 =    -183.6599eV
 LUMO      3.2    -5.277486 =    -143.6077eV
 LUMO-HOMO         1.471890 =      40.0522eV


 **********************************************************************************************************************************
 DATASETS  * FILE   NREC   LENGTH (MB)   RECORD NAMES
              1      23       56.90       500      610      700      900      950      970     1000      129      960     1700   
                                          VAR    BASINP    GEOM    SYMINP    ZMAT    AOBASIS   BASIS     P2S    ABASIS    OPER   
                                         1101     1401     1411     1412     1650     1100     1400     1410     1200     1210   
                                          SR      EKINR    POTR     PVPR    MOLCAS      S      EKIN      POT      H0       H01  
                                         1080     1600     1380   
                                         AOSYM     SMH     JKOP   

              2      22       53.69       200      700     1000      520     4202     5202     2101     2103     5202(1)  2105   
                                        OPTIONS   GEOM     BASIS   MCVARS     RHF     MCSCF     RHF      RHF     MCSCF     RHF  
                                         2107     2109     2111     2113     2115     2117     2119     2121     2123     2125   
                                          RHF      RHF      RHF      RHF      RHF      RHF      RHF      RHF      RHF      RHF  
                                         2127     2129   
                                          RHF      RHF  

 PROGRAMS   *        TOTAL       RHF     MULTI       POP       RHF  RCCSD(T)       RHF     MULTI       POP       RHF  RCCSD(T)
 CPU TIMES  *       221.59      0.07      0.46      0.00      0.58      1.01      0.02      1.55      0.00      0.64      1.72
 REAL TIME  *       319.95 SEC
 DISK USED  *         2.39 GB      
 SF USED    *       390.59 MB      
 GA USED    *         0.00 MB       (max)       0.00 MB       (current)
 **********************************************************************************************************************************
 SETTING SCF(15)        =     -3359.41541572  AU                              
 SETTING _CC_NORM_MAX   =         2.00000000                                  


 PROGRAM * CCSD (Restricted open-shell coupled cluster)     Authors: C. Hampel, H.-J. Werner, 1991, M. Deegan, P.J. Knowles, 1992


 Convergence thresholds:  THRVAR = 1.00D-08  THRDEN = 1.00D-06

 CCSD(T)     terms to be evaluated (factor= 1.000)


 Number of core orbitals:          14 (   5   2   2   1   2   1   1   0 )
 Number of closed-shell orbitals:   1 (   1   0   0   0   0   0   0   0 )
 Number of external orbitals:     249 (  74  32  32  25  32  25  25   4 )

 Memory could be reduced to 16.04 Mwords without degradation in triples

 Number of N-1 electron functions:               2
 Number of N-2 electron functions:               1
 Number of singly external CSFs:               148
 Number of doubly external CSFs:             10439
 Total number of CSFs:                       10587

 Molecular orbitals read from record     2129.2  Type=RHF/CANONICAL (state 1.1)

 Integral transformation finished. Total CPU:   0.09 sec, npass=  1  Memory used:   1.24 MW

 Starting RMP2 calculation

 Wavefunction is spin-projected

 ITER.      SQ.NORM     CORR.ENERGY   TOTAL ENERGY   ENERGY CHANGE        DEN1      VAR(S)    VAR(P)  DIIS     TIME
   1      1.01157287    -0.04102200 -3359.45643772    -0.04102200    -0.00012125  0.14D-21  0.37D-04  1  1     0.12
   2      1.01165694    -0.04115079 -3359.45656652    -0.00012879    -0.00000001  0.21D-24  0.21D-08  2  2     0.13
   3      1.01165730    -0.04115118 -3359.45656690    -0.00000039    -0.00000000  0.57D-29  0.88D-13  3  3     0.13

 Norm of t1 vector:      0.00000000      S-energy:    -0.00000000      T1 diagnostic:  0.00000000
 Norm of t2 vector:      0.10796900      P-energy:    -0.04115118
                                         Alpha-Beta:  -0.04115118
                                         Alpha-Alpha:  0.00000000
                                         Beta-Beta:    0.00000000

 Spin contamination <S**2-Sz**2-Sz>     0.00000000
  Reference energy                  -3359.415415722888
  RHF-RMP2 correlation energy          -0.041151181699
 !RHF-RMP2 energy                   -3359.456566904587
 (NB above energy spin projected)

 Starting RCCSD calculation

 ITER.      SQ.NORM     CORR.ENERGY   TOTAL ENERGY   ENERGY CHANGE        DEN1      VAR(S)    VAR(P)  DIIS     TIME
   1      1.01695426    -0.04767484 -3359.46309057    -0.04767484    -0.00310530  0.32D-05  0.93D-03  1  1     0.16
   2      1.02144227    -0.05220623 -3359.46762195    -0.00453139    -0.00004287  0.75D-08  0.77D-05  2  2     0.19
   3      1.02176479    -0.05245842 -3359.46787415    -0.00025219    -0.00000108  0.31D-08  0.17D-06  3  3     0.23
   4      1.02179436    -0.05247719 -3359.46789291    -0.00001877    -0.00000003  0.27D-09  0.31D-08  4  4     0.27
   5      1.02179921    -0.05248076 -3359.46789648    -0.00000356    -0.00000000  0.27D-10  0.27D-09  5  5     0.30
   6      1.02179917    -0.05248072 -3359.46789644     0.00000004    -0.00000001  0.41D-10  0.62D-09  6  6     0.33

 Norm of t1 vector:      0.00273519      S-energy:    -0.00000000      T1 diagnostic:  0.00136759
                                                                       D1 diagnostic:  0.00193407
 Norm of t2 vector:      0.14762007      P-energy:    -0.05248072
                                         Alpha-Beta:  -0.05248072
                                         Alpha-Alpha:  0.00000000
                                         Beta-Beta:    0.00000000

 Doubles amplitudes (print threshold =  0.500E-01):

         I         J         SYM. A    SYM. B    A         B      T(IJ, AB) [Alpha-Beta]

         1         1         2         2         1         1     -0.08241200
         1         1         3         3         1         1     -0.08241200
         1         1         5         5         1         1     -0.08241209

 Spin contamination <S**2-Sz**2-Sz>     0.00000000

 Memory could be reduced to 15.79 Mwords without degradation in triples
 

  Correlated core orbitals:             6.1
  Orbital energies:                    -6.7494
 
  RCCSD core-core energy               -0.052480718936
 

 RESULTS
 =======

  Reference energy                  -3359.415415722888
  RCCSD singles energy                 -0.000000000000
  RCCSD pair energy                    -0.052480718936
  RCCSD correlation energy             -0.052480718936
  Triples (T) contribution              0.000000000000
  Total correlation energy             -0.052480718936
 
  RHF-RCCSD energy                  -3359.467896441824
  RHF-RCCSD[T] energy               -3359.467896441824
  RHF-RCCSD-T energy                -3359.467896441824
 !RHF-RCCSD(T) energy               -3359.467896441824

 Program statistics:

 Available memory in ccsd:               511999882
 Min. memory needed in ccsd:                315389
 Max. memory used in ccsd:                  315389
 Max. memory used in cckext:                447359 ( 6 integral passes)
 Max. memory used in cckint:               1238219 ( 1 integral passes)



 **********************************************************************************************************************************
 DATASETS  * FILE   NREC   LENGTH (MB)   RECORD NAMES
              1      23       56.90       500      610      700      900      950      970     1000      129      960     1700   
                                          VAR    BASINP    GEOM    SYMINP    ZMAT    AOBASIS   BASIS     P2S    ABASIS    OPER   
                                         1101     1401     1411     1412     1650     1100     1400     1410     1200     1210   
                                          SR      EKINR    POTR     PVPR    MOLCAS      S      EKIN      POT      H0       H01  
                                         1080     1600     1380   
                                         AOSYM     SMH     JKOP   

              2      22       53.69       200      700     1000      520     4202     5202     2101     2103     5202(1)  2105   
                                        OPTIONS   GEOM     BASIS   MCVARS     RHF     MCSCF     RHF      RHF     MCSCF     RHF  
                                         2107     2109     2111     2113     2115     2117     2119     2121     2123     2125   
                                          RHF      RHF      RHF      RHF      RHF      RHF      RHF      RHF      RHF      RHF  
                                         2127     2129   
                                          RHF      RHF  

 PROGRAMS   *        TOTAL  RCCSD(T)       RHF     MULTI       POP       RHF  RCCSD(T)       RHF     MULTI       POP       RHF
 CPU TIMES  *       222.13      0.53      0.07      0.46      0.00      0.58      1.01      0.02      1.55      0.00      0.64
 REAL TIME  *       320.70 SEC
 DISK USED  *         2.39 GB      
 SF USED    *       390.59 MB      
 GA USED    *         0.00 MB       (max)       0.00 MB       (current)
 **********************************************************************************************************************************
 SETTING CCSD(15)       =     -3359.46789644  AU                              
 Output type csv         
                                                                                                                                                                                                                                                                

         SCF,CCSD
   -3382.967828,   -3383.299108
   -3382.924224,   -3383.250346
   -3382.921675,   -3383.290488
   -3382.772273,   -3383.076205
   -3382.782977,   -3383.068554
   -3382.361699,   -3382.624030
   -3382.185450,   -3382.435904
   -3381.925777,   -3382.166892
   -3381.642610,   -3381.876645
   -3379.436996,   -3379.639700
   -3376.708888,   -3376.872363
   -3373.435628,   -3373.551842
   -3369.367695,   -3369.465361
   -3364.700846,   -3364.777070
   -3359.415416,   -3359.467896
                                                  

 RCCSD(T)/USERDEF energy=  -3359.467896441824

        RCCSD(T)        MULTI           RHF-SCF         RCCSD(T)        RHF-SCF         MULTI           RHF-SCF         RCCSD(T)
  -3359.46789644  -3359.41541572  -3359.41541572  -3364.77707012  -3364.70084626  -3364.70084626  -3364.70121023  -3369.46536100
 **********************************************************************************************************************************
 Molpro calculation terminated
 Variable memory released
