<?xml version="1.0"?>
<molpro xmlns="http://www.molpro.net/schema/molpro-output"
  xmlns:xsd="http://www.w3.org/1999/XMLSchema"
  xmlns:cml="http://www.xml-cml.org/schema"
  xmlns:stm="http://www.xml-cml.org/schema"
  xmlns:xhtml="http://www.w3.org/1999/xhtml">
 <!--

 Nodes     nprocs
 nid02302    11
 Number of processes for MPI-2 version of Molpro:   nprocs(total)=   12   nprocs(compute)=   11   nprocs(helper)=    1

 Using customized tuning parameters: mindgm=7; mindgv=16; mindgc=1; mindgr=1; noblas=0; minvec=7
 default implementation of scratch files=sf

 --><job>
  <!--

 Variables initialized (889), CPU time= 0.02 sec
 Commands  initialized (702), CPU time= 0.02 sec, 572 directives.
 Default parameters read. Elapsed time= 0.12 sec

 Checking input...
 Passed
1


                                         ***  PROGRAM SYSTEM MOLPRO  ***
                                       Copyright, TTI GmbH Stuttgart, 2015
                                    Version 2015.1 linked Dec 29 2018 15:55:43


 **********************************************************************************************************************************
 LABEL *   Calculation for Y atom, singlet and triplet
  64 bit mpp version                                                                     DATE: 26-Apr-23          TIME: 20:01:11
 **********************************************************************************************************************************

 SHA1:             19cd028119e0e09f93f0674bd8af7968d9b3eff6
 **********************************************************************************************************************************
  -->
  <!--

 THRESHOLDS:

 ZERO    =  1.00D-12  ONEINT  =  1.00D-12  TWOINT  =  1.00D-15  PREFAC  =  1.00D-14  LOCALI  =  1.00D-09  EORDER  =  1.00D-04
 ENERGY  =  0.00D+00  ETEST   =  0.00D+00  EDENS   =  0.00D+00  THRDEDEF=  1.00D-06  GRADIENT=  1.00D-02  STEP    =  1.00D-03
 ORBITAL =  1.00D-05  CIVEC   =  1.00D-05  COEFF   =  1.00D-04  PRINTCI =  5.00D-02  PUNCHCI =  9.90D+01  OPTGRAD =  3.00D-04
 OPTENERG=  1.00D-06  OPTSTEP =  3.00D-04  THRGRAD =  1.00D-10  COMPRESS=  1.00D-11  VARMIN  =  1.00D-07  VARMAX  =  1.00D-03
 THRDOUB =  0.00D+00  THRDIV  =  1.00D-05  THRRED  =  1.00D-07  THRPSP  =  1.00D+00  THRDC   =  1.00D-10  THRCS   =  1.00D-10
 THRNRM  =  1.00D-08  THREQ   =  0.00D+00  THRDE   =  1.00D+00  THRREF  =  1.00D-05  SPARFAC =  1.00D+00  THRDLP  =  1.00D-07
 THRDIA  =  1.00D-10  THRDLS  =  1.00D-07  THRGPS  =  0.00D+00  THRKEX  =  0.00D+00  THRDIS  =  2.00D-01  THRVAR  =  1.00D-10
 THRLOC  =  1.00D-06  THRGAP  =  1.00D-06  THRLOCT = -1.00D+00  THRGAPT = -1.00D+00  THRORB  =  1.00D-06  THRMLTP =  0.00D+00
 THRCPQCI=  1.00D-10  KEXTA   =  0.00D+00  THRCOARS=  0.00D+00  SYMTOL  =  1.00D-06  GRADTOL =  1.00D-06  THROVL  =  1.00D-08
 THRORTH =  1.00D-08  GRID    =  1.00D-06  GRIDMAX =  1.00D-03  DTMAX   =  0.00D+00  THROCCDE=  1.00D-01  THROCCDE=  1.00D-01



 THRESHOLDS:

 ZERO    =  1.00D-12  ONEINT  =  1.00D-12  TWOINT  =  1.00D-15  PREFAC  =  1.00D-14  LOCALI  =  1.00D-09  EORDER  =  1.00D-04
 ENERGY  =  0.00D+00  ETEST   =  0.00D+00  EDENS   =  0.00D+00  THRDEDEF=  1.00D-06  GRADIENT=  1.00D-02  STEP    =  1.00D-03
 ORBITAL =  1.00D-05  CIVEC   =  1.00D-05  COEFF   =  1.00D-04  PRINTCI =  5.00D-02  PUNCHCI =  9.90D+01  OPTGRAD =  3.00D-04
 OPTENERG=  1.00D-06  OPTSTEP =  3.00D-04  THRGRAD =  1.00D-10  COMPRESS=  1.00D-11  VARMIN  =  1.00D-07  VARMAX  =  1.00D-03
 THRDOUB =  0.00D+00  THRDIV  =  1.00D-05  THRRED  =  1.00D-07  THRPSP  =  1.00D+00  THRDC   =  1.00D-10  THRCS   =  1.00D-10
 THRNRM  =  1.00D-08  THREQ   =  0.00D+00  THRDE   =  1.00D+00  THRREF  =  1.00D-05  SPARFAC =  1.00D+00  THRDLP  =  1.00D-07
 THRDIA  =  1.00D-10  THRDLS  =  1.00D-07  THRGPS  =  0.00D+00  THRKEX  =  0.00D+00  THRDIS  =  2.00D-01  THRVAR  =  1.00D-10
 THRLOC  =  1.00D-06  THRGAP  =  1.00D-06  THRLOCT = -1.00D+00  THRGAPT = -1.00D+00  THRORB  =  1.00D-06  THRMLTP =  0.00D+00
 THRCPQCI=  1.00D-10  KEXTA   =  0.00D+00  THRCOARS=  0.00D+00  SYMTOL  =  1.00D-06  GRADTOL =  1.00D-06  THROVL  =  1.00D-15
 THRORTH =  1.00D-08  GRID    =  1.00D-06  GRIDMAX =  1.00D-03  DTMAX   =  0.00D+00  THROCCDE=  1.00D-01  THROCCDE=  1.00D-01



 Variable memory set to 1000000000 words,  buffer space   230000 words

 SETTING BASIS          =    USERDEF
 SETTING LU_CCSD        =       -42.19820890
 SETTING O_CCSD         =       -15.86622096
 SETTING NE             =        17.00000000
 SETTING SYMM           =         1.00000000
 SETTING SS             =         1.00000000
 SETTING A1             =         5.00000000
 SETTING B1             =         2.00000000
 SETTING B2             =         2.00000000
 SETTING A2             =     0.00000000D+00

Geometry recognized as XYZ

  --><jobstep command="RHF-SCF" commandset="SCFPRO">
   <!--


 Recomputing integrals since basis changed


 Using spherical harmonics



 PROGRAM * SEWARD (Integral evaluation for generally contracted gaussian basis sets)     Author: Roland Lindh, 1990

 Geometry written to block  1 of record 700


 Point group  C2v


   --><cml:molecule>
    <cml:symmetry pointGroup="C2v"/>
    <cml:atomArray>
     <cml:atom id="a1" elementType="Lu" x3="0.0" y3="0.0" z3="0.0"/>
     <cml:atom id="a2" elementType="O" x3="0.0" y3="0.0" z3="2.4"/>
    </cml:atomArray>
    <cml:bondArray>
     <cml:bond atomRefs2="a1 a2"/>
    </cml:bondArray>
   </cml:molecule><!--

 ATOMIC COORDINATES

 NR  ATOM    CHARGE       X              Y              Z

   1  LU     11.00    0.000000000    0.000000000    0.000000000
   2  O       6.00    0.000000000    0.000000000    4.535342699

 Bond lengths in Bohr (Angstrom)

 1-2  4.535342699
     ( 2.400000000)

 NUCLEAR CHARGE:                   17
 NUMBER OF PRIMITIVE AOS:         584
 NUMBER OF SYMMETRY AOS:          451
 NUMBER OF CONTRACTIONS:          451   ( 180A1  + 108B1  + 108B2  +  55A2  )
 NUMBER OF CORE ORBITALS:           0   (   0A1  +   0B1  +   0B2  +   0A2  )
 NUMBER OF VALENCE ORBITALS:       14   (   7A1  +   3B1  +   3B2  +   1A2  )


 NUCLEAR REPULSION ENERGY   14.55237330

 EXTRA SYMMETRY OF AOS IN SYMMETRY 1:   1 1 1 1 1 1 1 1 1 1   1 1 1 1 1 1 1 1 1 1   1 1 1 1 1 1 1 1 1 1   1 1 1 1 1 1 1 1 1 1
                                        1 1 1 1 1 1 1 1 1 1   1 1 1 1 1 1 1 1 1 2   1 2 1 2 1 2 1 2 1 2   1 2 1 2 1 2 1 2 1 2
                                        1 2 1 2 1 2 1 2 1 2   1 2 1 2 1 2 1 2 1 2   1 2 1 2 1 2 1 2 1 2   1 2 1 2 1 2 1 2 1 2
                                        1 3 2 1 3 2 1 3 2 1   3 2 1 3 2 1 3 2 2 3   1 2 3 1 2 3 1 1 1 1   1 1 1 1 1 1 1 1 1 1
                                        1 1 1 1 1 1 1 1 1 2   1 2 1 2 1 2 1 2 1 2
 EXTRA SYMMETRY OF AOS IN SYMMETRY 2:   1 1 1 1 1 1 1 1 1 1   1 1 1 1 1 1 1 1 1 1   1 1 1 1 1 1 1 1 1 1   1 1 1 1 1 1 1 1 1 1
                                        1 1 1 1 1 1 2 1 2 1   2 1 2 1 2 1 2 1 2 1   2 1 2 1 2 1 2 1 2 1   2 1 2 1 2 1 2 1 2 1
                                        2 1 2 1 2 3 1 2 3 1   2 3 1 1 1 1 1 1 1 1   1 1 1 1 1 2 1 2
 EXTRA SYMMETRY OF AOS IN SYMMETRY 3:   1 1 1 1 1 1 1 1 1 1   1 1 1 1 1 1 1 1 1 1   1 1 1 1 1 1 1 1 1 1   1 1 1 1 1 1 1 1 1 1
                                        1 1 1 1 1 1 2 1 2 1   2 1 2 1 2 1 2 1 2 1   2 1 2 1 2 1 2 1 2 1   2 1 2 1 2 1 2 1 2 1
                                        2 1 2 1 2 3 1 2 3 1   2 3 1 1 1 1 1 1 1 1   1 1 1 1 1 2 1 2
 EXTRA SYMMETRY OF AOS IN SYMMETRY 4:   1 1 1 1 1 1 1 1 1 1   1 1 1 1 1 1 1 1 1 1   1 1 1 1 1 1 1 1 1 1   1 1 2 1 2 1 2 1 2 1
                                        2 1 2 2 1 2 1 2 1 1   1 1 1 1 1

 Eigenvalues of metric

         1 0.831E-05 0.121E-04 0.390E-04 0.485E-04 0.683E-04 0.762E-04 0.107E-03 0.198E-03
         2 0.122E-04 0.180E-04 0.106E-03 0.491E-03 0.648E-03 0.157E-02 0.220E-02 0.336E-02
         3 0.122E-04 0.180E-04 0.106E-03 0.491E-03 0.648E-03 0.157E-02 0.220E-02 0.336E-02
         4 0.702E-03 0.220E-02 0.838E-02 0.144E-01 0.215E-01 0.328E-01 0.344E-01 0.521E-01


 Contracted 2-electron integrals neglected if value below      1.0D-15
 AO integral compression algorithm  1   Integral accuracy      1.0D-15

     3509.584 MB (compressed) written to integral file ( 31.9%)

     Node minimum: 253.231 MB, node maximum: 406.847 MB


 NUMBER OF SORTED TWO-ELECTRON INTEGRALS:  120332494.     BUFFER LENGTH:  32768
 NUMBER OF SEGMENTS:   4  SEGMENT LENGTH:   31980394      RECORD LENGTH: 524288

 Memory used in sort:      32.54 MW

 SORT1 READ  1374547738. AND WROTE    39721565. INTEGRALS IN    115 RECORDS. CPU TIME:    22.84 SEC, REAL TIME:    34.02 SEC
 SORT2 READ   439978466. AND WROTE  1323827515. INTEGRALS IN  17072 RECORDS. CPU TIME:     1.63 SEC, REAL TIME:     2.53 SEC

 Node minimum:   120327112.  Node maximum:   120451591. integrals

 OPERATOR DM      FOR CENTER  0  COORDINATES:    0.000000    0.000000    0.000000


 **********************************************************************************************************************************
 DATASETS  * FILE   NREC   LENGTH (MB)   RECORD NAMES
              1      19       22.40       500      610      700      900      950      970     1000      129      960     1100
                                          VAR    BASINP    GEOM    SYMINP    ZMAT    AOBASIS   BASIS     P2S    ABASIS      S
                                         1400     1410     1420     1200     1210     1080     1600     1650     1700
                                           T        V       ECP      H0       H01     AOSYM     SMH    MOLCAS    OPER

 PROGRAMS   *        TOTAL       INT
 CPU TIMES  *        84.96     84.70
 REAL TIME  *        98.45 SEC
 DISK USED  *         8.72 GB
 GA USED    *         0.00 MB       (max)       0.00 MB       (current)
 **********************************************************************************************************************************


 PROGRAM * RHF-SCF (CLOSED SHELL)       Authors: W. Meyer, H.-J. Werner


 NUMBER OF ELECTRONS:       8+    8-    SPACE SYMMETRY=1    SPIN SYMMETRY: Singlet
 CONVERGENCE THRESHOLDS:    1.00E-05 (Density)    1.00E-07 (Energy)
 MAX. NUMBER OF ITERATIONS:      200
 INTERPOLATION TYPE:            DIIS
 INTERPOLATION STEPS:              2 (START)      1 (STEP)
 LEVEL SHIFTS:                  0.00 (CLOSED)  0.00 (OPEN)

 Number of closed-shell orbitals:    8 (   4   2   2   0 )


 Orbital guess generated from atomic densities. Full valence occupancy:    7   3   3   1

 Molecular orbital dump at record        2202.2

 ITERATION    DDIFF          GRAD             ENERGY        2-EL.EN.            DIPOLE MOMENTS         DIIS   ORB.
    1      0.000D+00      0.000D+00       -56.80725841    104.878784    0.00000    0.00000   -8.09356    0    start
    2      0.000D+00      0.153D-01       -50.10919896     97.675098    0.00000    0.00000   25.89387    1    diag
    3      0.184D-01      0.449D-01       -57.05838240    101.612109    0.00000    0.00000   -6.77683    2    diag
    4      0.175D-01      0.705D-02       -57.12202512    101.513352    0.00000    0.00000   -5.72563    3    diag
    5      0.238D-02      0.438D-02       -57.15117896    100.792530    0.00000    0.00000   -4.68266    4    diag
    6      0.191D-02      0.140D-02       -57.15587705    100.500674    0.00000    0.00000   -4.25959    5    diag
    7      0.124D-02      0.549D-03       -57.15852930    100.308238    0.00000    0.00000   -3.98873    6    diag
    8      0.108D-02      0.431D-03       -57.16038642    100.197823    0.00000    0.00000   -3.82669    7    diag
    9      0.639D-03      0.433D-03       -57.16290052    100.033820    0.00000    0.00000   -3.55363    8    diag
   10      0.887D-03      0.444D-03       -57.16732224     99.471274    0.00000    0.00000   -2.53543    9    orth
   11      0.294D-02      0.369D-03       -57.16578341     99.904873    0.00000    0.00000   -3.31322    9    diag
   12      0.175D-02      0.475D-03       -57.16756610     99.533665    0.00000    0.00000   -2.65467    9    diag
   13      0.171D-02      0.384D-04       -57.16757448     99.528088    0.00000    0.00000   -2.66246    9    diag
   14      0.316D-04      0.313D-04       -57.16758149     99.525126    0.00000    0.00000   -2.67686    9    diag
   15      0.517D-04      0.104D-04       -57.16758362     99.509626    0.00000    0.00000   -2.65753    9    diag
   16      0.591D-04      0.977D-06       -57.16758361     99.508771    0.00000    0.00000   -2.65596    9    diag
   17      0.328D-05      0.190D-05       -57.16758361     99.510023    0.00000    0.00000   -2.65751    0    orth

 Final occupancy:   4   2   2   0

 !RHF STATE 1.1 Energy                -57.167583607661
   --><property name="Energy" method="RHF" principal="true" stateSymmetry="1" stateNumber="1"
     value="-57.1675836076613"/><!--
 Nuclear energy                        14.55237330
 One-electron energy                 -121.47496843
 Two-electron energy                   49.75501153
 Virial quotient                       -2.09555970
 !RHF STATE 1.1 Dipole moment           0.00000000     0.00000000    -2.65751209
 Dipole moment /Debye                   0.00000000     0.00000000    -6.75427958
   --><property name="Dipole moment" method="RHF" principal="true" stateSymmetry="1"
     stateNumber="1" value="0.0 0.0 -2.65751208907718"/><!--

 ELECTRON ORBITALS
 =================


   Orb  Occ    Energy  Couls-En    Coefficients

                                   1 1s      1 1s      1 1s      1 1s      1 1s      1 1s      1 1s      1 1s      1 1s      1 1s
                                   1 1s      1 1s      1 1s      1 1s      1 1s      1 1s      1 1s      1 1s      1 1s      1 1s
                                   1 1s      1 1s      1 1s      1 1s      1 1s      1 1s      1 1s      1 1s      1 1s      1 1s
                                   1 1s      1 2pz     1 2pz     1 2pz     1 2pz     1 2pz     1 2pz     1 2pz     1 2pz     1 2pz
                                   1 2pz     1 2pz     1 2pz     1 2pz     1 2pz     1 2pz     1 2pz     1 2pz     1 2pz     1 2pz
                                   1 2pz     1 2pz     1 2pz     1 2pz     1 2pz     1 2pz     1 2pz     1 2pz     1 3d0     1 3d2+
                                   1 3d0     1 3d2+    1 3d0     1 3d2+    1 3d0     1 3d2+    1 3d0     1 3d2+    1 3d0     1 3d2+
                                   1 3d0     1 3d2+    1 3d0     1 3d2+    1 3d0     1 3d2+    1 3d0     1 3d2+    1 3d0     1 3d2+
                                   1 3d0     1 3d2+    1 3d0     1 3d2+    1 3d0     1 3d2+    1 3d0     1 3d2+    1 3d0     1 3d2+
                                   1 3d0     1 3d2+    1 3d0     1 3d2+    1 4f0     1 4f2+    1 4f0     1 4f2+    1 4f0     1 4f2+
                                   1 4f0     1 4f2+    1 4f0     1 4f2+    1 4f0     1 4f2+    1 4f0     1 4f2+    1 4f0     1 4f2+
                                   1 4f0     1 4f2+    1 4f0     1 4f2+    1 4f0     1 4f2+    1 4f0     1 4f2+    1 4f0     1 4f2+
                                   1 5g0     1 5g4+    1 5g2+    1 5g0     1 5g4+    1 5g2+    1 5g0     1 5g4+    1 5g2+    1 5g0
                                   1 5g4+    1 5g2+    1 5g0     1 5g4+    1 5g2+    1 5g0     1 5g4+    1 5g2+    1 6h2+    1 6h4+
                                   1 6h0     1 6h2+    1 6h4+    1 6h0     1 6h2+    1 6h4+    1 6h0     2 1s      2 1s      2 1s
                                   2 1s      2 1s      2 1s      2 1s      2 1s      2 1s      2 1s      2 1s      2 1s      2 1s
                                   2 2pz     2 2pz     2 2pz     2 2pz     2 2pz     2 2pz     2 2pz     2 2pz     2 3d0     2 3d2+
                                   2 3d0     2 3d2+    2 3d0     2 3d2+    2 3d0     2 3d2+    2 4f0     2 4f2+    2 4f0     2 4f2+


   1.1   2    -2.9270  -12.5888  0.000000 -0.000000  0.000000 -0.000000  0.000000 -0.000001  0.000001 -0.000004  0.000011 -0.000028
                                 0.000069 -0.000166  0.000387 -0.000873  0.001886 -0.003938  0.007621 -0.012701  0.015473 -0.091973
                                 0.472837 -0.648252 -0.284096  0.311958  0.699103  0.346973 -0.021349  0.030246 -0.023624  0.016626
                                -0.004984 -0.000000  0.000000 -0.000000  0.000000 -0.000000  0.000000 -0.000000  0.000000 -0.000000
                                 0.000000 -0.000000  0.000000 -0.000001  0.000003 -0.000003 -0.000243  0.000478 -0.000188 -0.001172
                                 0.001297 -0.004563 -0.000645 -0.008475 -0.011840 -0.001550 -0.000564  0.011620 -0.000000  0.000000
                                 0.000000 -0.000000 -0.000000  0.000000  0.000001 -0.000000 -0.000003  0.000000  0.000008 -0.000000
                                -0.000022  0.000000  0.000052 -0.000000 -0.000132  0.000000  0.000476 -0.000000 -0.001322  0.000000
                                -0.000527 -0.000000 -0.004827  0.000000 -0.003489 -0.000000  0.001071  0.000000 -0.002042 -0.000000
                                 0.001462  0.000000 -0.000145 -0.000000  0.000000 -0.000000 -0.000000  0.000000  0.000001 -0.000000
                                -0.000004  0.000000  0.000010 -0.000000 -0.000046  0.000000 -0.000035 -0.000000 -0.000118  0.000000
                                -0.000158  0.000000 -0.000245  0.000000  0.000115 -0.000000 -0.000189  0.000000  0.000155 -0.000000
                                 0.000002  0.000000  0.000000  0.000008  0.000000  0.000000  0.000070  0.000000  0.000000  0.000181
                                -0.000000  0.000000 -0.000037  0.000000 -0.000000  0.000076 -0.000000  0.000000  0.000000 -0.000000
                                 0.000001 -0.000000  0.000000 -0.000006  0.000000 -0.000000  0.000051 -0.000000  0.000000 -0.000000
                                 0.000001 -0.000005  0.000157 -0.000161  0.000544  0.000799  0.001130  0.002040 -0.000238 -0.000263
                                -0.000019 -0.000160 -0.000432 -0.000728 -0.001252 -0.001021  0.000004  0.000005  0.000019 -0.000000
                                 0.000356 -0.000000  0.000629 -0.000000  0.000007 -0.000000  0.000001 -0.000000 -0.000335  0.000000

   2.1   2    -1.6625  -10.1686  0.000000 -0.000000  0.000000 -0.000000  0.000000 -0.000000  0.000000 -0.000000  0.000000 -0.000000
                                 0.000001 -0.000003  0.000006 -0.000014  0.000030 -0.000063  0.000123 -0.000209  0.000260 -0.001676
                                 0.008919 -0.012275 -0.006881  0.007674  0.024392 -0.003498 -0.010002 -0.003289 -0.006252 -0.005306
                                 0.002987 -0.000000  0.000000 -0.000000  0.000000 -0.000000  0.000000 -0.000001  0.000003 -0.000009
                                 0.000028 -0.000083  0.000230 -0.000622  0.001771 -0.006116  0.073974 -0.144918  0.104365  0.088486
                                 0.150431  0.493274 -0.054520  0.370591 -0.006854  0.058017 -0.007918  0.007291 -0.000000 -0.000000
                                 0.000000  0.000000 -0.000000 -0.000000  0.000001  0.000000 -0.000004 -0.000000  0.000012  0.000000
                                -0.000033 -0.000000  0.000080  0.000000 -0.000211  0.000000  0.000782  0.000000 -0.002042 -0.000000
                                -0.001649  0.000000 -0.006550 -0.000000 -0.010903  0.000000 -0.003986  0.000000 -0.001437  0.000000
                                -0.002474 -0.000000  0.001669  0.000000 -0.000000 -0.000000  0.000000  0.000000 -0.000001 -0.000000
                                 0.000004  0.000000 -0.000011 -0.000000  0.000031  0.000000 -0.000063  0.000000  0.000265  0.000000
                                -0.002180 -0.000000 -0.001100 -0.000000 -0.000714  0.000000 -0.000852 -0.000000  0.000382  0.000000
                                -0.000001 -0.000000  0.000000  0.000011  0.000000 -0.000000 -0.000018  0.000000  0.000000  0.000168
                                 0.000000 -0.000000 -0.000642  0.000000  0.000000  0.000305 -0.000000 -0.000000 -0.000000 -0.000000
                                 0.000002 -0.000000  0.000000 -0.000137 -0.000000 -0.000000  0.000330 -0.000000  0.000000 -0.000002
                                 0.000011 -0.000096  0.003690 -0.007116  0.012525  0.035947  0.026709  0.011754 -0.003421 -0.005948
                                -0.000221 -0.001870 -0.005705 -0.009911 -0.010867 -0.004004 -0.000072  0.000059  0.000291  0.000000
                                 0.002109 -0.000000  0.002527 -0.000000  0.000010 -0.000000 -0.000216 -0.000000 -0.000980  0.000000

   3.1   2    -1.3311   -8.5715 -0.000000  0.000000 -0.000000  0.000000 -0.000000  0.000000 -0.000000  0.000000 -0.000000  0.000001
                                -0.000002  0.000005 -0.000012  0.000027 -0.000059  0.000124 -0.000240  0.000401 -0.000490  0.002970
                                -0.015591  0.021938  0.009248 -0.008487 -0.035224 -0.028209  0.044427 -0.004560 -0.021553  0.005565
                                 0.003270  0.000000 -0.000000  0.000000 -0.000000  0.000000 -0.000000  0.000000 -0.000000  0.000001
                                -0.000004  0.000012 -0.000034  0.000091 -0.000259  0.000873 -0.009571  0.018725 -0.013910 -0.008630
                                -0.021609 -0.044927 -0.023868 -0.014504  0.093410 -0.004644 -0.022654 -0.085143 -0.000000  0.000000
                                 0.000000 -0.000000 -0.000000  0.000000  0.000000 -0.000000 -0.000001  0.000000  0.000002 -0.000000
                                -0.000005  0.000000  0.000006 -0.000000  0.000062  0.000000 -0.000704 -0.000000  0.002205  0.000000
                                 0.004275  0.000000  0.006342  0.000000  0.016972  0.000000 -0.001173  0.000000 -0.024268 -0.000000
                                 0.022083  0.000000 -0.002184 -0.000000  0.000000 -0.000000 -0.000000  0.000000  0.000001 -0.000000
                                -0.000003  0.000000  0.000009 -0.000000  0.000077  0.000000  0.000534 -0.000000  0.000268  0.000000
                                 0.001243 -0.000000  0.003050  0.000000 -0.008443 -0.000000  0.001998  0.000000  0.002095 -0.000000
                                 0.000005  0.000000 -0.000000 -0.000016 -0.000000  0.000000  0.000219 -0.000000 -0.000000  0.000391
                                 0.000000  0.000000 -0.004103 -0.000000 -0.000000  0.003087  0.000000  0.000000 -0.000000  0.000000
                                 0.000020  0.000000 -0.000000 -0.000126 -0.000000  0.000000  0.000581 -0.000000  0.000004 -0.000026
                                 0.000164 -0.001426  0.054474 -0.102397  0.189955  0.554715  0.404431  0.032617 -0.052871 -0.088422
                                -0.000128 -0.000820 -0.004369 -0.006125 -0.037590 -0.013039 -0.000360  0.000031 -0.000746  0.000000
                                 0.001413  0.000000  0.008035 -0.000000 -0.000376  0.000000  0.000108  0.000000 -0.002414 -0.000000

   4.1   2    -0.4969   -6.1173  0.000000 -0.000000  0.000000 -0.000000  0.000000 -0.000000  0.000000 -0.000001  0.000003 -0.000006
                                 0.000016 -0.000039  0.000091 -0.000205  0.000444 -0.000930  0.001807 -0.003035  0.003749 -0.023536
                                 0.125342 -0.176603 -0.081621  0.072335  0.310018  0.312876 -0.092007 -0.501280 -0.361014  0.129140
                                -0.069433 -0.000000  0.000000 -0.000000  0.000000 -0.000000  0.000000 -0.000000  0.000000 -0.000001
                                 0.000002 -0.000005  0.000015 -0.000040  0.000114 -0.000385  0.004362 -0.008740  0.006942  0.002962
                                 0.013773  0.013139  0.032659 -0.016229  0.398891 -0.031309  0.069848 -0.388495 -0.000000 -0.000000
                                 0.000000  0.000000 -0.000000 -0.000000  0.000001  0.000000 -0.000004 -0.000000  0.000012  0.000000
                                -0.000037 -0.000000  0.000141  0.000000 -0.000966 -0.000000  0.007323  0.000000 -0.022505 -0.000000
                                -0.037797 -0.000000 -0.070418 -0.000000 -0.126475 -0.000000 -0.084206 -0.000000  0.067254 -0.000000
                                -0.040384 -0.000000  0.002421  0.000000  0.000000 -0.000000 -0.000000  0.000000  0.000002 -0.000000
                                -0.000009  0.000000  0.000021  0.000000 -0.000239  0.000000 -0.000751  0.000000 -0.000932 -0.000000
                                -0.000497  0.000000 -0.008569  0.000000  0.004947  0.000000  0.011584 -0.000000 -0.004687  0.000000
                                 0.000001  0.000000  0.000000 -0.000026 -0.000000 -0.000000 -0.000134  0.000000  0.000000 -0.003216
                                -0.000000  0.000000  0.006141  0.000000  0.000000 -0.002345  0.000000 -0.000000 -0.000000 -0.000000
                                -0.000055 -0.000000  0.000000  0.000469  0.000000 -0.000000 -0.001810 -0.000000  0.000001 -0.000004
                                 0.000025 -0.000218  0.008456 -0.015439  0.031462  0.100367  0.094905 -0.031837 -0.008756 -0.013934
                                 0.005463  0.046668  0.151675  0.247979  0.215872  0.058206  0.002910 -0.001442 -0.002438 -0.000000
                                -0.010936 -0.000000 -0.015313  0.000000 -0.000285 -0.000000  0.002503  0.000000  0.004676  0.000000

   5.1   0    -0.2523   -5.1183 -0.000000  0.000000 -0.000000  0.000000 -0.000000  0.000000 -0.000000  0.000001 -0.000001  0.000004
                                -0.000009  0.000021 -0.000050  0.000113 -0.000245  0.000513 -0.000998  0.001681 -0.002085  0.013256
                                -0.070734  0.099063  0.048238 -0.043589 -0.170202 -0.159253 -0.058476  0.259725  0.413131  0.047541
                                 0.113262 -0.000000  0.000000 -0.000000  0.000000 -0.000000  0.000000 -0.000000  0.000000 -0.000001
                                 0.000004 -0.000012  0.000033 -0.000089  0.000254 -0.000928  0.014740 -0.030248  0.023507  0.019508
                                 0.044350  0.132164 -0.023469  0.105973 -0.094534 -0.162399 -0.303476  0.031020 -0.000000  0.000000
                                 0.000000 -0.000000 -0.000000  0.000000  0.000000 -0.000000 -0.000001  0.000000  0.000004 -0.000000
                                -0.000016  0.000000  0.000088 -0.000000 -0.000798 -0.000000  0.006507  0.000000 -0.020062 -0.000000
                                -0.035199 -0.000000 -0.061340 -0.000000 -0.118119 -0.000000 -0.118360 -0.000000  0.031079 -0.000000
                                -0.070323  0.000000  0.021836 -0.000000  0.000000 -0.000000 -0.000000  0.000000  0.000000 -0.000000
                                -0.000002  0.000000  0.000003 -0.000000 -0.000223 -0.000000 -0.001001 -0.000000 -0.000804 -0.000000
                                -0.002010 -0.000000 -0.007222 -0.000000  0.010554 -0.000000  0.000319 -0.000000  0.000636 -0.000000
                                -0.000000 -0.000000  0.000000 -0.000020  0.000000 -0.000000 -0.000118 -0.000000 -0.000000 -0.001749
                                -0.000000  0.000000  0.003955  0.000000  0.000000 -0.002875 -0.000000 -0.000000 -0.000000 -0.000000
                                -0.000048 -0.000000  0.000000  0.000369  0.000000 -0.000000 -0.001526 -0.000000  0.000000 -0.000001
                                 0.000005 -0.000046  0.002055 -0.004648  0.007915  0.030561  0.029119  0.045691 -0.001622 -0.003338
                                 0.005038  0.043007  0.141080  0.229324  0.212263  0.063086  0.002853 -0.001327 -0.001487 -0.000000
                                -0.006556  0.000000 -0.010382 -0.000000 -0.000161  0.000000  0.002155  0.000000  0.004294 -0.000000

   6.1   0    -0.1753   -4.8483  0.000000 -0.000000  0.000000 -0.000000  0.000000 -0.000000  0.000000 -0.000000  0.000001 -0.000002
                                 0.000004 -0.000009  0.000022 -0.000049  0.000106 -0.000223  0.000434 -0.000732  0.000911 -0.005840
                                 0.031219 -0.043575 -0.021938  0.020476  0.072368  0.080752 -0.021078 -0.114600 -0.084853 -0.023872
                                 0.028205 -0.000000  0.000000 -0.000000  0.000000 -0.000000  0.000000 -0.000000  0.000000 -0.000002
                                 0.000005 -0.000015  0.000041 -0.000112  0.000319 -0.001119  0.015464 -0.031389  0.024424  0.017548
                                 0.045131  0.128490 -0.028470  0.100204 -0.095528 -0.152243 -0.337793 -0.078415  0.000000  0.000000
                                -0.000000 -0.000000  0.000001  0.000000 -0.000005 -0.000000  0.000016  0.000000 -0.000050 -0.000000
                                 0.000142  0.000000 -0.000449 -0.000000  0.002428  0.000000 -0.016836 -0.000000  0.051017  0.000000
                                 0.083252  0.000000  0.159346  0.000000  0.267915  0.000000  0.294891  0.000000  0.169474 -0.000000
                                -0.024955  0.000000  0.122140 -0.000000  0.000000  0.000000 -0.000001 -0.000000  0.000006  0.000000
                                -0.000024 -0.000000  0.000061 -0.000000 -0.000479 -0.000000 -0.001273 -0.000000 -0.001638 -0.000000
                                -0.003147 -0.000000 -0.015818 -0.000000 -0.018342 -0.000000 -0.005918 -0.000000 -0.006074 -0.000000
                                -0.000021  0.000000 -0.000000  0.000113 -0.000000  0.000000 -0.000554  0.000000 -0.000000 -0.009309
                                -0.000000  0.000000 -0.005487  0.000000  0.000000 -0.000712  0.000000 -0.000000  0.000000 -0.000000
                                -0.000001 -0.000000  0.000000  0.000001  0.000000 -0.000000 -0.000120  0.000000 -0.000000  0.000000
                                -0.000001 -0.000004  0.000685 -0.003306  0.002314  0.014158  0.009286 -0.002260  0.000596 -0.000967
                                 0.000901  0.007567  0.027109  0.040975  0.049250  0.018026  0.000895 -0.000232  0.000448  0.000000
                                 0.003882 -0.000000  0.000570  0.000000  0.000043 -0.000000 -0.000055 -0.000000 -0.000719  0.000000

                                   1 2px     1 2px     1 2px     1 2px     1 2px     1 2px     1 2px     1 2px     1 2px     1 2px
                                   1 2px     1 2px     1 2px     1 2px     1 2px     1 2px     1 2px     1 2px     1 2px     1 2px
                                   1 2px     1 2px     1 2px     1 2px     1 2px     1 2px     1 2px     1 3d1+    1 3d1+    1 3d1+
                                   1 3d1+    1 3d1+    1 3d1+    1 3d1+    1 3d1+    1 3d1+    1 3d1+    1 3d1+    1 3d1+    1 3d1+
                                   1 3d1+    1 3d1+    1 3d1+    1 3d1+    1 3d1+    1 4f1+    1 4f3+    1 4f1+    1 4f3+    1 4f1+
                                   1 4f3+    1 4f1+    1 4f3+    1 4f1+    1 4f3+    1 4f1+    1 4f3+    1 4f1+    1 4f3+    1 4f1+
                                   1 4f3+    1 4f1+    1 4f3+    1 4f1+    1 4f3+    1 4f1+    1 4f3+    1 4f1+    1 4f3+    1 4f1+
                                   1 4f3+    1 5g1+    1 5g3+    1 5g1+    1 5g3+    1 5g1+    1 5g3+    1 5g1+    1 5g3+    1 5g1+
                                   1 5g3+    1 5g1+    1 5g3+    1 6h1+    1 6h3+    1 6h5+    1 6h1+    1 6h3+    1 6h5+    1 6h1+
                                   1 6h3+    1 6h5+    2 2px     2 2px     2 2px     2 2px     2 2px     2 2px     2 2px     2 2px
                                   2 3d1+    2 3d1+    2 3d1+    2 3d1+    2 4f1+    2 4f3+    2 4f1+    2 4f3+

   1.2   2    -1.6729  -10.1307 -0.000000  0.000000 -0.000000  0.000000 -0.000000  0.000000 -0.000001  0.000003 -0.000009  0.000029
                                -0.000084  0.000232 -0.000628  0.001788 -0.006177  0.074592 -0.146069  0.105154  0.088880  0.151406
                                 0.494165 -0.043255  0.368699  0.031057  0.052339 -0.003722 -0.029724 -0.000000  0.000000 -0.000000
                                 0.000001 -0.000003  0.000008 -0.000020  0.000050 -0.000136  0.000526 -0.001356 -0.001207 -0.004248
                                -0.009776 -0.001724  0.000249 -0.000231 -0.000060 -0.000000 -0.000000  0.000000  0.000000 -0.000001
                                -0.000000  0.000002  0.000000 -0.000007 -0.000000 -0.000079  0.000000 -0.000509 -0.000000 -0.000118
                                 0.000000 -0.002724 -0.000000 -0.002140 -0.000000  0.000265  0.000000 -0.000367 -0.000000  0.000050
                                 0.000000 -0.000002 -0.000000  0.000013 -0.000000 -0.000060  0.000000 -0.000080  0.000000 -0.000085
                                -0.000000 -0.000035  0.000000 -0.000003 -0.000000  0.000000 -0.000068 -0.000000  0.000000  0.000109
                                 0.000000 -0.000000  0.000058  0.000500  0.001512  0.002480  0.001838  0.000333  0.000010 -0.000015
                                -0.000092 -0.000606 -0.000588 -0.000012  0.000054  0.000000  0.000387 -0.000000

   2.2   2    -0.6096   -7.0061  0.000000 -0.000000  0.000000 -0.000000  0.000000 -0.000000  0.000000 -0.000000  0.000000 -0.000001
                                 0.000004 -0.000011  0.000029 -0.000084  0.000290 -0.003698  0.007435 -0.005737 -0.003840 -0.010150
                                -0.026115  0.002427 -0.022781 -0.018132  0.037400  0.032488  0.014147 -0.000000  0.000000 -0.000000
                                 0.000000 -0.000000  0.000000  0.000001 -0.000022  0.000274 -0.002351  0.007259  0.012965  0.021996
                                 0.044043  0.056844 -0.036804  0.064864 -0.027560 -0.000000  0.000000  0.000002 -0.000000 -0.000009
                                 0.000000  0.000034 -0.000000 -0.000090  0.000000  0.000434 -0.000000  0.000557  0.000000  0.001751
                                -0.000000 -0.000401  0.000000  0.013021  0.000000  0.006085 -0.000000  0.003479 -0.000000 -0.000891
                                -0.000000  0.000005 -0.000000 -0.000001  0.000000  0.000284  0.000000  0.005534 -0.000000 -0.004967
                                -0.000000  0.003590  0.000000  0.000071 -0.000000 -0.000000 -0.000567  0.000000 -0.000000  0.001863
                                -0.000000 -0.000000  0.010066  0.086706  0.284563  0.444315  0.359249  0.042104  0.005404 -0.002651
                                -0.002218 -0.009201 -0.022873 -0.000229  0.002983  0.000000  0.007499 -0.000000

   3.2   0    -0.1808   -4.3416 -0.000000  0.000000 -0.000000  0.000000 -0.000000  0.000000 -0.000000  0.000000 -0.000002  0.000005
                                -0.000014  0.000040 -0.000108  0.000309 -0.001107  0.016663 -0.034066  0.026511  0.020897  0.049650
                                 0.151651 -0.042620  0.129745 -0.204125 -0.172425 -0.468170 -0.037608  0.000000 -0.000000  0.000001
                                -0.000004  0.000013 -0.000040  0.000114 -0.000360  0.001937 -0.013399  0.040558  0.066109  0.126496
                                 0.214388  0.241866  0.137136 -0.009195  0.095367  0.000000 -0.000000 -0.000001  0.000000  0.000003
                                -0.000000 -0.000011  0.000000  0.000027 -0.000000 -0.000303 -0.000000 -0.000997 -0.000000 -0.000968
                                 0.000000 -0.002821 -0.000000 -0.010158 -0.000000 -0.010696  0.000000 -0.001233  0.000000 -0.003548
                                 0.000000 -0.000015 -0.000000  0.000082  0.000000 -0.000398  0.000000 -0.006614 -0.000000 -0.004268
                                -0.000000 -0.000331 -0.000000  0.000000  0.000000  0.000000 -0.000013 -0.000000  0.000000 -0.000048
                                 0.000000 -0.000000 -0.000238 -0.002041 -0.006936 -0.010651 -0.010684 -0.009715 -0.000166  0.000062
                                -0.000138 -0.001413  0.000865 -0.000024  0.000051 -0.000000  0.000836  0.000000

   4.2   0    -0.1283   -5.1602  0.000000 -0.000000  0.000000 -0.000000  0.000000 -0.000000  0.000000 -0.000000  0.000002 -0.000005
                                 0.000014 -0.000039  0.000106 -0.000300  0.001015 -0.011885  0.023816 -0.018691 -0.009945 -0.033911
                                -0.071401 -0.007858 -0.052072 -1.556502  0.072004  0.348887  1.893302  0.000000 -0.000000  0.000001
                                -0.000006  0.000020 -0.000060  0.000172 -0.000538  0.002861 -0.019711  0.059746  0.096855  0.187496
                                 0.318590  0.308165 -0.045722  0.187681 -0.052434  0.000000  0.000000 -0.000002 -0.000000  0.000009
                                 0.000000 -0.000033 -0.000000  0.000085  0.000000 -0.000545 -0.000000 -0.001183 -0.000000 -0.002021
                                -0.000000 -0.001013  0.000000 -0.020693 -0.000000 -0.060865  0.000000 -0.030941 -0.000000 -0.035811
                                 0.000000 -0.000023 -0.000000  0.000117  0.000000 -0.000624  0.000000 -0.010304  0.000000 -0.009992
                                -0.000000  0.000058  0.000000  0.000006  0.000000 -0.000000 -0.000010 -0.000000 -0.000000 -0.000112
                                 0.000000  0.000000 -0.002503 -0.021557 -0.072465 -0.111636 -0.106150 -0.067202 -0.001577  0.000655
                                -0.001163 -0.006569 -0.003697 -0.000108 -0.000333 -0.000000  0.000963  0.000000

                                   1 2py     1 2py     1 2py     1 2py     1 2py     1 2py     1 2py     1 2py     1 2py     1 2py
                                   1 2py     1 2py     1 2py     1 2py     1 2py     1 2py     1 2py     1 2py     1 2py     1 2py
                                   1 2py     1 2py     1 2py     1 2py     1 2py     1 2py     1 2py     1 3d1-    1 3d1-    1 3d1-
                                   1 3d1-    1 3d1-    1 3d1-    1 3d1-    1 3d1-    1 3d1-    1 3d1-    1 3d1-    1 3d1-    1 3d1-
                                   1 3d1-    1 3d1-    1 3d1-    1 3d1-    1 3d1-    1 4f1-    1 4f3-    1 4f1-    1 4f3-    1 4f1-
                                   1 4f3-    1 4f1-    1 4f3-    1 4f1-    1 4f3-    1 4f1-    1 4f3-    1 4f1-    1 4f3-    1 4f1-
                                   1 4f3-    1 4f1-    1 4f3-    1 4f1-    1 4f3-    1 4f1-    1 4f3-    1 4f1-    1 4f3-    1 4f1-
                                   1 4f3-    1 5g1-    1 5g3-    1 5g1-    1 5g3-    1 5g1-    1 5g3-    1 5g1-    1 5g3-    1 5g1-
                                   1 5g3-    1 5g1-    1 5g3-    1 6h1-    1 6h3-    1 6h5-    1 6h1-    1 6h3-    1 6h5-    1 6h1-
                                   1 6h3-    1 6h5-    2 2py     2 2py     2 2py     2 2py     2 2py     2 2py     2 2py     2 2py
                                   2 3d1-    2 3d1-    2 3d1-    2 3d1-    2 4f1-    2 4f3-    2 4f1-    2 4f3-

   1.3   2    -1.6729  -10.1307 -0.000000  0.000000 -0.000000  0.000000 -0.000000  0.000000 -0.000001  0.000003 -0.000009  0.000029
                                -0.000084  0.000232 -0.000628  0.001788 -0.006177  0.074592 -0.146069  0.105154  0.088880  0.151406
                                 0.494165 -0.043255  0.368699  0.031057  0.052339 -0.003722 -0.029724 -0.000000  0.000000 -0.000000
                                 0.000001 -0.000003  0.000008 -0.000020  0.000050 -0.000136  0.000526 -0.001356 -0.001207 -0.004248
                                -0.009776 -0.001724  0.000249 -0.000231 -0.000060 -0.000000 -0.000000  0.000000  0.000000 -0.000001
                                -0.000000  0.000002  0.000000 -0.000007 -0.000000 -0.000079  0.000000 -0.000509 -0.000000 -0.000118
                                 0.000000 -0.002724 -0.000000 -0.002140 -0.000000  0.000265  0.000000 -0.000367 -0.000000  0.000050
                                 0.000000 -0.000002 -0.000000  0.000013 -0.000000 -0.000060  0.000000 -0.000080  0.000000 -0.000085
                                -0.000000 -0.000035  0.000000 -0.000003 -0.000000  0.000000 -0.000068 -0.000000  0.000000  0.000109
                                 0.000000 -0.000000  0.000058  0.000500  0.001512  0.002480  0.001838  0.000333  0.000010 -0.000015
                                -0.000092 -0.000606 -0.000588 -0.000012  0.000054  0.000000  0.000387 -0.000000

   2.3   2    -0.6096   -7.0061  0.000000 -0.000000  0.000000 -0.000000  0.000000 -0.000000  0.000000 -0.000000  0.000000 -0.000001
                                 0.000004 -0.000011  0.000029 -0.000084  0.000290 -0.003698  0.007435 -0.005737 -0.003840 -0.010150
                                -0.026115  0.002427 -0.022781 -0.018132  0.037400  0.032488  0.014147 -0.000000  0.000000 -0.000000
                                 0.000000 -0.000000  0.000000  0.000001 -0.000022  0.000274 -0.002351  0.007259  0.012965  0.021996
                                 0.044043  0.056844 -0.036804  0.064864 -0.027560 -0.000000  0.000000  0.000002 -0.000000 -0.000009
                                 0.000000  0.000034 -0.000000 -0.000090  0.000000  0.000434 -0.000000  0.000557  0.000000  0.001751
                                -0.000000 -0.000401  0.000000  0.013021  0.000000  0.006085 -0.000000  0.003479 -0.000000 -0.000891
                                -0.000000  0.000005 -0.000000 -0.000001  0.000000  0.000284  0.000000  0.005534 -0.000000 -0.004967
                                -0.000000  0.003590  0.000000  0.000071 -0.000000 -0.000000 -0.000567  0.000000 -0.000000  0.001863
                                -0.000000  0.000000  0.010066  0.086706  0.284563  0.444315  0.359249  0.042104  0.005404 -0.002651
                                -0.002218 -0.009201 -0.022873 -0.000229  0.002983  0.000000  0.007499 -0.000000

   3.3   0    -0.1808   -4.3416 -0.000000  0.000000 -0.000000  0.000000 -0.000000  0.000000 -0.000000  0.000000 -0.000002  0.000005
                                -0.000014  0.000040 -0.000108  0.000309 -0.001107  0.016663 -0.034066  0.026511  0.020897  0.049650
                                 0.151651 -0.042620  0.129745 -0.204125 -0.172425 -0.468170 -0.037608  0.000000 -0.000000  0.000001
                                -0.000004  0.000013 -0.000040  0.000114 -0.000360  0.001937 -0.013399  0.040558  0.066109  0.126496
                                 0.214388  0.241866  0.137136 -0.009195  0.095367  0.000000 -0.000000 -0.000001  0.000000  0.000003
                                -0.000000 -0.000011  0.000000  0.000027 -0.000000 -0.000303 -0.000000 -0.000997 -0.000000 -0.000968
                                 0.000000 -0.002821 -0.000000 -0.010158 -0.000000 -0.010696  0.000000 -0.001233  0.000000 -0.003548
                                 0.000000 -0.000015 -0.000000  0.000082  0.000000 -0.000398  0.000000 -0.006614 -0.000000 -0.004268
                                -0.000000 -0.000331 -0.000000  0.000000  0.000000  0.000000 -0.000013 -0.000000  0.000000 -0.000048
                                 0.000000 -0.000000 -0.000238 -0.002041 -0.006936 -0.010651 -0.010684 -0.009715 -0.000166  0.000062
                                -0.000138 -0.001413  0.000865 -0.000024  0.000051 -0.000000  0.000836  0.000000

   4.3   0    -0.1283   -5.1602  0.000000 -0.000000  0.000000 -0.000000  0.000000 -0.000000  0.000000 -0.000000  0.000002 -0.000005
                                 0.000014 -0.000039  0.000106 -0.000300  0.001015 -0.011885  0.023816 -0.018691 -0.009945 -0.033911
                                -0.071401 -0.007858 -0.052072 -1.556503  0.072004  0.348887  1.893303  0.000000 -0.000000  0.000001
                                -0.000006  0.000020 -0.000060  0.000172 -0.000538  0.002861 -0.019711  0.059746  0.096855  0.187496
                                 0.318590  0.308165 -0.045722  0.187681 -0.052434  0.000000  0.000000 -0.000002 -0.000000  0.000009
                                 0.000000 -0.000033 -0.000000  0.000085  0.000000 -0.000545 -0.000000 -0.001183 -0.000000 -0.002021
                                -0.000000 -0.001013  0.000000 -0.020693 -0.000000 -0.060865  0.000000 -0.030941 -0.000000 -0.035811
                                 0.000000 -0.000023 -0.000000  0.000117  0.000000 -0.000624  0.000000 -0.010304  0.000000 -0.009992
                                -0.000000  0.000058  0.000000  0.000006  0.000000 -0.000000 -0.000010 -0.000000 -0.000000 -0.000112
                                 0.000000  0.000000 -0.002503 -0.021557 -0.072465 -0.111636 -0.106150 -0.067202 -0.001577  0.000655
                                -0.001163 -0.006569 -0.003697 -0.000108 -0.000333 -0.000000  0.000963  0.000000

                                   1 3d2-    1 3d2-    1 3d2-    1 3d2-    1 3d2-    1 3d2-    1 3d2-    1 3d2-    1 3d2-    1 3d2-
                                   1 3d2-    1 3d2-    1 3d2-    1 3d2-    1 3d2-    1 3d2-    1 3d2-    1 3d2-    1 4f2-    1 4f2-
                                   1 4f2-    1 4f2-    1 4f2-    1 4f2-    1 4f2-    1 4f2-    1 4f2-    1 4f2-    1 4f2-    1 4f2-
                                   1 4f2-    1 5g2-    1 5g4-    1 5g2-    1 5g4-    1 5g2-    1 5g4-    1 5g2-    1 5g4-    1 5g2-
                                   1 5g4-    1 5g2-    1 5g4-    1 6h4-    1 6h2-    1 6h4-    1 6h2-    1 6h4-    1 6h2-    2 3d2-
                                   2 3d2-    2 3d2-    2 3d2-    2 4f2-    2 4f2-

   1.4   0    -0.1723   -5.6269  0.000000 -0.000000  0.000001 -0.000006  0.000022 -0.000069  0.000196 -0.000618  0.003303 -0.022775
                                 0.068914  0.112029  0.215197  0.371541  0.390702  0.099251  0.071953  0.069186  0.000000 -0.000001
                                 0.000005 -0.000019  0.000048 -0.000350 -0.000872 -0.001253 -0.001408 -0.014146 -0.031298 -0.012355
                                -0.012136 -0.000018 -0.000000  0.000091  0.000000 -0.000497  0.000000 -0.007835 -0.000000 -0.006139
                                -0.000000 -0.000487 -0.000000  0.000000  0.000006 -0.000000 -0.000026  0.000000 -0.000033  0.000419
                                 0.001906  0.002303  0.000037 -0.000140 -0.000838

   2.4   0    -0.0464   -2.2765 -0.000000  0.000000 -0.000002  0.000010 -0.000035  0.000105 -0.000283  0.000719 -0.002295  0.011074
                                -0.031450 -0.040323 -0.100582 -0.118550 -0.332314  2.202579 -4.407167  3.318005 -0.000000  0.000002
                                -0.000009  0.000032 -0.000089  0.000241 -0.000334  0.001067 -0.001840  0.009122 -0.032464  0.048184
                                -0.263589  0.000008  0.000000 -0.000040 -0.000000  0.000225 -0.000000  0.003105  0.000000 -0.002805
                                -0.000000 -0.000969 -0.000000 -0.000000  0.000002 -0.000000 -0.000036  0.000000  0.000144  0.000046
                                 0.000247  0.000159  0.000005  0.000081 -0.000158

 HOMO      4.1    -0.496863 =     -13.5203eV
 LUMO      5.1    -0.252253 =      -6.8641eV
 LUMO-HOMO         0.244610 =       6.6562eV


 **********************************************************************************************************************************
 DATASETS  * FILE   NREC   LENGTH (MB)   RECORD NAMES
              1      19       22.47       500      610      700      900      950      970     1000      129      960     1100
                                          VAR    BASINP    GEOM    SYMINP    ZMAT    AOBASIS   BASIS     P2S    ABASIS      S
                                         1400     1410     1420     1200     1210     1080     1600     1650     1700
                                           T        V       ECP      H0       H01     AOSYM     SMH    MOLCAS    OPER

              2       4        4.02       700     1000      520     2202
                                         GEOM     BASIS   MCVARS     RHF

 PROGRAMS   *        TOTAL       RHF       INT
 CPU TIMES  *        94.48      9.51     84.70
 REAL TIME  *       108.62 SEC
 DISK USED  *         9.06 GB
 SF USED    *         0.24 MB
 GA USED    *         0.00 MB       (max)       0.00 MB       (current)
 **********************************************************************************************************************************
   -->
   <time start="20:01:11" end="20:02:59" cpu="94.48" system="13.62" real="108.62"/>
   <storage units="megabyte" memory="8001.84" sf="0.24" df="339.45" eaf="8722.38" ga="0.0"/>
  </jobstep><!--
  --><jobstep command="RHF-SCF" commandset="SCFPRO">
   <!--


 PROGRAM * RHF-SCF (OPEN SHELL)       Authors: W. Meyer, H.-J. Werner


 NUMBER OF ELECTRONS:       9+    8-    SPACE SYMMETRY=1    SPIN SYMMETRY: Doublet
 CONVERGENCE THRESHOLDS:    1.00E-05 (Density)    1.00E-07 (Energy)
 MAX. NUMBER OF ITERATIONS:      200
 INTERPOLATION TYPE:            DIIS
 INTERPOLATION STEPS:              2 (START)      1 (STEP)
 LEVEL SHIFTS:                 -0.60 (CLOSED) -0.30 (OPEN)

 Number of closed-shell orbitals:    8 (   4   2   2   0 )
 Number of open-shell orbitals:      1 (   1   0   0   0 )


 Molecular orbitals read from record     2202.2  Type=RHF/CANONICAL (state 1.1)

 Molecular orbital dump at record        3202.2

 ITERATION    DDIFF          GRAD             ENERGY        2-EL.EN.            DIPOLE MOMENTS         DIIS   ORB.
    1      0.000D+00      0.000D+00       -57.41983641    108.737594    0.00000    0.00000   -3.01449    0    start
    2      0.000D+00      0.282D-02       -57.43494522    107.430095    0.00000    0.00000   -2.74665    1    diag,B
    3      0.173D-02      0.137D-02       -57.44042048    107.389134    0.00000    0.00000   -2.80376    2    diag,B
    4      0.775D-03      0.861D-03       -57.44867353    107.021701    0.00000    0.00000   -2.65819    3    diag,B
    5      0.106D-02      0.743D-03       -57.45699054    106.759587    0.00000    0.00000   -2.45880    4    diag,B
    6      0.118D-02      0.754D-03       -57.45523469    106.806836    0.00000    0.00000   -2.50957    5    diag,B
    7      0.236D-03      0.743D-03       -57.43641656    107.349414    0.00000    0.00000   -3.21769    6    diag,B
    8      0.222D-02      0.873D-03       -57.43616578    107.328962    0.00000    0.00000   -3.18523    7    orth
    9      0.268D-03      0.966D-03       -57.43527898    107.454486    0.00000    0.00000   -3.52024    8    diag,B
   10      0.257D-02      0.740D-03       -57.43365837    107.552785    0.00000    0.00000   -3.71704    9    diag,B
   11      0.109D-02      0.905D-03       -57.43424473    107.550901    0.00000    0.00000   -3.70940    9    diag,B
   12      0.403D-03      0.799D-03       -57.43661708    107.574506    0.00000    0.00000   -3.79548    9    diag,B
   13      0.117D-02      0.319D-03       -57.43629308    107.622026    0.00000    0.00000   -3.94038    9    diag,B
   14      0.309D-02      0.425D-03       -57.43609963    107.619150    0.00000    0.00000   -3.96612    9    diag,B
   15      0.902D-03      0.562D-03       -57.43672391    107.602205    0.00000    0.00000   -3.93576    9    diag,B
   16      0.125D-02      0.428D-03       -57.43695035    107.572116    0.00000    0.00000   -3.89734    9    diag,B
   17      0.758D-03      0.423D-03       -57.43687597    107.580782    0.00000    0.00000   -3.91059    9    diag,B
   18      0.113D-03      0.424D-03       -57.43697153    107.626128    0.00000    0.00000   -3.97243    9    orth
   19      0.112D-02      0.250D-03       -57.43683137    107.667174    0.00000    0.00000   -4.05292    9    diag,B
   20      0.434D-03      0.172D-03       -57.43681474    107.701956    0.00000    0.00000   -4.10585    9    diag,B
   21      0.263D-03      0.593D-04       -57.43678917    107.705849    0.00000    0.00000   -4.11054    9    diag,B
   22      0.338D-03      0.432D-04       -57.43671892    107.709253    0.00000    0.00000   -4.11668    9    diag,B
   23      0.238D-03      0.424D-04       -57.43665629    107.711775    0.00000    0.00000   -4.12814    9    diag,B
   24      0.143D-03      0.484D-04       -57.43674751    107.703267    0.00000    0.00000   -4.10427    9    diag,B
   25      0.201D-03      0.476D-04       -57.43687833    107.677321    0.00000    0.00000   -4.05469    9    diag,B
   26      0.274D-03      0.446D-04       -57.43692177    107.666736    0.00000    0.00000   -4.03522    9    diag,B
   27      0.103D-03      0.485D-04       -57.43663298    107.708620    0.00000    0.00000   -4.13305    9    diag,B
   28      0.525D-03      0.840D-04       -57.43695368    107.650103    0.00000    0.00000   -4.01139    9    orth
   29      0.535D-03      0.630D-04       -57.43708889    107.615411    0.00000    0.00000   -3.95410    9    diag,B
   30      0.221D-03      0.875D-04       -57.43684204    107.674866    0.00000    0.00000   -4.06023    9    diag,B
   31      0.475D-03      0.624D-04       -57.43641929    107.700245    0.00000    0.00000   -4.14956    9    diag,B
   32      0.623D-03      0.163D-03       -57.43698959    107.639231    0.00000    0.00000   -3.99684    9    diag,B
   33      0.879D-03      0.703D-04       -57.43700565    107.638601    0.00000    0.00000   -3.99320    9    diag,B
   34      0.257D-03      0.675D-04       -57.43660561    107.704213    0.00000    0.00000   -4.13478    9    diag,B
   35      0.764D-03      0.101D-03       -57.43674785    107.698961    0.00000    0.00000   -4.10576    9    diag,B
   36      0.506D-03      0.575D-04       -57.43659570    107.709089    0.00000    0.00000   -4.13829    9    diag,B
   37      0.241D-03      0.956D-04       -57.43692506    107.658565    0.00000    0.00000   -4.02816    9    diag,B
   38      0.531D-03      0.584D-04       -57.43704677    107.625798    0.00000    0.00000   -3.97345    9    orth
   39      0.179D-03      0.809D-04       -57.43668568    107.698174    0.00000    0.00000   -4.11717    9    diag,B
   40      0.712D-03      0.875D-04       -57.43669239    107.698311    0.00000    0.00000   -4.11703    9    diag,B
   41      0.805D-04      0.822D-04       -57.43644469    107.703567    0.00000    0.00000   -4.14978    9    diag,B
   42      0.350D-03      0.149D-03       -57.43698304    107.638565    0.00000    0.00000   -4.00281    9    diag,B
   43      0.875D-03      0.739D-04       -57.43714551    107.600250    0.00000    0.00000   -3.93937    9    diag,B
   44      0.442D-03      0.109D-03       -57.43682538    107.673674    0.00000    0.00000   -4.07009    9    diag,B
   45      0.700D-03      0.754D-04       -57.43667093    107.698022    0.00000    0.00000   -4.12219    9    diag,B
   46      0.288D-03      0.934D-04       -57.43700547    107.631022    0.00000    0.00000   -3.99093    9    diag,B
   47      0.550D-03      0.859D-04       -57.43719548    107.589264    0.00000    0.00000   -3.92056    9    diag,B
   48      0.422D-03      0.118D-03       -57.43680313    107.677364    0.00000    0.00000   -4.07797    9    orth
   49      0.792D-03      0.785D-04       -57.43656211    107.700893    0.00000    0.00000   -4.13823    9    diag,B
   50      0.363D-03      0.123D-03       -57.43698770    107.635866    0.00000    0.00000   -3.99881    9    diag,B
   51      0.675D-03      0.810D-04       -57.43717210    107.593986    0.00000    0.00000   -3.92859    9    diag,B
   52      0.412D-03      0.114D-03       -57.43682859    107.672317    0.00000    0.00000   -4.06771    9    diag,B
   53      0.693D-03      0.762D-04       -57.43667605    107.697086    0.00000    0.00000   -4.12016    9    diag,B
   54      0.290D-03      0.921D-04       -57.43702517    107.625387    0.00000    0.00000   -3.98156    9    diag,B
   55      0.569D-03      0.893D-04       -57.43722172    107.583537    0.00000    0.00000   -3.91100    9    diag,B
   56      0.443D-03      0.122D-03       -57.43680759    107.676065    0.00000    0.00000   -4.07549    9    diag,B
   57      0.822D-03      0.782D-04       -57.43652542    107.700286    0.00000    0.00000   -4.14127    9    fixocc
   58      0.405D-03      0.135D-03       -57.43700104    107.632200    0.00000    0.00000   -3.99259    9    orth
   59      0.745D-03      0.826D-04       -57.43720679    107.586370    0.00000    0.00000   -3.91630    9    diag,B
   60      0.440D-03      0.120D-03       -57.43684572    107.668110    0.00000    0.00000   -4.05979    9    diag,B
   61      0.701D-03      0.764D-04       -57.43667611    107.696291    0.00000    0.00000   -4.11925    9    diag,B
   62      0.302D-03      0.934D-04       -57.43707343    107.613421    0.00000    0.00000   -3.96186    9    diag,B
   63      0.639D-03      0.985D-04       -57.43713819    107.604310    0.00000    0.00000   -3.94167    9    diag,B
   64      0.448D-03      0.997D-04       -57.43678288    107.682689    0.00000    0.00000   -4.08663    9    diag,B
   65      0.940D-03      0.727D-04       -57.43653475    107.701114    0.00000    0.00000   -4.14120    9    diag,B
   66      0.345D-03      0.128D-03       -57.43695294    107.644700    0.00000    0.00000   -4.01366    9    diag,B
   67      0.652D-03      0.739D-04       -57.43711535    107.605332    0.00000    0.00000   -3.94744    9    diag,B
   68      0.362D-03      0.103D-03       -57.43681957    107.674486    0.00000    0.00000   -4.07148    9    orth
   69      0.598D-03      0.741D-04       -57.43674178    107.690901    0.00000    0.00000   -4.10309    9    diag,B
   70      0.269D-03      0.767D-04       -57.43691545    107.652885    0.00000    0.00000   -4.02866    9    diag,B
   71      0.386D-03      0.722D-04       -57.43704368    107.619865    0.00000    0.00000   -3.97187    9    diag,B
   72      0.234D-03      0.911D-04       -57.43661384    107.698418    0.00000    0.00000   -4.13050    9    diag,B
   73      0.741D-03      0.113D-03       -57.43707495    107.616836    0.00000    0.00000   -3.96203    9    diag,B
   74      0.970D-03      0.876D-04       -57.43592101    107.684308    0.00000    0.00000   -4.15707    9    diag,B
   75      0.128D-02      0.284D-03       -57.43696285    107.649711    0.00000    0.00000   -4.01214    9    diag,B
   76      0.108D-02      0.579D-04       -57.43695858    107.650368    0.00000    0.00000   -4.01347    9    diag,B
   77      0.311D-04      0.602D-04       -57.43707990    107.618075    0.00000    0.00000   -3.96056    9    diag,B
   78      0.214D-03      0.867D-04       -57.43671759    107.696045    0.00000    0.00000   -4.10954    9    orth
   79      0.781D-03      0.796D-04       -57.43654818    107.703962    0.00000    0.00000   -4.14212    9    diag,B
   80      0.273D-03      0.123D-03       -57.43672090    107.695809    0.00000    0.00000   -4.10965    9    diag,B
   81      0.223D-03      0.760D-04       -57.43677320    107.688655    0.00000    0.00000   -4.09338    9    diag,B
   82      0.106D-03      0.673D-04       -57.43685054    107.673665    0.00000    0.00000   -4.06348    9    diag,B
   83      0.334D-03      0.654D-04       -57.43670842    107.697001    0.00000    0.00000   -4.11488    9    diag,B
   84      0.286D-03      0.828D-04       -57.43693632    107.653023    0.00000    0.00000   -4.02470    9    diag,B
   85      0.567D-03      0.715D-04       -57.43691450    107.660670    0.00000    0.00000   -4.03628    9    diag,B
   86      0.255D-03      0.672D-04       -57.43691428    107.657997    0.00000    0.00000   -4.03376    9    diag,B
   87      0.457D-03      0.671D-04       -57.43689791    107.661370    0.00000    0.00000   -4.04075    9    diag,B
   88      0.511D-04      0.670D-04       -57.43692883    107.655872    0.00000    0.00000   -4.02862    9    orth
   89      0.179D-03      0.688D-04       -57.43686373    107.671477    0.00000    0.00000   -4.05805    9    diag,B
   90      0.155D-03      0.651D-04       -57.43690225    107.664200    0.00000    0.00000   -4.04198    9    diag,B
   91      0.130D-03      0.653D-04       -57.43678641    107.689671    0.00000    0.00000   -4.09195    9    diag,B
   92      0.223D-03      0.669D-04       -57.43692446    107.659624    0.00000    0.00000   -4.03194    9    diag,B
   93      0.257D-03      0.665D-04       -57.43679669    107.690376    0.00000    0.00000   -4.08892    9    diag,B
   94      0.237D-03      0.624D-04       -57.43695809    107.651373    0.00000    0.00000   -4.01610    9    diag,B
   95      0.280D-03      0.687D-04       -57.43670845    107.703609    0.00000    0.00000   -4.11815    9    diag,B
   96      0.430D-03      0.737D-04       -57.43702755    107.633414    0.00000    0.00000   -3.98433    9    diag,B
   97      0.527D-03      0.774D-04       -57.43661790    107.708882    0.00000    0.00000   -4.13544    9    diag,B
   98      0.703D-03      0.901D-04       -57.43692330    107.658679    0.00000    0.00000   -4.02824    9    orth
   99      0.512D-03      0.577D-04       -57.43699562    107.638475    0.00000    0.00000   -3.99426    9    diag,B
  100      0.112D-03      0.701D-04       -57.43657319    107.705721    0.00000    0.00000   -4.13988    9    diag,B
  101      0.734D-03      0.114D-03       -57.43688329    107.667798    0.00000    0.00000   -4.04578    9    diag,B
  102      0.596D-03      0.573D-04       -57.43733748    107.556091    0.00000    0.00000   -3.86675    9    diag,B
  103      0.553D-03      0.146D-03       -57.43690227    107.651632    0.00000    0.00000   -4.02944    9    diag,B
  104      0.685D-03      0.874D-04       -57.43687447    107.658577    0.00000    0.00000   -4.04255    9    diag,B
  105      0.588D-04      0.853D-04       -57.43664751    107.700947    0.00000    0.00000   -4.12881    9    diag,B
  106      0.500D-03      0.957D-04       -57.43671923    107.694336    0.00000    0.00000   -4.10880    9    diag,B
  107      0.448D-03      0.786D-04       -57.43607146    107.692300    0.00000    0.00000   -4.16104    9    diag,B
  108      0.598D-03      0.248D-03       -57.43666606    107.701339    0.00000    0.00000   -4.12561    9    orth
  109      0.527D-03      0.838D-04       -57.43658170    107.707224    0.00000    0.00000   -4.14360    9    diag,B
  110      0.194D-03      0.104D-03       -57.43647972    107.703004    0.00000    0.00000   -4.14786    9    diag,B
  111      0.434D-03      0.139D-03       -57.43667481    107.708738    0.00000    0.00000   -4.13326    9    diag,B
  112      0.119D-02      0.744D-04       -57.43685140    107.680700    0.00000    0.00000   -4.06961    9    diag,B
  113      0.352D-03      0.496D-04       -57.43673144    107.702203    0.00000    0.00000   -4.11586    9    diag,B
  114      0.221D-03      0.609D-04       -57.43717350    107.595868    0.00000    0.00000   -3.92670    9    diag,B
  115      0.721D-03      0.109D-03       -57.43680224    107.685633    0.00000    0.00000   -4.08483    9    diag,B
  116      0.567D-03      0.657D-04       -57.43642182    107.702874    0.00000    0.00000   -4.15650    9    diag,B
  117      0.505D-03      0.162D-03       -57.43685446    107.672073    0.00000    0.00000   -4.06077    9    diag,B
  118      0.658D-03      0.619D-04       -57.43693385    107.651218    0.00000    0.00000   -4.02320    9    orth
  119      0.240D-03      0.707D-04       -57.43661521    107.701792    0.00000    0.00000   -4.13690    9    diag,B
  120      0.590D-03      0.105D-03       -57.43700904    107.635756    0.00000    0.00000   -3.99220    9    diag,B
  121      0.696D-03      0.755D-04       -57.43679465    107.692304    0.00000    0.00000   -4.09287    9    diag,B
  122      0.698D-03      0.520D-04       -57.43699754    107.641136    0.00000    0.00000   -4.00016    9    diag,B
  123      0.373D-03      0.744D-04       -57.43686164    107.675196    0.00000    0.00000   -4.06163    9    diag,B
  124      0.251D-03      0.582D-04       -57.43660058    107.705396    0.00000    0.00000   -4.14175    9    diag,B
  125      0.454D-03      0.100D-03       -57.43702015    107.632857    0.00000    0.00000   -3.98801    9    diag,B
  126      0.696D-03      0.816D-04       -57.43690371    107.667061    0.00000    0.00000   -4.04283    9    diag,B
  127      0.235D-03      0.548D-04       -57.43666361    107.707129    0.00000    0.00000   -4.13233    9    diag,B
  128      0.420D-03      0.756D-04       -57.43700432    107.639144    0.00000    0.00000   -3.99618    9    orth
  129      0.614D-03      0.742D-04       -57.43682749    107.682307    0.00000    0.00000   -4.07579    9    diag,B
  130      0.349D-03      0.579D-04       -57.43638286    107.702389    0.00000    0.00000   -4.15897    9    diag,B
  131      0.658D-03      0.163D-03       -57.43684898    107.673388    0.00000    0.00000   -4.06311    9    diag,B
  132      0.588D-03      0.612D-04       -57.43692426    107.653455    0.00000    0.00000   -4.02777    9    diag,B
  133      0.199D-03      0.703D-04       -57.43664173    107.700421    0.00000    0.00000   -4.13174    9    diag,B
  134      0.482D-03      0.957D-04       -57.43702665    107.630557    0.00000    0.00000   -3.98481    9    diag,B
  135      0.664D-03      0.826D-04       -57.43677548    107.695809    0.00000    0.00000   -4.10047    9    diag,B
  136      0.672D-03      0.541D-04       -57.43704141    107.628946    0.00000    0.00000   -3.97997    9    diag,B
  137      0.455D-03      0.826D-04       -57.43684548    107.677690    0.00000    0.00000   -4.06734    9    diag,B
  138      0.350D-03      0.597D-04       -57.43648455    107.703833    0.00000    0.00000   -4.15224    9    orth
  139      0.595D-03      0.137D-03       -57.43695246    107.646912    0.00000    0.00000   -4.01502    9    diag,B
  140      0.702D-03      0.715D-04       -57.43719999    107.587920    0.00000    0.00000   -3.91669    9    diag,B
  141      0.331D-03      0.118D-03       -57.43676885    107.684963    0.00000    0.00000   -4.09412    9    diag,B
  142      0.651D-03      0.792D-04       -57.43655877    107.705217    0.00000    0.00000   -4.14588    9    diag,B
  143      0.398D-03      0.118D-03       -57.43702411    107.626113    0.00000    0.00000   -3.98249    9    diag,B
  144      0.839D-03      0.874D-04       -57.43711415    107.610805    0.00000    0.00000   -3.95051    9    diag,B
  145      0.298D-03      0.939D-04       -57.43663909    107.701103    0.00000    0.00000   -4.13324    9    diag,B
  146      0.779D-03      0.984D-04       -57.43670910    107.701926    0.00000    0.00000   -4.11935    9    diag,B
  147      0.263D-03      0.713D-04       -57.43709023    107.616801    0.00000    0.00000   -3.96164    9    diag,B
  148      0.684D-03      0.925D-04       -57.43678357    107.691056    0.00000    0.00000   -4.09353    9    orth
  149      0.560D-03      0.604D-04       -57.43658938    107.707016    0.00000    0.00000   -4.14247    9    diag,B
  150      0.301D-03      0.102D-03       -57.43686029    107.671655    0.00000    0.00000   -4.05755    9    diag,B
  151      0.584D-03      0.584D-04       -57.43699255    107.637252    0.00000    0.00000   -3.99650    9    diag,B
  152      0.268D-03      0.755D-04       -57.43663494    107.700287    0.00000    0.00000   -4.13082    9    diag,B
  153      0.634D-03      0.969D-04       -57.43685956    107.678802    0.00000    0.00000   -4.06530    9    diag,B
  154      0.693D-03      0.505D-04       -57.43677018    107.696360    0.00000    0.00000   -4.10252    9    diag,B
  155      0.257D-03      0.557D-04       -57.43696936    107.647404    0.00000    0.00000   -4.01037    9    diag,B
  156      0.405D-03      0.672D-04       -57.43684475    107.680488    0.00000    0.00000   -4.06954    9    diag,B
  157      0.240D-03      0.565D-04       -57.43625030    107.704254    0.00000    0.00000   -4.16803    9    diag,B
  158      0.755D-03      0.199D-03       -57.43693433    107.656568    0.00000    0.00000   -4.02610    9    orth
  159      0.825D-03      0.609D-04       -57.43700335    107.638067    0.00000    0.00000   -3.99442    9    diag,B
  160      0.204D-03      0.704D-04       -57.43654700    107.708930    0.00000    0.00000   -4.14908    9    diag,B
  161      0.773D-03      0.124D-03       -57.43682674    107.684227    0.00000    0.00000   -4.07819    9    diag,B
  162      0.877D-03      0.511D-04       -57.43684732    107.682729    0.00000    0.00000   -4.07125    9    diag,B
  163      0.964D-04      0.521D-04       -57.43676606    107.699342    0.00000    0.00000   -4.10607    9    diag,B
  164      0.151D-03      0.580D-04       -57.43692455    107.660934    0.00000    0.00000   -4.03256    9    diag,B
  165      0.279D-03      0.586D-04       -57.43665020    107.707805    0.00000    0.00000   -4.13631    9    diag,B
  166      0.478D-03      0.802D-04       -57.43693718    107.656451    0.00000    0.00000   -4.02577    9    diag,B
  167      0.475D-03      0.620D-04       -57.43695708    107.651570    0.00000    0.00000   -4.01659    9    diag,B
  168      0.458D-04      0.644D-04       -57.43683788    107.678252    0.00000    0.00000   -4.07234    9    orth
  169      0.282D-03      0.583D-04       -57.43659277    107.712262    0.00000    0.00000   -4.14667    9    diag,B
  170      0.490D-03      0.931D-04       -57.43722921    107.579526    0.00000    0.00000   -3.90629    9    diag,B
  171      0.102D-02      0.126D-03       -57.43673681    107.696980    0.00000    0.00000   -4.10800    9    diag,B
  172      0.802D-03      0.741D-04       -57.43633921    107.702426    0.00000    0.00000   -4.15789    9    diag,B
  173      0.444D-03      0.186D-03       -57.43673468    107.696796    0.00000    0.00000   -4.10851    9    diag,B
  174      0.634D-03      0.661D-04       -57.43674833    107.694589    0.00000    0.00000   -4.10383    9    diag,B
  175      0.240D-03      0.666D-04       -57.43642081    107.706951    0.00000    0.00000   -4.15923    9    diag,B
  176      0.621D-03      0.150D-03       -57.43680590    107.685443    0.00000    0.00000   -4.08268    9    diag,B
  177      0.733D-03      0.597D-04       -57.43686703    107.672361    0.00000    0.00000   -4.05625    9    diag,B
  178      0.130D-03      0.582D-04       -57.43634486    107.704786    0.00000    0.00000   -4.16230    9    orth
  179      0.720D-03      0.173D-03       -57.43693937    107.654320    0.00000    0.00000   -4.02310    9    diag,B
  180      0.814D-03      0.630D-04       -57.43699233    107.641462    0.00000    0.00000   -4.00035    9    diag,B
  181      0.252D-03      0.683D-04       -57.43638376    107.704413    0.00000    0.00000   -4.15793    9    diag,B
  182      0.868D-03      0.172D-03       -57.43682451    107.684967    0.00000    0.00000   -4.07948    9    diag,B
  183      0.782D-03      0.518D-04       -57.43689641    107.668591    0.00000    0.00000   -4.04687    9    diag,B
  184      0.173D-03      0.530D-04       -57.43658166    107.712909    0.00000    0.00000   -4.14918    9    diag,B
  185      0.540D-03      0.990D-04       -57.43683858    107.680304    0.00000    0.00000   -4.07170    9    diag,B
  186      0.420D-03      0.556D-04       -57.43691676    107.655702    0.00000    0.00000   -4.03170    9    diag,B
  187      0.299D-03      0.652D-04       -57.43626908    107.703705    0.00000    0.00000   -4.16524    9    diag,B
  188      0.906D-03      0.192D-03       -57.43703709    107.626300    0.00000    0.00000   -3.97923    9    orth
  189      0.113D-02      0.789D-04       -57.43679123    107.692496    0.00000    0.00000   -4.09248    9    diag,B
  190      0.544D-03      0.559D-04       -57.43613255    107.700944    0.00000    0.00000   -4.16682    9    diag,B
  191      0.657D-03      0.229D-03       -57.43667416    107.706083    0.00000    0.00000   -4.12646    9    diag,B
  192      0.691D-03      0.773D-04       -57.43672137    107.701390    0.00000    0.00000   -4.11439    9    diag,B
  193      0.250D-03      0.661D-04       -57.43676563    107.694292    0.00000    0.00000   -4.10072    9    diag,B
  194      0.227D-03      0.596D-04       -57.43636892    107.710346    0.00000    0.00000   -4.16400    9    diag,B
  195      0.101D-02      0.163D-03       -57.43689809    107.664473    0.00000    0.00000   -4.04252    9    diag,B
  196      0.103D-02      0.557D-04       -57.43695359    107.649940    0.00000    0.00000   -4.01703    9    diag,B
  197      0.281D-03      0.622D-04       -57.43630635    107.706011    0.00000    0.00000   -4.16281    9    diag,B
  198      0.846D-03      0.186D-03       -57.43685777    107.677489    0.00000    0.00000   -4.06457    9    orth
  199      0.934D-03      0.519D-04       -57.43691080    107.664132    0.00000    0.00000   -4.04009    9    orth
  200      0.163D-03      0.534D-04       -57.43692981    107.667291    0.00000    0.00000   -4.03554    0    orth

 Final alpha occupancy:   5   2   2   0
 Final beta  occupancy:   4   2   2   0

 !RHF STATE 1.1 Energy                -57.436929814988
   --><property name="Energy" method="RHF" principal="true" stateSymmetry="1" stateNumber="1"
     value="-57.4369298149879"/><!--
 Nuclear energy                        14.55237330
 One-electron energy                 -125.82294881
 Two-electron energy                   53.83364570
 Virial quotient                       -2.08813986
 !RHF STATE 1.1 Dipole moment           0.00000000     0.00000000    -4.03553536
 Dipole moment /Debye                   0.00000000     0.00000000   -10.25663596
   --><property name="Dipole moment" method="RHF" principal="true" stateSymmetry="1"
     stateNumber="1" value="0.0 0.0 -4.03553535807787"/><!--

 ELECTRON ORBITALS
 =================


   Orb  Occ    Energy  Couls-En    Coefficients

                                   1 1s      1 1s      1 1s      1 1s      1 1s      1 1s      1 1s      1 1s      1 1s      1 1s
                                   1 1s      1 1s      1 1s      1 1s      1 1s      1 1s      1 1s      1 1s      1 1s      1 1s
                                   1 1s      1 1s      1 1s      1 1s      1 1s      1 1s      1 1s      1 1s      1 1s      1 1s
                                   1 1s      1 2pz     1 2pz     1 2pz     1 2pz     1 2pz     1 2pz     1 2pz     1 2pz     1 2pz
                                   1 2pz     1 2pz     1 2pz     1 2pz     1 2pz     1 2pz     1 2pz     1 2pz     1 2pz     1 2pz
                                   1 2pz     1 2pz     1 2pz     1 2pz     1 2pz     1 2pz     1 2pz     1 2pz     1 3d0     1 3d2+
                                   1 3d0     1 3d2+    1 3d0     1 3d2+    1 3d0     1 3d2+    1 3d0     1 3d2+    1 3d0     1 3d2+
                                   1 3d0     1 3d2+    1 3d0     1 3d2+    1 3d0     1 3d2+    1 3d0     1 3d2+    1 3d0     1 3d2+
                                   1 3d0     1 3d2+    1 3d0     1 3d2+    1 3d0     1 3d2+    1 3d0     1 3d2+    1 3d0     1 3d2+
                                   1 3d0     1 3d2+    1 3d0     1 3d2+    1 4f0     1 4f2+    1 4f0     1 4f2+    1 4f0     1 4f2+
                                   1 4f0     1 4f2+    1 4f0     1 4f2+    1 4f0     1 4f2+    1 4f0     1 4f2+    1 4f0     1 4f2+
                                   1 4f0     1 4f2+    1 4f0     1 4f2+    1 4f0     1 4f2+    1 4f0     1 4f2+    1 4f0     1 4f2+
                                   1 5g0     1 5g4+    1 5g2+    1 5g0     1 5g4+    1 5g2+    1 5g0     1 5g4+    1 5g2+    1 5g0
                                   1 5g4+    1 5g2+    1 5g0     1 5g4+    1 5g2+    1 5g0     1 5g4+    1 5g2+    1 6h2+    1 6h4+
                                   1 6h0     1 6h2+    1 6h4+    1 6h0     1 6h2+    1 6h4+    1 6h0     2 1s      2 1s      2 1s
                                   2 1s      2 1s      2 1s      2 1s      2 1s      2 1s      2 1s      2 1s      2 1s      2 1s
                                   2 2pz     2 2pz     2 2pz     2 2pz     2 2pz     2 2pz     2 2pz     2 2pz     2 3d0     2 3d2+
                                   2 3d0     2 3d2+    2 3d0     2 3d2+    2 3d0     2 3d2+    2 4f0     2 4f2+    2 4f0     2 4f2+


   1.1   2    -2.6811  -12.3393  0.000000 -0.000000  0.000000 -0.000000  0.000000 -0.000001  0.000001 -0.000004  0.000011 -0.000028
                                 0.000069 -0.000165  0.000387 -0.000872  0.001883 -0.003933  0.007611 -0.012684  0.015451 -0.091811
                                 0.471916 -0.646906 -0.283291  0.310178  0.697156  0.347531 -0.019330  0.030124 -0.022629  0.016399
                                -0.004856 -0.000000  0.000000 -0.000000  0.000000 -0.000000  0.000000 -0.000000  0.000000 -0.000000
                                 0.000000 -0.000000  0.000000 -0.000000  0.000001  0.000002 -0.000274  0.000573 -0.000300 -0.001366
                                 0.001961 -0.003214 -0.002270 -0.008151 -0.012453 -0.002271 -0.000905  0.012118 -0.000000 -0.000000
                                 0.000000  0.000000 -0.000000 -0.000000  0.000001  0.000000 -0.000003 -0.000000  0.000008  0.000000
                                -0.000022 -0.000000  0.000053  0.000000 -0.000130 -0.000000  0.000406  0.000000 -0.000933 -0.000000
                                -0.000403 -0.000000 -0.003939 -0.000000 -0.004600 -0.000000  0.000190  0.000000 -0.001051 -0.000000
                                 0.000456  0.000000  0.000136 -0.000000  0.000000 -0.000000 -0.000000  0.000000  0.000001 -0.000000
                                -0.000005  0.000000  0.000014 -0.000000 -0.000087  0.000000 -0.000154  0.000000 -0.000155  0.000000
                                -0.000638  0.000000 -0.000457  0.000000  0.000094 -0.000000 -0.000141  0.000000  0.000129 -0.000000
                                 0.000000  0.000000 -0.000000  0.000008 -0.000000 -0.000000  0.000005  0.000000 -0.000000 -0.000018
                                -0.000000 -0.000000  0.000023  0.000000  0.000000  0.000044 -0.000000 -0.000000 -0.000000  0.000000
                                -0.000000  0.000000 -0.000000  0.000001 -0.000000 -0.000000  0.000009 -0.000000  0.000000 -0.000000
                                 0.000001 -0.000006  0.000173 -0.000161  0.000593  0.000808  0.001523  0.002301 -0.000268 -0.000290
                                -0.000021 -0.000178 -0.000471 -0.000807 -0.001545 -0.000995  0.000006  0.000006  0.000029 -0.000000
                                 0.000398 -0.000000  0.000699 -0.000000  0.000008 -0.000000 -0.000005  0.000000 -0.000304  0.000000

   2.1   2    -1.4187   -9.9292  0.000000 -0.000000  0.000000 -0.000000  0.000000 -0.000000  0.000000 -0.000000  0.000000 -0.000000
                                 0.000001 -0.000003  0.000006 -0.000014  0.000030 -0.000064  0.000125 -0.000211  0.000264 -0.001717
                                 0.009233 -0.012891 -0.006793  0.007600  0.026102 -0.004286 -0.009121 -0.007151 -0.002620 -0.006841
                                 0.002975 -0.000000  0.000000 -0.000000  0.000000 -0.000000  0.000000 -0.000001  0.000003 -0.000009
                                 0.000029 -0.000083  0.000231 -0.000624  0.001777 -0.006138  0.074254 -0.145480  0.104833  0.088692
                                 0.151464  0.494670 -0.050459  0.365345 -0.005545  0.053895 -0.004515  0.006018 -0.000000  0.000000
                                 0.000000 -0.000000 -0.000000  0.000000  0.000001 -0.000000 -0.000005  0.000000  0.000015 -0.000000
                                -0.000040  0.000000  0.000097 -0.000000 -0.000254  0.000000  0.000922 -0.000000 -0.002366  0.000000
                                -0.001801  0.000000 -0.007429  0.000000 -0.014685  0.000000 -0.005585 -0.000000  0.001184  0.000000
                                -0.003916 -0.000000  0.001787  0.000000  0.000000 -0.000000 -0.000000  0.000000  0.000000 -0.000000
                                -0.000001  0.000000  0.000001 -0.000000 -0.000142  0.000000 -0.000656 -0.000000 -0.000306  0.000000
                                -0.002958 -0.000000 -0.003342 -0.000000 -0.001146  0.000000 -0.000116 -0.000000  0.000153  0.000000
                                -0.000006  0.000000  0.000000  0.000046  0.000000 -0.000000 -0.000122  0.000000  0.000000 -0.000551
                                 0.000000  0.000000 -0.000194 -0.000000 -0.000000  0.000150  0.000000  0.000000  0.000000 -0.000000
                                 0.000001  0.000000 -0.000000 -0.000083 -0.000000  0.000000  0.000141 -0.000000  0.000000 -0.000002
[...]
                                -0.000013 -0.000000  0.000000  0.000109  0.000000 -0.000000 -0.000227 -0.000000  0.000001 -0.000004
                                 0.000023 -0.000139  0.002026  0.009094  0.008032 -0.017164  0.025932 -0.538833 -0.009756 -0.004336
                                -0.000319 -0.002757 -0.008867 -0.014028 -0.026833  0.111539 -0.000126  0.000085  0.000098 -0.000000
                                -0.003159 -0.000000  0.016199 -0.000000 -0.000046 -0.000000  0.000129  0.000000  0.000326  0.000000

                                   1 2px     1 2px     1 2px     1 2px     1 2px     1 2px     1 2px     1 2px     1 2px     1 2px
                                   1 2px     1 2px     1 2px     1 2px     1 2px     1 2px     1 2px     1 2px     1 2px     1 2px
                                   1 2px     1 2px     1 2px     1 2px     1 2px     1 2px     1 2px     1 3d1+    1 3d1+    1 3d1+
                                   1 3d1+    1 3d1+    1 3d1+    1 3d1+    1 3d1+    1 3d1+    1 3d1+    1 3d1+    1 3d1+    1 3d1+
                                   1 3d1+    1 3d1+    1 3d1+    1 3d1+    1 3d1+    1 4f1+    1 4f3+    1 4f1+    1 4f3+    1 4f1+
                                   1 4f3+    1 4f1+    1 4f3+    1 4f1+    1 4f3+    1 4f1+    1 4f3+    1 4f1+    1 4f3+    1 4f1+
                                   1 4f3+    1 4f1+    1 4f3+    1 4f1+    1 4f3+    1 4f1+    1 4f3+    1 4f1+    1 4f3+    1 4f1+
                                   1 4f3+    1 5g1+    1 5g3+    1 5g1+    1 5g3+    1 5g1+    1 5g3+    1 5g1+    1 5g3+    1 5g1+
                                   1 5g3+    1 5g1+    1 5g3+    1 6h1+    1 6h3+    1 6h5+    1 6h1+    1 6h3+    1 6h5+    1 6h1+
                                   1 6h3+    1 6h5+    2 2px     2 2px     2 2px     2 2px     2 2px     2 2px     2 2px     2 2px
                                   2 3d1+    2 3d1+    2 3d1+    2 3d1+    2 4f1+    2 4f3+    2 4f1+    2 4f3+

   1.2   2    -1.4293   -9.8734 -0.000000  0.000000 -0.000000  0.000000 -0.000000  0.000000 -0.000001  0.000003 -0.000009  0.000029
                                -0.000083  0.000231 -0.000623  0.001775 -0.006134  0.074105 -0.145092  0.104349  0.088570  0.149495
                                 0.491884 -0.045011  0.371006  0.029857  0.058001 -0.002692 -0.028614 -0.000000  0.000000 -0.000000
                                 0.000001 -0.000003  0.000008 -0.000022  0.000054 -0.000132  0.000412 -0.000906 -0.000327 -0.002794
                                -0.010576 -0.003860  0.001661 -0.001967  0.000420 -0.000000 -0.000000  0.000000  0.000000 -0.000000
                                -0.000000 -0.000000  0.000000 -0.000002 -0.000000 -0.000153  0.000000 -0.000765  0.000000 -0.000374
                                 0.000000 -0.002874 -0.000000 -0.003313 -0.000000  0.000048  0.000000 -0.000215 -0.000000 -0.000018
                                 0.000000 -0.000006  0.000000  0.000039 -0.000000 -0.000139  0.000000 -0.000500  0.000000  0.000112
                                -0.000000 -0.000135  0.000000 -0.000002  0.000000  0.000000 -0.000040  0.000000  0.000000  0.000007
                                 0.000000 -0.000000  0.000062  0.000533  0.001641  0.002673  0.002379  0.000617  0.000016 -0.000017
                                -0.000097 -0.000616 -0.000825 -0.000012  0.000036 -0.000000  0.000412 -0.000000

   2.2   2    -0.3035   -6.4801  0.000000 -0.000000  0.000000 -0.000000  0.000000 -0.000000  0.000000 -0.000000  0.000001 -0.000002
                                 0.000005 -0.000014  0.000039 -0.000111  0.000385 -0.005075  0.010242 -0.007923 -0.005517 -0.014173
                                -0.037818  0.005177 -0.032163 -0.091871  0.043351  0.076446  0.093204  0.000000 -0.000000  0.000000
                                -0.000001  0.000002 -0.000006  0.000020 -0.000076  0.000523 -0.003934  0.011973  0.020357  0.036694
                                 0.068794  0.082964  0.002153  0.040778 -0.019538 -0.000000  0.000000  0.000002 -0.000000 -0.000009
                                 0.000000  0.000031 -0.000000 -0.000081  0.000000  0.000458  0.000000  0.000813  0.000000  0.001788
                                 0.000000  0.000280  0.000000  0.012272  0.000000  0.011896 -0.000000  0.007534  0.000000 -0.004456
                                -0.000000  0.000004 -0.000000 -0.000006  0.000000  0.000202 -0.000000  0.004463 -0.000000 -0.000261
                                -0.000000  0.000789  0.000000  0.000063 -0.000000  0.000000 -0.000484  0.000000 -0.000000  0.001594
                                -0.000000  0.000000  0.009090  0.078033  0.257440  0.402034  0.352161  0.099354  0.005226 -0.002391
                                -0.002448 -0.009619 -0.018916 -0.000255  0.000686 -0.000000  0.005165 -0.000000

   3.2   0    -0.0278   -3.3417 -0.000000  0.000000 -0.000000  0.000000 -0.000000  0.000000 -0.000000  0.000001 -0.000003  0.000009
                                -0.000025  0.000070 -0.000189  0.000535 -0.001790  0.019519 -0.038698  0.030088  0.014317  0.052533
                                 0.098681  0.032631  0.064125  6.422751 -0.089281 -0.505564 -6.824286  0.000000 -0.000000  0.000000
                                -0.000001  0.000003 -0.000009  0.000028 -0.000112  0.000819 -0.006309  0.019328  0.033145  0.059243
                                 0.105807  0.134048  0.381195 -0.478737  0.450602 -0.000000  0.000000  0.000000 -0.000000 -0.000000
                                 0.000000  0.000000 -0.000000 -0.000002  0.000000 -0.000044 -0.000000 -0.000238 -0.000000 -0.000101
                                -0.000000 -0.000919 -0.000000 -0.002945 -0.000000 -0.004232 -0.000000  0.004304  0.000000 -0.006379
                                -0.000000 -0.000010  0.000000  0.000038  0.000000 -0.000364  0.000000 -0.004533  0.000000 -0.003658
                                -0.000000 -0.001292 -0.000000  0.000001  0.000000 -0.000000  0.000012 -0.000000  0.000000 -0.000130
                                 0.000000  0.000000  0.000390  0.003357  0.011075  0.017294  0.014259 -0.008851  0.000219 -0.000103
                                -0.000048 -0.000908  0.001219 -0.000019  0.000052 -0.000000  0.000784  0.000000

   4.2   0     0.0462   -2.1962 -0.000000  0.000000 -0.000000  0.000000 -0.000000  0.000000 -0.000001  0.000003 -0.000012  0.000036
                                -0.000106  0.000292 -0.000778  0.002169 -0.006606  0.032411 -0.055845  0.044389 -0.053331  0.056123
                                -0.425984  0.694609 -0.610977 64.195873  0.515079 -0.830507-63.949147 -0.000000  0.000000 -0.000001
                                 0.000006 -0.000020  0.000060 -0.000162  0.000431 -0.001591  0.008767 -0.025485 -0.036704 -0.079756
                                -0.110983 -0.241616  0.815838 -1.777015  1.156036 -0.000000  0.000000  0.000001 -0.000000 -0.000003
                                 0.000000  0.000012 -0.000000 -0.000032  0.000000  0.000206  0.000000  0.000457  0.000000  0.000758
                                 0.000000  0.000662  0.000000  0.008787  0.000000  0.018372  0.000000  0.033109 -0.000000  0.128163
                                 0.000000  0.000012  0.000000 -0.000042 -0.000000  0.000438 -0.000000  0.005760  0.000000  0.006116
                                 0.000000  0.036802 -0.000000  0.000003 -0.000000  0.000000 -0.000062  0.000000 -0.000000  0.000314
                                -0.000000 -0.000000  0.000734  0.006106  0.023558  0.032816  0.044050 -0.159318  0.001033 -0.000185
                                 0.000215  0.000259  0.003307 -0.000002 -0.000057 -0.000000 -0.000436 -0.000000

                                   1 2py     1 2py     1 2py     1 2py     1 2py     1 2py     1 2py     1 2py     1 2py     1 2py
                                   1 2py     1 2py     1 2py     1 2py     1 2py     1 2py     1 2py     1 2py     1 2py     1 2py
                                   1 2py     1 2py     1 2py     1 2py     1 2py     1 2py     1 2py     1 3d1-    1 3d1-    1 3d1-
                                   1 3d1-    1 3d1-    1 3d1-    1 3d1-    1 3d1-    1 3d1-    1 3d1-    1 3d1-    1 3d1-    1 3d1-
                                   1 3d1-    1 3d1-    1 3d1-    1 3d1-    1 3d1-    1 4f1-    1 4f3-    1 4f1-    1 4f3-    1 4f1-
                                   1 4f3-    1 4f1-    1 4f3-    1 4f1-    1 4f3-    1 4f1-    1 4f3-    1 4f1-    1 4f3-    1 4f1-
                                   1 4f3-    1 4f1-    1 4f3-    1 4f1-    1 4f3-    1 4f1-    1 4f3-    1 4f1-    1 4f3-    1 4f1-
                                   1 4f3-    1 5g1-    1 5g3-    1 5g1-    1 5g3-    1 5g1-    1 5g3-    1 5g1-    1 5g3-    1 5g1-
                                   1 5g3-    1 5g1-    1 5g3-    1 6h1-    1 6h3-    1 6h5-    1 6h1-    1 6h3-    1 6h5-    1 6h1-
                                   1 6h3-    1 6h5-    2 2py     2 2py     2 2py     2 2py     2 2py     2 2py     2 2py     2 2py
                                   2 3d1-    2 3d1-    2 3d1-    2 3d1-    2 4f1-    2 4f3-    2 4f1-    2 4f3-

   1.3   2    -1.4293   -9.8734 -0.000000  0.000000 -0.000000  0.000000 -0.000000  0.000000 -0.000001  0.000003 -0.000009  0.000029
                                -0.000083  0.000231 -0.000623  0.001775 -0.006134  0.074105 -0.145092  0.104349  0.088570  0.149495
                                 0.491884 -0.045011  0.371006  0.029857  0.058001 -0.002692 -0.028614 -0.000000  0.000000 -0.000000
                                 0.000001 -0.000003  0.000008 -0.000022  0.000054 -0.000132  0.000412 -0.000906 -0.000327 -0.002794
                                -0.010576 -0.003860  0.001661 -0.001967  0.000420 -0.000000 -0.000000  0.000000  0.000000 -0.000000
                                -0.000000 -0.000000  0.000000 -0.000002 -0.000000 -0.000153  0.000000 -0.000765  0.000000 -0.000374
                                 0.000000 -0.002874 -0.000000 -0.003313 -0.000000  0.000048  0.000000 -0.000215 -0.000000 -0.000018
                                 0.000000 -0.000006  0.000000  0.000039 -0.000000 -0.000139  0.000000 -0.000500  0.000000  0.000112
                                -0.000000 -0.000135  0.000000 -0.000002  0.000000  0.000000 -0.000040  0.000000  0.000000  0.000007
                                 0.000000 -0.000000  0.000062  0.000533  0.001641  0.002673  0.002379  0.000617  0.000016 -0.000017
                                -0.000097 -0.000616 -0.000825 -0.000012  0.000036 -0.000000  0.000412 -0.000000

   2.3   2    -0.3035   -6.4801  0.000000 -0.000000  0.000000 -0.000000  0.000000 -0.000000  0.000000 -0.000000  0.000001 -0.000002
                                 0.000005 -0.000014  0.000039 -0.000111  0.000385 -0.005075  0.010242 -0.007923 -0.005517 -0.014173
                                -0.037818  0.005177 -0.032163 -0.091871  0.043351  0.076446  0.093205  0.000000 -0.000000  0.000000
                                -0.000001  0.000002 -0.000006  0.000020 -0.000076  0.000523 -0.003935  0.011973  0.020357  0.036694
                                 0.068795  0.082965  0.002154  0.040778 -0.019537 -0.000000  0.000000  0.000002 -0.000000 -0.000009
                                 0.000000  0.000031 -0.000000 -0.000081  0.000000  0.000458  0.000000  0.000813  0.000000  0.001788
                                 0.000000  0.000280  0.000000  0.012272  0.000000  0.011896 -0.000000  0.007534  0.000000 -0.004456
                                -0.000000  0.000004 -0.000000 -0.000006  0.000000  0.000202 -0.000000  0.004463 -0.000000 -0.000261
                                -0.000000  0.000789  0.000000  0.000063 -0.000000  0.000000 -0.000484  0.000000 -0.000000  0.001594
                                -0.000000  0.000000  0.009090  0.078033  0.257440  0.402033  0.352161  0.099354  0.005226 -0.002391
                                -0.002448 -0.009619 -0.018916 -0.000255  0.000686 -0.000000  0.005165 -0.000000

   3.3   0    -0.0278   -3.3417 -0.000000  0.000000 -0.000000  0.000000 -0.000000  0.000000 -0.000000  0.000001 -0.000003  0.000009
                                -0.000025  0.000070 -0.000189  0.000535 -0.001790  0.019519 -0.038698  0.030088  0.014316  0.052533
                                 0.098680  0.032632  0.064124  6.422786 -0.089280 -0.505564 -6.824322  0.000000 -0.000000  0.000000
                                -0.000001  0.000003 -0.000009  0.000028 -0.000112  0.000819 -0.006309  0.019328  0.033145  0.059243
                                 0.105807  0.134048  0.381196 -0.478738  0.450604 -0.000000  0.000000  0.000000 -0.000000 -0.000000
                                 0.000000  0.000000 -0.000000 -0.000002  0.000000 -0.000044 -0.000000 -0.000238 -0.000000 -0.000101
                                -0.000000 -0.000919 -0.000000 -0.002945 -0.000000 -0.004232 -0.000000  0.004305  0.000000 -0.006379
                                -0.000000 -0.000010  0.000000  0.000038  0.000000 -0.000364  0.000000 -0.004533  0.000000 -0.003658
                                -0.000000 -0.001292 -0.000000  0.000001  0.000000 -0.000000  0.000012 -0.000000  0.000000 -0.000130
                                 0.000000  0.000000  0.000390  0.003357  0.011075  0.017294  0.014259 -0.008851  0.000219 -0.000103
                                -0.000048 -0.000908  0.001219 -0.000019  0.000052 -0.000000  0.000784  0.000000

   4.3   0     0.0462   -2.1962 -0.000000  0.000000 -0.000000  0.000000 -0.000000  0.000000 -0.000001  0.000003 -0.000012  0.000036
                                -0.000106  0.000292 -0.000778  0.002169 -0.006606  0.032411 -0.055845  0.044389 -0.053331  0.056123
                                -0.425984  0.694609 -0.610977 64.195867  0.515079 -0.830506-63.949141 -0.000000  0.000000 -0.000001
                                 0.000006 -0.000020  0.000060 -0.000162  0.000431 -0.001591  0.008767 -0.025485 -0.036704 -0.079756
                                -0.110983 -0.241616  0.815837 -1.777013  1.156035 -0.000000  0.000000  0.000001 -0.000000 -0.000003
                                 0.000000  0.000012 -0.000000 -0.000032  0.000000  0.000206  0.000000  0.000457  0.000000  0.000758
                                 0.000000  0.000662  0.000000  0.008787  0.000000  0.018372  0.000000  0.033109 -0.000000  0.128163
                                 0.000000  0.000012  0.000000 -0.000042 -0.000000  0.000438 -0.000000  0.005760  0.000000  0.006116
                                 0.000000  0.036802 -0.000000  0.000003 -0.000000  0.000000 -0.000062  0.000000 -0.000000  0.000314
                                -0.000000 -0.000000  0.000734  0.006106  0.023558  0.032816  0.044051 -0.159318  0.001033 -0.000185
                                 0.000215  0.000259  0.003307 -0.000002 -0.000057 -0.000000 -0.000436 -0.000000

                                   1 3d2-    1 3d2-    1 3d2-    1 3d2-    1 3d2-    1 3d2-    1 3d2-    1 3d2-    1 3d2-    1 3d2-
                                   1 3d2-    1 3d2-    1 3d2-    1 3d2-    1 3d2-    1 3d2-    1 3d2-    1 3d2-    1 4f2-    1 4f2-
                                   1 4f2-    1 4f2-    1 4f2-    1 4f2-    1 4f2-    1 4f2-    1 4f2-    1 4f2-    1 4f2-    1 4f2-
                                   1 4f2-    1 5g2-    1 5g4-    1 5g2-    1 5g4-    1 5g2-    1 5g4-    1 5g2-    1 5g4-    1 5g2-
                                   1 5g4-    1 5g2-    1 5g4-    1 6h4-    1 6h2-    1 6h4-    1 6h2-    1 6h4-    1 6h2-    2 3d2-
                                   2 3d2-    2 3d2-    2 3d2-    2 4f2-    2 4f2-

   1.4   0     0.0257   -4.1422  0.000000 -0.000000  0.000000 -0.000001  0.000005 -0.000016  0.000053 -0.000240  0.001955 -0.015522
                                 0.047788  0.082472  0.147893  0.279759  0.228782  1.005108 -1.694794  1.366914  0.000000 -0.000000
                                 0.000001 -0.000004  0.000007 -0.000172 -0.000722 -0.000608 -0.001248 -0.011038 -0.055865  0.010602
                                -0.125358 -0.000015 -0.000000  0.000049  0.000000 -0.000573  0.000000 -0.007711 -0.000000 -0.008546
                                -0.000000 -0.004389 -0.000000  0.000000  0.000003 -0.000000  0.000026  0.000000 -0.000219  0.000397
                                 0.001711  0.002849  0.000033 -0.000089 -0.000821

   2.4   0     0.0737   -2.6337 -0.000000  0.000001 -0.000004  0.000016 -0.000057  0.000172 -0.000461  0.001158 -0.003510  0.015920
                                -0.044309 -0.053845 -0.140264 -0.154157 -0.551912  3.435924 -7.067994  4.550186 -0.000001  0.000006
                                -0.000024  0.000081 -0.000225  0.000622 -0.000789  0.002795 -0.005000  0.023110 -0.053003  0.199730
                                -0.374629  0.000011  0.000000 -0.000036 -0.000000  0.000439 -0.000000  0.006391  0.000000  0.003832
                                 0.000000  0.003169 -0.000000 -0.000000  0.000001  0.000000 -0.000055 -0.000000  0.000275 -0.000226
                                -0.000603 -0.002509 -0.000012  0.000190 -0.000195

 HOMO      5.1    -0.295501 =      -8.0410eV
 LUMO      3.2    -0.027772 =      -0.7557eV
 LUMO-HOMO         0.267729 =       7.2853eV

 No convergence



 **********************************************************************************************************************************
 DATASETS  * FILE   NREC   LENGTH (MB)   RECORD NAMES
              1      19       22.47       500      610      700      900      950      970     1000      129      960     1100
                                          VAR    BASINP    GEOM    SYMINP    ZMAT    AOBASIS   BASIS     P2S    ABASIS      S
                                         1400     1410     1420     1200     1210     1080     1600     1650     1700
                                           T        V       ECP      H0       H01     AOSYM     SMH    MOLCAS    OPER

              2       5        9.36       700     1000      520     2202     3202
                                         GEOM     BASIS   MCVARS     RHF      RHF

 PROGRAMS   *        TOTAL       RHF       RHF       INT
 CPU TIMES  *       200.85    106.37      9.51     84.70
 REAL TIME  *       222.50 SEC
 DISK USED  *         9.17 GB
 SF USED    *         0.24 MB
 GA USED    *         0.00 MB       (max)       0.00 MB       (current)
 **********************************************************************************************************************************
   -->
   <time start="20:02:59" end="20:04:53" cpu="106.37" system="7.41" real="113.88"/>
   <storage units="megabyte" memory="8001.84" sf="0.24" df="445.09" eaf="8722.38" ga="0.0"/>
  </jobstep><!--
 SETTING SCF            =       -57.43692981  AU
 SETTING _CC_NORM_MAX   =         2.00000000
  --><jobstep command="RCCSD(T)" commandset="CCSD">
   <!--


 PROGRAM * CCSD (Restricted open-shell coupled cluster)     Authors: C. Hampel, H.-J. Werner, 1991, M. Deegan, P.J. Knowles, 1992


 Convergence thresholds:  THRVAR = 1.00D-08  THRDEN = 1.00D-06

 CCSD(T)     terms to be evaluated (factor= 1.000)


 Number of closed-shell orbitals:   8 (   4   2   2   0 )
 Number of active  orbitals:        1 (   1   0   0   0 )
 Number of external orbitals:     442 ( 175 106 106  55 )

 Memory could be reduced to 357.68 Mwords without degradation in triples

 Number of N-1 electron functions:              17
 Number of N-2 electron functions:             136
 Number of singly external CSFs:              2432
 Number of doubly external CSFs:           5288016
 Total number of CSFs:                     5290448

 Molecular orbitals read from record     3202.2  Type=RHF/CANONICAL (state 1.1)

 ?Error: RHF not converged. This error exit can be avoided using the IGNORE_ERROR option on the ORBITAL directive
   --><error/><!--
  --></jobstep><!--
  -->
  <input>
  <!--
 --></job><!--
--></molpro>
