
 Primary working directories    : /global/cscratch1/sd/aannabe
 Secondary working directories  : /global/cscratch1/sd/aannabe
 Wavefunction directory         : /global/homes/a/aannabe/wfu/
 Main file repository           : /global/cscratch1/sd/aannabe/

 SHA1      : 19cd028119e0e09f93f0674bd8af7968d9b3eff6
 NAME      : 2015.1.36
 ARCHNAME  : linux/x86_64
 FC        : /opt/cray/pe/craype/2.5.14/bin/ftn
 BLASLIB   : -L/opt/intel/compilers_and_libraries_2018.1.163/linux/mkl/lib/intel64 -Wl,-_start-group -lmkl_intel_ilp64 -lmkl_intel_thread -lmkl_core -Wl,-_end-group -liomp5
 id        : lbl

 Nodes     nprocs
 nid01015    11
 Number of processes for MPI-2 version of Molpro:   nprocs(total)=   12   nprocs(compute)=   11   nprocs(helper)=    1

 Using customized tuning parameters: mindgm=7; mindgv=16; mindgc=1; mindgr=1; noblas=0; minvec=7
 default implementation of scratch files=sf  

 ***,molecular
 memory,1,g
 
 gthresh,twoint=1.e-15
 gthresh,oneint=1.e-15
 
 set,dkroll=1,dkho=99,dkhp=2
 
 do i=1,8
 z(i) = 1.4 + 0.1*(i-1)
 
 angstrom
 geometry={
 2
 Tb  0.0 0.0 0.0
 O   0.0 0.0 z(i)
 }
 
 basis={
 Including file /global/homes/a/aannabe/docs/Tb_project/ccECP/basis_sets/Tb_con-cc-pVTZ.basis
 Including file /global/homes/a/aannabe/docs/Tb_project/ccECP/basis_sets/O_con-cc-pwVTZ.basis
 }
 {rks,pbe0
  start, atden
  maxit,100
  shift,-0.5,-0.2
  wf,nelec=73,spin=7,sym=2
     occ,19,9,9,3
  closed,16,7,8,2
 }
 {rhf,maxdis=30,iptyp='DIIS',nitord=30,maxit=100; shift,-1.0,-0.5
  maxit,100
  shift,-0.5,-0.2
  wf,nelec=73,spin=7,sym=2
     occ,19,9,9,3
  closed,16,7,8,2
 }
 basis={
 Including file /global/homes/a/aannabe/docs/Tb_project/ccECP/basis_sets/Tb_aug-cc-pwCVTZ.basis
 Including file /global/homes/a/aannabe/docs/Tb_project/ccECP/basis_sets/O_aug-cc-pwCVTZ.basis
 }
 {rhf,maxdis=30,iptyp='DIIS',nitord=30,maxit=100; shift,-1.0,-0.5
  maxit,100
  shift,-0.5,-0.2
  wf,nelec=73,spin=7,sym=2
     occ,19,9,9,3
  closed,16,7,8,2
  print,orbitals=1
 }
 scf(i)=energy
 pop
 _CC_NORM_MAX=2.0
 {uccsd(t),shifts=0.2,shiftp=0.2,thrdis=1.0;diis,1,1,15,1;maxit,100;core,12,5,5,2;
 THRESH,ENERGY=5.e-6,COEFF=1e-3
 }
 ccsd(i)=energy
 enddo
 
 table,z,scf,ccsd
 save, 3.csv, new
 

 Variables initialized (889), CPU time= 0.01 sec
 Commands  initialized (702), CPU time= 0.01 sec, 572 directives.
 Default parameters read. Elapsed time= 0.23 sec

 Checking input...
 Passed
1


                                         ***  PROGRAM SYSTEM MOLPRO  ***
                                       Copyright, TTI GmbH Stuttgart, 2015
                                    Version 2015.1 linked Dec 29 2018 15:55:43


 **********************************************************************************************************************************
 LABEL *   molecular                                                                     
  64 bit mpp version                                                                     DATE: 16-Feb-22          TIME: 13:11:05  
 **********************************************************************************************************************************

 SHA1:             19cd028119e0e09f93f0674bd8af7968d9b3eff6
 **********************************************************************************************************************************

 THRESHOLDS:

 ZERO    =  1.00D-12  ONEINT  =  1.00D-12  TWOINT  =  1.00D-15  PREFAC  =  1.00D-14  LOCALI  =  1.00D-09  EORDER  =  1.00D-04
 ENERGY  =  0.00D+00  ETEST   =  0.00D+00  EDENS   =  0.00D+00  THRDEDEF=  1.00D-06  GRADIENT=  1.00D-02  STEP    =  1.00D-03
 ORBITAL =  1.00D-05  CIVEC   =  1.00D-05  COEFF   =  1.00D-04  PRINTCI =  5.00D-02  PUNCHCI =  9.90D+01  OPTGRAD =  3.00D-04
 OPTENERG=  1.00D-06  OPTSTEP =  3.00D-04  THRGRAD =  1.00D-10  COMPRESS=  1.00D-11  VARMIN  =  1.00D-07  VARMAX  =  1.00D-03
 THRDOUB =  0.00D+00  THRDIV  =  1.00D-05  THRRED  =  1.00D-07  THRPSP  =  1.00D+00  THRDC   =  1.00D-10  THRCS   =  1.00D-10
 THRNRM  =  1.00D-08  THREQ   =  0.00D+00  THRDE   =  1.00D+00  THRREF  =  1.00D-05  SPARFAC =  1.00D+00  THRDLP  =  1.00D-07
 THRDIA  =  1.00D-10  THRDLS  =  1.00D-07  THRGPS  =  0.00D+00  THRKEX  =  0.00D+00  THRDIS  =  2.00D-01  THRVAR  =  1.00D-10
 THRLOC  =  1.00D-06  THRGAP  =  1.00D-06  THRLOCT = -1.00D+00  THRGAPT = -1.00D+00  THRORB  =  1.00D-06  THRMLTP =  0.00D+00
 THRCPQCI=  1.00D-10  KEXTA   =  0.00D+00  THRCOARS=  0.00D+00  SYMTOL  =  1.00D-06  GRADTOL =  1.00D-06  THROVL  =  1.00D-08
 THRORTH =  1.00D-08  GRID    =  1.00D-06  GRIDMAX =  1.00D-03  DTMAX   =  0.00D+00  THROCCDE=  1.00D-01  THROCCDE=  1.00D-01



 THRESHOLDS:

 ZERO    =  1.00D-12  ONEINT  =  1.00D-15  TWOINT  =  1.00D-15  PREFAC  =  1.00D-14  LOCALI  =  1.00D-09  EORDER  =  1.00D-04
 ENERGY  =  0.00D+00  ETEST   =  0.00D+00  EDENS   =  0.00D+00  THRDEDEF=  1.00D-06  GRADIENT=  1.00D-02  STEP    =  1.00D-03
 ORBITAL =  1.00D-05  CIVEC   =  1.00D-05  COEFF   =  1.00D-04  PRINTCI =  5.00D-02  PUNCHCI =  9.90D+01  OPTGRAD =  3.00D-04
 OPTENERG=  1.00D-06  OPTSTEP =  3.00D-04  THRGRAD =  1.00D-10  COMPRESS=  1.00D-11  VARMIN  =  1.00D-07  VARMAX  =  1.00D-03
 THRDOUB =  0.00D+00  THRDIV  =  1.00D-05  THRRED  =  1.00D-07  THRPSP  =  1.00D+00  THRDC   =  1.00D-10  THRCS   =  1.00D-10
 THRNRM  =  1.00D-08  THREQ   =  0.00D+00  THRDE   =  1.00D+00  THRREF  =  1.00D-05  SPARFAC =  1.00D+00  THRDLP  =  1.00D-07
 THRDIA  =  1.00D-10  THRDLS  =  1.00D-07  THRGPS  =  0.00D+00  THRKEX  =  0.00D+00  THRDIS  =  2.00D-01  THRVAR  =  1.00D-10
 THRLOC  =  1.00D-06  THRGAP  =  1.00D-06  THRLOCT = -1.00D+00  THRGAPT = -1.00D+00  THRORB  =  1.00D-06  THRMLTP =  0.00D+00
 THRCPQCI=  1.00D-10  KEXTA   =  0.00D+00  THRCOARS=  0.00D+00  SYMTOL  =  1.00D-06  GRADTOL =  1.00D-06  THROVL  =  1.00D-08
 THRORTH =  1.00D-08  GRID    =  1.00D-06  GRIDMAX =  1.00D-03  DTMAX   =  0.00D+00  THROCCDE=  1.00D-01  THROCCDE=  1.00D-01


 SETTING DKROLL         =         1.00000000                                  
 SETTING DKHO           =        99.00000000                                  
 SETTING DKHP           =         2.00000000                                  

 DO I                   =         1.00000000   
 SETTING Z(1)           =         1.40000000                                  
 ZUNIT=ANG
 

Geometry recognized as XYZ


 Variable memory set to 1000000000 words,  buffer space   230000 words

 SETTING BASIS          =    USERDEF


 Recomputing integrals since basis changed


 Using spherical harmonics



 PROGRAM * SEWARD (Integral evaluation for generally contracted gaussian basis sets)     Author: Roland Lindh, 1990

 Geometry written to block  1 of record 700


 Point group  C2v 



 ATOMIC COORDINATES

 NR  ATOM    CHARGE       X              Y              Z

   1  TB     65.00    0.000000000    0.000000000    0.000000000
   2  O       8.00    0.000000000    0.000000000    2.645616574

 Bond lengths in Bohr (Angstrom)

 1-2  2.645616574
     ( 1.400000000)

 NUCLEAR CHARGE:                   73
 NUMBER OF PRIMITIVE AOS:         475
 NUMBER OF SYMMETRY AOS:          380
 NUMBER OF CONTRACTIONS:          229   (  89A1  +  55B1  +  55B2  +  30A2  )
 NUMBER OF CORE ORBITALS:          24   (  12A1  +   5B1  +   5B2  +   2A2  )
 NUMBER OF VALENCE ORBITALS:       21   (   9A1  +   5B1  +   5B2  +   2A2  )


 NUCLEAR REPULSION ENERGY  196.55153548

 One-electron integrals computed with SEWARD

 99nd-order Douglas-Kroll-Hess method activated. Exponential DKH parametrization is used.

 Computing Douglas-Kroll / X2C integrals

 AO integral compression algorithm  1   Integral accuracy      1.0D-15

     506.724 MB (compressed) written to integral file ( 65.0%)

     Node minimum: 13.107 MB, node maximum: 67.633 MB


 NUMBER OF SORTED TWO-ELECTRON INTEGRALS:    8064263.     BUFFER LENGTH:  32768
 NUMBER OF SEGMENTS:   1  SEGMENT LENGTH:    8064263      RECORD LENGTH: 524288

 Memory used in sort:       8.62 MW

 SORT1 READ    97334762. AND WROTE     4441059. INTEGRALS IN     13 RECORDS. CPU TIME:     1.65 SEC, REAL TIME:     1.81 SEC
 SORT2 READ    50372569. AND WROTE    88738325. INTEGRALS IN   1991 RECORDS. CPU TIME:     0.27 SEC, REAL TIME:     0.40 SEC

 Node minimum:     8059461.  Node maximum:     8083126. integrals

 OPERATOR DM      FOR CENTER  0  COORDINATES:    0.000000    0.000000    0.000000

 EXTRA SYMMETRY OF AOS IN SYMMETRY 1:   1 1 1 1 1 1 1 1 1 1   1 1 1 1 1 1 1 1 1 1   1 1 1 1 2 1 2 1 2 1   2 1 2 1 2 1 2 1 2 1
                                        2 1 2 1 2 1 2 1 2 1   2 1 2 1 2 1 3 2 1 3   2 1 3 2 1 3 2 2 3 1   1 1 1 1 1 1 1 1 1 1
                                        1 1 2 1 2 1 2 1 2
 EXTRA SYMMETRY OF AOS IN SYMMETRY 2:   1 1 1 1 1 1 1 1 1 1   1 1 1 1 1 1 1 1 1 1   1 2 1 2 1 2 1 2 1 2   1 2 1 2 1 2 1 2 1 2
                                        1 2 1 2 3 1 1 1 1 1   1 1 1 1 2
 EXTRA SYMMETRY OF AOS IN SYMMETRY 3:   1 1 1 1 1 1 1 1 1 1   1 1 1 1 1 1 1 1 1 1   1 2 1 2 1 2 1 2 1 2   1 2 1 2 1 2 1 2 1 2
                                        1 2 1 2 3 1 1 1 1 1   1 1 1 1 2
 EXTRA SYMMETRY OF AOS IN SYMMETRY 4:   1 1 1 1 1 1 1 1 1 1   1 1 1 1 1 1 1 2 1 2   1 2 1 2 2 1 1 1 1 1

 Eigenvalues of metric

         1 0.165E-03 0.344E-03 0.559E-03 0.141E-02 0.242E-02 0.251E-02 0.410E-02 0.437E-02
         2 0.489E-03 0.165E-02 0.423E-02 0.872E-02 0.147E-01 0.155E-01 0.193E-01 0.211E-01
         3 0.489E-03 0.165E-02 0.423E-02 0.872E-02 0.147E-01 0.155E-01 0.193E-01 0.211E-01
         4 0.437E-02 0.192E-01 0.393E-01 0.407E-01 0.832E-01 0.213E+00 0.332E+00 0.348E+00


 **********************************************************************************************************************************
 DATASETS  * FILE   NREC   LENGTH (MB)   RECORD NAMES
              1      22       21.51       500      610      700      900      950      970     1000      129      960     1700   
                                          VAR    BASINP    GEOM    SYMINP    ZMAT    AOBASIS   BASIS     P2S    ABASIS    OPER   
                                         1101     1401     1411     1412     1650     1100     1400     1410     1200     1210   
                                          SR      EKINR    POTR     PVPR    MOLCAS      S      EKIN      POT      H0       H01  
                                         1080     1600   
                                         AOSYM     SMH  

 PROGRAMS   *        TOTAL       INT
 CPU TIMES  *       102.35    101.83
 REAL TIME  *       104.00 SEC
 DISK USED  *         1.15 GB      
 GA USED    *         0.00 MB       (max)       0.00 MB       (current)
 **********************************************************************************************************************************

 Density functional group PBE0=PBEX+PBEC
 Functional: PBEX(Automatically generated (new) PBEX)                          Gradient terms: 1
 Functional: PBEC(Automatically generated (new) PBEC)                          Gradient terms: 1
 Use grid at  1800.2
 

 Exact exchange will be calculated, factor:  0.2500

 Functional: PBEX                      Factor:  0.7500
 Functional: PBEC                      Factor:  1.0000
 
 Generated new metagrid on record  1800.2 with target accuracy 1.0D-06 and 6073 points in CPU time    0.1
 Computed new grid on record 1800.1 in CPU time    0.1
  195261 words reserved for DFT integration

 PROGRAM * RKS-SCF (Restricted open shell Kohn-Sham)     Authors: W. Meyer, H.-J. Werner, P.J. Knowles, 1993

 NUMBER OF ELECTRONS:      40+   33-    SPACE SYMMETRY=2    SPIN SYMMETRY: Octet   
 CONVERGENCE THRESHOLDS:    1.00E-05 (Density)    1.46E-06 (Energy)
 MAX. NUMBER OF ITERATIONS:      100
 INTERPOLATION TYPE:            DIIS
 INTERPOLATION STEPS:              2 (START)      1 (STEP)
 LEVEL SHIFTS:                 -0.50 (CLOSED) -0.20 (OPEN) 

 Number of closed-shell orbitals:   33 (  16   7   8   2 )
 Number of open-shell orbitals:      7 (   3   2   1   1 )


 Use fine grid record 1800.2 for energy threshold  1.0D-06
 Orbital guess generated from atomic densities. Full valence occupancy:   19   9   9   3

 Molecular orbital dump at record        2100.2

 ITERATION    DDIFF          GRAD             ENERGY        2-EL.EN.            DIPOLE MOMENTS         DIIS   ORB.
    1      0.000D+00      0.000D+00    -11783.75417635   9417.451846    0.00000    0.00000   -1.15435    0    start
    2      0.000D+00      0.101D-01    -11783.68784998   9569.772231    0.00000    0.00000    1.14791    1    diag,B
    3      0.364D-01      0.206D-01    -11784.00342101   9488.006582    0.00000    0.00000    0.32913    2    diag,B
    4      0.490D-02      0.365D-02    -11784.02847707   9479.654933    0.00000    0.00000    0.06942    3    diag,B
    5      0.381D-02      0.101D-02    -11784.03675799   9476.275441    0.00000    0.00000    0.03674    4    diag,B
    6      0.365D-02      0.414D-03    -11784.03941391   9476.372270    0.00000    0.00000   -0.03556    5    diag,B
    7      0.237D-02      0.316D-03    -11784.04033056   9476.043831    0.00000    0.00000   -0.03371    6    fixocc
    8      0.168D-02      0.206D-03    -11784.04053495   9476.785031    0.00000    0.00000   -0.04706    7    diag,B
    9      0.801D-03      0.508D-04    -11784.04058030   9476.902504    0.00000    0.00000   -0.05261    8    diag,B
   10      0.402D-03      0.225D-04    -11784.04058979   9476.819657    0.00000    0.00000   -0.05513    9    orth
   11      0.160D-03      0.118D-04    -11784.04059357   9476.826335    0.00000    0.00000   -0.05740    9    diag,B
   12      0.853D-04      0.796D-05    -11784.04059579   9476.822843    0.00000    0.00000   -0.05787    9    diag,B
   13      0.259D-04      0.763D-05    -11784.04059747   9476.823172    0.00000    0.00000   -0.05815    9    diag,B
   14      0.164D-04      0.765D-05    -11784.04059474   9476.822533    0.00000    0.00000   -0.05791    9    diag,B
   15      0.257D-04      0.755D-05    -11784.04056440   9476.818472    0.00000    0.00000   -0.05602    9    diag,B
   16      0.322D-03      0.852D-05    -11784.04056625   9476.816991    0.00000    0.00000   -0.05604    9    diag,B
   17      0.230D-04      0.883D-05    -11784.04054052   9476.788845    0.00000    0.00000   -0.05577    9    diag,B
   18      0.401D-03      0.153D-04    -11784.04053563   9476.791832    0.00000    0.00000   -0.05639    9    diag,B
   19      0.133D-03      0.130D-04    -11784.04053406   9476.807737    0.00000    0.00000   -0.05848    9    diag,B
   20      0.660D-04      0.545D-05    -11784.04053150   9476.785421    0.00000    0.00000   -0.05730    9    orth
   21      0.181D-03      0.180D-04    -11784.04053162   9476.793682    0.00000    0.00000   -0.05843    9    diag,B
   22      0.220D-04      0.818D-05    -11784.04053169   9476.803048    0.00000    0.00000   -0.05941    9    diag,B
   23      0.166D-04      0.289D-05    -11784.04053167   9476.798934    0.00000    0.00000   -0.05925    9    diag,B
   24      0.208D-04      0.903D-06    -11784.04053167   9476.800006    0.00000    0.00000   -0.05934    9    diag,B
   25      0.277D-05      0.176D-06    -11784.04053167   9476.800259    0.00000    0.00000   -0.05935    0    orth

 Final alpha occupancy:  19   9   9   3
 Final beta  occupancy:  16   7   8   2

 !RKS STATE 1.2 Energy               -11784.0405316702    
 Nuclear energy                       196.55153548
 One-electron energy               -16516.39076630
 Two-electron energy                 4738.40012930
 Density functional                  -202.60143015     PBEX=-264.82135444 PBEC=  -3.98541432
 Virial quotient                       -0.77825054
 !RKS STATE 1.2 Dipole moment           0.00000000     0.00000000    -0.05934800
 Dipole moment /Debye                   0.00000000     0.00000000    -0.15083770

 Orbital energies:

         1.1          2.1          3.1          4.1          5.1          6.1          7.1          8.1          9.1         10.1
  -1905.787212  -317.133286  -282.260294   -70.927548   -60.099117   -45.682873   -45.650538   -19.218448   -14.361129   -10.791848

        11.1         12.1         13.1         14.1         15.1         16.1         17.1         18.1         19.1         20.1
     -5.724103    -5.669910    -1.927415    -1.287688    -0.726751    -0.354565    -0.379190    -0.319329    -0.135293    -0.010017

        21.1
      0.007431

         1.2          2.2          3.2          4.2          5.2          6.2          7.2          8.2          9.2         10.2
   -282.251350   -60.054048   -45.676739   -10.720676    -5.711639    -0.994732    -0.444800    -0.366317    -0.341150    -0.027049

        11.2
      0.060745

         1.3          2.3          3.3          4.3          5.3          6.3          7.3          8.3          9.3         10.3
   -282.252086   -60.057937   -45.678454   -10.726202    -5.714102    -0.996615    -0.445319    -0.242793    -0.369612    -0.027204

        11.3
      0.060622

         1.4          2.4          3.4          4.4          5.4
    -45.649935    -5.668748    -0.378221    -0.009727     0.154158

 HOMO     19.1    -0.135293 =      -3.6815eV
 LUMO     10.3    -0.027204 =      -0.7403eV
 LUMO-HOMO         0.108089 =       2.9413eV


 **********************************************************************************************************************************
 DATASETS  * FILE   NREC   LENGTH (MB)   RECORD NAMES
              1      23       21.51       500      610      700      900      950      970     1000      129      960     1700   
                                          VAR    BASINP    GEOM    SYMINP    ZMAT    AOBASIS   BASIS     P2S    ABASIS    OPER   
                                         1101     1401     1411     1412     1650     1100     1400     1410     1200     1210   
                                          SR      EKINR    POTR     PVPR    MOLCAS      S      EKIN      POT      H0       H01  
                                         1080     1600     1800   
                                         AOSYM     SMH     GRID   

              2       5        3.25       700     1000      520     1800     2100   
                                         GEOM     BASIS   MCVARS    GRID      RKS  

 PROGRAMS   *        TOTAL       RKS       INT
 CPU TIMES  *       104.04      1.69    101.83
 REAL TIME  *       106.53 SEC
 DISK USED  *         1.44 GB      
 SF USED    *         0.06 MB      
 GA USED    *         0.26 MB       (max)       0.26 MB       (current)
 **********************************************************************************************************************************


 PROGRAM * RHF-SCF (OPEN SHELL)       Authors: W. Meyer, H.-J. Werner


 NUMBER OF ELECTRONS:      40+   33-    SPACE SYMMETRY=2    SPIN SYMMETRY: Octet   
 CONVERGENCE THRESHOLDS:    1.00E-05 (Density)    1.46E-07 (Energy)
 MAX. NUMBER OF ITERATIONS:      100
 INTERPOLATION TYPE:            DIIS
 INTERPOLATION STEPS:              2 (START)      1 (STEP)
 LEVEL SHIFTS:                 -0.50 (CLOSED) -0.20 (OPEN) 

 Number of closed-shell orbitals:   33 (  16   7   8   2 )
 Number of open-shell orbitals:      7 (   3   2   1   1 )


 Molecular orbitals read from record     2100.2  Type=RKS/CANONICAL (state 1.2)

 Molecular orbital dump at record        2101.2

 ITERATION    DDIFF          GRAD             ENERGY        2-EL.EN.            DIPOLE MOMENTS         DIIS   ORB.
    1      0.000D+00      0.000D+00    -11779.64819106   9080.382080    0.00000    0.00000   -0.05935    0    start
    2      0.000D+00      0.149D-01    -11779.70226428   9081.734219    0.00000    0.00000   -0.21057    1    diag,B
    3      0.348D-02      0.148D-02    -11779.71169263   9079.759017    0.00000    0.00000   -0.15259    2    diag,B
    4      0.132D-02      0.624D-03    -11779.71509973   9080.828467    0.00000    0.00000   -0.10845    3    diag,B
    5      0.876D-03      0.438D-03    -11779.71619684   9079.448734    0.00000    0.00000   -0.05904    4    diag,B
    6      0.533D-03      0.219D-03    -11779.71674114   9079.408269    0.00000    0.00000   -0.00227    5    diag,B
    7      0.548D-03      0.104D-03    -11779.71686885   9079.232596    0.00000    0.00000    0.02836    6    diag,B
    8      0.338D-03      0.490D-04    -11779.71689667   9079.231257    0.00000    0.00000    0.04944    7    orth
    9      0.202D-03      0.230D-04    -11779.71690431   9079.182861    0.00000    0.00000    0.05843    8    diag,B
   10      0.101D-03      0.166D-04    -11779.71691032   9079.161111    0.00000    0.00000    0.06491    9    diag,B
   11      0.753D-04      0.147D-04    -11779.71691602   9079.158790    0.00000    0.00000    0.06932   10    diag,B
   12      0.420D-04      0.139D-04    -11779.71692417   9079.144951    0.00000    0.00000    0.07342   11    diag,B
   13      0.450D-04      0.132D-04    -11779.71694032   9079.140731    0.00000    0.00000    0.07857   12    diag,B
   14      0.877D-04      0.119D-04    -11779.71697392   9079.137678    0.00000    0.00000    0.08286   13    diag,B
   15      0.231D-03      0.885D-05    -11779.71698926   9079.143441    0.00000    0.00000    0.08112   14    diag,B
   16      0.161D-03      0.585D-05    -11779.71699821   9079.151300    0.00000    0.00000    0.07792   15    diag,B
   17      0.197D-03      0.416D-05    -11779.71699882   9079.157546    0.00000    0.00000    0.07495   16    diag,B
   18      0.430D-04      0.159D-05    -11779.71699889   9079.156497    0.00000    0.00000    0.07418   17    orth
   19      0.176D-04      0.674D-06    -11779.71699890   9079.156748    0.00000    0.00000    0.07365   18    diag,B
   20      0.354D-05      0.287D-06    -11779.71699890   9079.155222    0.00000    0.00000    0.07359    0    orth

 Final alpha occupancy:  19   9   9   3
 Final beta  occupancy:  16   7   8   2

 !RHF STATE 1.2 Energy               -11779.7169988999    
 Nuclear energy                       196.55153548
 One-electron energy               -16515.84614552
 Two-electron energy                 4539.57761114
 Virial quotient                       -0.77778767
 !RHF STATE 1.2 Dipole moment           0.00000000     0.00000000     0.07358606
 Dipole moment /Debye                   0.00000000     0.00000000     0.18702485

 Orbital energies:

         1.1          2.1          3.1          4.1          5.1          6.1          7.1          8.1          9.1         10.1
  -1920.535442  -322.979052  -287.243318   -73.681963   -62.423385   -47.441925   -47.412556   -20.558296   -15.616782   -11.833232

        11.1         12.1         13.1         14.1         15.1         16.1         17.1         18.1         19.1         20.1
     -6.391556    -6.356271    -2.281206    -1.597077    -0.945932    -0.466608    -0.749553    -0.707447    -0.178498     0.042585

        21.1
      0.059627

         1.2          2.2          3.2          4.2          5.2          6.2          7.2          8.2          9.2         10.2
   -287.232834   -62.377538   -47.431558   -11.766225    -6.366720    -1.207130    -0.595471    -0.747978    -0.698152     0.016556

        11.2
      0.116584

         1.3          2.3          3.3          4.3          5.3          6.3          7.3          8.3          9.3         10.3
   -287.232835   -62.377540   -47.431559   -11.766226    -6.366721    -1.207131    -0.595472    -0.567110    -0.747977     0.016557

        11.3
      0.116585

         1.4          2.4          3.4          4.4          5.4
    -47.412556    -6.356272    -0.749553     0.091570     0.255476

 HOMO     19.1    -0.178498 =      -4.8572eV
 LUMO     10.2     0.016556 =       0.4505eV
 LUMO-HOMO         0.195054 =       5.3077eV


 **********************************************************************************************************************************
 DATASETS  * FILE   NREC   LENGTH (MB)   RECORD NAMES
              1      23       21.51       500      610      700      900      950      970     1000      129      960     1700   
                                          VAR    BASINP    GEOM    SYMINP    ZMAT    AOBASIS   BASIS     P2S    ABASIS    OPER   
                                         1101     1401     1411     1412     1650     1100     1400     1410     1200     1210   
                                          SR      EKINR    POTR     PVPR    MOLCAS      S      EKIN      POT      H0       H01  
                                         1080     1600     1800   
                                         AOSYM     SMH     GRID   

              2       6        6.34       700     1000      520     1800     2100     2101   
                                         GEOM     BASIS   MCVARS    GRID      RKS      RHF  

 PROGRAMS   *        TOTAL       RHF       RKS       INT
 CPU TIMES  *       105.11      1.07      1.69    101.83
 REAL TIME  *       107.89 SEC
 DISK USED  *         1.52 GB      
 SF USED    *         0.06 MB      
 GA USED    *         0.26 MB       (max)       0.26 MB       (current)
 **********************************************************************************************************************************
 SETTING BASIS          =    USERDEF


 Recomputing integrals since basis changed


 Using spherical harmonics



 PROGRAM * SEWARD (Integral evaluation for generally contracted gaussian basis sets)     Author: Roland Lindh, 1990

 Geometry written to block  1 of record 700


 Point group  C2v 



 ATOMIC COORDINATES

 NR  ATOM    CHARGE       X              Y              Z

   1  TB     65.00    0.000000000    0.000000000    0.000000000
   2  O       8.00    0.000000000    0.000000000    2.645616574

 Bond lengths in Bohr (Angstrom)

 1-2  2.645616574
     ( 1.400000000)

 NUCLEAR CHARGE:                   73
 NUMBER OF PRIMITIVE AOS:         551
 NUMBER OF SYMMETRY AOS:          432
 NUMBER OF CONTRACTIONS:          432   ( 175A1  + 103B1  + 103B2  +  51A2  )
 NUMBER OF CORE ORBITALS:          24   (  12A1  +   5B1  +   5B2  +   2A2  )
 NUMBER OF VALENCE ORBITALS:       21   (   9A1  +   5B1  +   5B2  +   2A2  )


 NUCLEAR REPULSION ENERGY  196.55153548

 One-electron integrals computed with SEWARD

 99nd-order Douglas-Kroll-Hess method activated. Exponential DKH parametrization is used.

 Computing Douglas-Kroll / X2C integrals

 AO integral compression algorithm  1   Integral accuracy      1.0D-15

     3750.756 MB (compressed) written to integral file ( 39.3%)

     Node minimum: 256.115 MB, node maximum: 448.266 MB


 NUMBER OF SORTED TWO-ELECTRON INTEGRALS:  101434680.     BUFFER LENGTH:  32768
 NUMBER OF SEGMENTS:   4  SEGMENT LENGTH:   31997262      RECORD LENGTH: 524288

 Memory used in sort:      32.55 MW

 SORT1 READ  1192164651. AND WROTE    41449509. INTEGRALS IN    121 RECORDS. CPU TIME:    19.98 SEC, REAL TIME:    27.87 SEC
 SORT2 READ   451808507. AND WROTE  1117043712. INTEGRALS IN  11352 RECORDS. CPU TIME:     1.45 SEC, REAL TIME:     2.48 SEC

 Node minimum:   101434680.  Node maximum:   101618559. integrals

 OPERATOR DM      FOR CENTER  0  COORDINATES:    0.000000    0.000000    0.000000

 EXTRA SYMMETRY OF AOS IN SYMMETRY 1:   1 1 1 1 1 1 1 1 1 1   1 1 1 1 1 1 1 1 1 1   1 1 1 1 1 1 1 1 1 1   1 1 1 1 1 1 1 1 1 1
                                        1 1 1 1 1 1 1 1 1 1   1 1 1 1 1 1 1 1 1 1   1 1 1 1 1 1 1 1 1 1   1 1 1 1 1 1 1 1 1 1
                                        1 1 1 1 1 1 1 1 1 1   1 1 1 1 1 1 1 1 1 1   1 1 1 1 1 1 1 1 1 1   1 1 1 1 1 1 1 1 1 1
                                        1 1 2 1 1 2 1 1 2 1   1 2 1 1 2 1 1 2 1 1   2 1 1 1 1 1 1 1 1 1   1 1 1 1 1 1 1 1 1 1
                                        1 1 1 1 1 1 1 1 1 1   1 1 1 1 1
 EXTRA SYMMETRY OF AOS IN SYMMETRY 2:   1 1 1 1 1 1 1 1 1 1   1 1 1 1 1 1 1 1 1 1   1 1 1 1 1 1 1 1 1 1   1 1 1 1 1 1 1 1 1 1
                                        1 1 1 1 2 1 2 1 2 1   2 1 2 1 2 1 2 1 2 1   2 1 2 1 2 1 2 1 2 1   2 1 2 1 2 1 2 1 2 1
                                        2 1 2 3 1 2 3 1 1 1   1 1 1 1 1 1 1 1 1 1   2 1 2
 EXTRA SYMMETRY OF AOS IN SYMMETRY 3:   1 1 1 1 1 1 1 1 1 1   1 1 1 1 1 1 1 1 1 1   1 1 1 1 1 1 1 1 1 1   1 1 1 1 1 1 1 1 1 1
                                        1 1 1 1 2 1 2 1 2 1   2 1 2 1 2 1 2 1 2 1   2 1 2 1 2 1 2 1 2 1   2 1 2 1 2 1 2 1 2 1
                                        2 1 2 3 1 2 3 1 1 1   1 1 1 1 1 1 1 1 1 1   2 1 2
 EXTRA SYMMETRY OF AOS IN SYMMETRY 4:   1 1 1 1 1 1 1 1 1 1   1 1 1 1 1 1 1 1 1 1   1 1 1 1 1 1 1 1 1 1   1 1 2 1 2 1 2 1 2 1
                                        2 2 1 2 1 1 1 1 1 1   1

 Eigenvalues of metric

         1 0.147E-07 0.140E-05 0.142E-04 0.255E-04 0.437E-04 0.669E-04 0.726E-04 0.838E-04
         2 0.146E-04 0.875E-04 0.893E-04 0.402E-03 0.647E-03 0.837E-03 0.123E-02 0.125E-02
         3 0.146E-04 0.875E-04 0.893E-04 0.402E-03 0.647E-03 0.837E-03 0.123E-02 0.125E-02
         4 0.889E-04 0.124E-02 0.186E-02 0.686E-02 0.171E-01 0.179E-01 0.327E-01 0.389E-01


 **********************************************************************************************************************************
 DATASETS  * FILE   NREC   LENGTH (MB)   RECORD NAMES
              1      22       23.61       500      610      700      900      950      970     1001      129      960     1700   
                                          VAR    BASINP    GEOM    SYMINP    ZMAT    AOBASIS   BASIS     P2S    ABASIS    OPER   
                                         1101     1401     1411     1412     1650     1100     1400     1410     1200     1210   
                                          SR      EKINR    POTR     PVPR    MOLCAS      S      EKIN      POT      H0       H01  
                                         1080     1600   
                                         AOSYM     SMH  

              2       7        6.60       700     1000      520     1800     2100     2101     1001   
                                         GEOM     BASIS   MCVARS    GRID      RKS      RHF     BASIS   

 PROGRAMS   *        TOTAL       INT       RHF       RKS       INT
 CPU TIMES  *       319.24    214.13      1.07      1.69    101.83
 REAL TIME  *       331.87 SEC
 DISK USED  *         9.48 GB      
 SF USED    *         0.06 MB      
 GA USED    *         0.26 MB       (max)       0.00 MB       (current)
 **********************************************************************************************************************************


 PROGRAM * RHF-SCF (OPEN SHELL)       Authors: W. Meyer, H.-J. Werner


 NUMBER OF ELECTRONS:      40+   33-    SPACE SYMMETRY=2    SPIN SYMMETRY: Octet   
 CONVERGENCE THRESHOLDS:    1.00E-05 (Density)    1.46E-07 (Energy)
 MAX. NUMBER OF ITERATIONS:      100
 INTERPOLATION TYPE:            DIIS
 INTERPOLATION STEPS:              2 (START)      1 (STEP)
 LEVEL SHIFTS:                 -0.50 (CLOSED) -0.20 (OPEN) 

 Number of closed-shell orbitals:   33 (  16   7   8   2 )
 Number of open-shell orbitals:      7 (   3   2   1   1 )


 Molecular orbitals read from record     2101.2  Type=RHF/CANONICAL (state 1.2)
 
 Present basis size:     175 103 103  51
 Previous basis size:     89  55  55  30
 Previous occupation:     19   9   9   3
 Previous closed-shells:  16   7   8   2
 Previous core-orbitals:  12   5   5   2
 Present occupation:      19   9   9   3
 Present closed-shells:   16   7   8   2
 Present core-orbitals:   12   5   5   2
 Wavefunction symmetry:    2   Octet   

 Orbital overlap <old|new>:  < 1.1| 1.1> = 1.000000   < 2.1| 2.1> = 1.000000   < 3.1| 3.1> = 1.000000   < 4.1| 4.1> = 1.000000
                             < 5.1| 5.1> = 1.000000   < 6.1| 6.1> = 1.000000   < 7.1| 7.1> = 1.000000   < 8.1| 8.1> = 1.000000
                             < 9.1| 9.1> = 1.000000   <10.1|10.1> = 1.000000   <11.1|11.1> = 1.000000   <12.1|12.1> = 1.000000
                             < 1.2| 1.2> = 1.000000   < 2.2| 2.2> = 1.000000   < 3.2| 3.2> = 1.000000   < 4.2| 4.2> = 1.000000
                             < 5.2| 5.2> = 1.000000   < 1.3| 1.3> = 1.000000   < 2.3| 2.3> = 1.000000   < 3.3| 3.3> = 1.000000
                             < 4.3| 4.3> = 1.000000   < 5.3| 5.3> = 1.000000   < 1.4| 1.4> = 1.000000   < 2.4| 2.4> = 1.000000
                             <13.1|13.1> = 1.000000   <14.1|14.1> = 1.000000   <15.1|15.1> = 1.000000   <16.1|16.1> = 1.000000
                             < 6.2| 6.2> = 1.000000   < 7.2| 7.2> = 1.000000   < 6.3| 6.3> = 1.000000   < 7.3| 7.3> = 1.000000
                             < 8.3| 8.3> = 1.000000   <17.1|17.1> = 1.000000   <18.1|18.1> = 1.000000   <19.1|19.1> = 1.000000
                             < 8.2| 8.2> = 1.000000   < 9.2| 9.2> = 1.000000   < 9.3| 9.3> = 1.000000   < 3.4| 3.4> = 1.000000

 Molecular orbital dump at record        2102.2

 ITERATION    DDIFF          GRAD             ENERGY        2-EL.EN.            DIPOLE MOMENTS         DIIS   ORB.
    1      0.000D+00      0.000D+00    -11779.71701171   9079.155222    0.00000    0.00000    0.07359    0    start
    2      0.000D+00      0.153D+00    -11779.72211334   9079.152231    0.00000    0.00000    0.07259    1    diag,B
    3      0.595D-02      0.145D-03    -11779.72217816   9079.136459    0.00000    0.00000    0.07309    2    diag,B
    4      0.126D-02      0.342D-04    -11779.72218759   9079.145922    0.00000    0.00000    0.07191    3    diag,B
    5      0.490D-03      0.107D-04    -11779.72218888   9079.133340    0.00000    0.00000    0.07188    4    diag,B
    6      0.160D-03      0.443D-05    -11779.72218905   9079.141940    0.00000    0.00000    0.07130    5    diag,B
    7      0.383D-04      0.167D-05    -11779.72218910   9079.136298    0.00000    0.00000    0.07092    6    diag,B
    8      0.186D-04      0.780D-06    -11779.72218911   9079.139100    0.00000    0.00000    0.07066    7    orth
    9      0.612D-05      0.362D-06    -11779.72218911   9079.135798    0.00000    0.00000    0.07047    0    orth

 Final alpha occupancy:  19   9   9   3
 Final beta  occupancy:  16   7   8   2

 !RHF STATE 1.2 Energy               -11779.7221891103    
 Nuclear energy                       196.55153548
 One-electron energy               -16515.84162355
 Two-electron energy                 4539.56789895
 Virial quotient                       -0.77773935
 !RHF STATE 1.2 Dipole moment           0.00000000     0.00000000     0.07047468
 Dipole moment /Debye                   0.00000000     0.00000000     0.17911703

 ELECTRON ORBITALS
 =================


   Orb  Occ    Energy  Couls-En    Coefficients

                                   1 1s      1 1s      1 1s      1 1s      1 1s      1 1s      1 1s      1 1s      1 1s      1 1s   
                                   1 1s      1 1s      1 1s      1 1s      1 1s      1 1s      1 1s      1 1s      1 1s      1 1s   
                                   1 1s      1 1s      1 1s      1 1s      1 1s      1 1s      1 1s      1 1s      1 1s      1 1s   
                                   1 1s      1 1s      1 1s      1 2pz     1 2pz     1 2pz     1 2pz     1 2pz     1 2pz     1 2pz  
                                   1 2pz     1 2pz     1 2pz     1 2pz     1 2pz     1 2pz     1 2pz     1 2pz     1 2pz     1 2pz  
                                   1 2pz     1 2pz     1 2pz     1 2pz     1 2pz     1 2pz     1 2pz     1 2pz     1 2pz     1 3d0  
                                   1 3d2+    1 3d0     1 3d2+    1 3d0     1 3d2+    1 3d0     1 3d2+    1 3d0     1 3d2+    1 3d0  
                                   1 3d2+    1 3d0     1 3d2+    1 3d0     1 3d2+    1 3d0     1 3d2+    1 3d0     1 3d2+    1 3d0  
                                   1 3d2+    1 3d0     1 3d2+    1 3d0     1 3d2+    1 3d0     1 3d2+    1 3d0     1 3d2+    1 3d0  
                                   1 3d2+    1 3d0     1 3d2+    1 4f0     1 4f2+    1 4f0     1 4f2+    1 4f0     1 4f2+    1 4f0  
                                   1 4f2+    1 4f0     1 4f2+    1 4f0     1 4f2+    1 4f0     1 4f2+    1 4f0     1 4f2+    1 4f0  
                                   1 4f2+    1 4f0     1 4f2+    1 4f0     1 4f2+    1 4f0     1 4f2+    1 4f0     1 4f2+    1 4f0  
                                   1 4f2+    1 5g0     1 5g4+    1 5g2+    1 5g0     1 5g4+    1 5g2+    1 5g0     1 5g4+    1 5g2+ 
                                   1 5g0     1 5g4+    1 5g2+    1 5g0     1 5g4+    1 5g2+    1 6h2+    1 6h4+    1 6h0     1 6h2+ 
                                   1 6h4+    1 6h0     2 1s      2 1s      2 1s      2 1s      2 1s      2 1s      2 1s      2 1s   
                                   2 1s      2 1s      2 1s      2 1s      2 1s      2 2pz     2 2pz     2 2pz     2 2pz     2 2pz  
                                   2 2pz     2 2pz     2 2pz     2 3d0     2 3d2+    2 3d0     2 3d2+    2 3d0     2 3d2+    2 3d0  
                                   2 3d2+    2 4f0     2 4f2+    2 4f0     2 4f2+ 

   1.1   2 -1920.5404-4170.2080  0.000372  0.000370  0.001056  0.001565  0.003155  0.005254  0.009597  0.016539  0.029434  0.051305
                                 0.089392  0.148555  0.224678  0.275560  0.230697  0.098377  0.013282  0.000370 -0.000021 -0.000012
                                -0.000145  0.000253 -0.000328  0.000202 -0.000018  0.000004 -0.000001  0.000000 -0.000000 -0.000000
                                -0.000000  0.000000 -0.000000  0.000000  0.000000  0.000000  0.000000  0.000000  0.000000  0.000000
                                 0.000000  0.000000  0.000000  0.000001  0.000000  0.000000  0.000000  0.000000 -0.000000  0.000000
                                -0.000000  0.000000 -0.000000  0.000000 -0.000000 -0.000000 -0.000000  0.000000 -0.000000  0.000000
                                -0.000000  0.000000 -0.000000 -0.000000 -0.000000  0.000000 -0.000000  0.000000 -0.000000  0.000000
                                -0.000000  0.000000  0.000000 -0.000000  0.000000  0.000000  0.000000 -0.000000 -0.000000  0.000000
                                 0.000000 -0.000000  0.000000  0.000000  0.000000  0.000000  0.000000 -0.000000  0.000000 -0.000000
                                 0.000000  0.000000  0.000000  0.000000 -0.000000  0.000000  0.000000  0.000000 -0.000000 -0.000000
                                 0.000000 -0.000000 -0.000000  0.000000  0.000000 -0.000000 -0.000000  0.000000  0.000000 -0.000000
                                -0.000000  0.000000  0.000000  0.000000 -0.000000 -0.000000  0.000000 -0.000000 -0.000000  0.000000
                                -0.000000  0.000000 -0.000000 -0.000000 -0.000000  0.000000  0.000000  0.000000 -0.000000 -0.000000
                                -0.000000  0.000000  0.000000 -0.000000 -0.000000 -0.000000 -0.000000 -0.000000 -0.000000 -0.000000
                                 0.000000  0.000000 -0.000000  0.000000 -0.000000  0.000000 -0.000000  0.000000  0.000000  0.000000
                                -0.000000  0.000000  0.000000 -0.000000 -0.000000 -0.000000 -0.000000  0.000000  0.000000 -0.000000
                                -0.000000  0.000000  0.000000 -0.000000 -0.000000 -0.000000  0.000000 -0.000000  0.000000  0.000000
                                 0.000000  0.000000 -0.000000  0.000000 -0.000000

   2.1   2  -322.9798 -893.3923 -0.000135 -0.000135 -0.000385 -0.000572 -0.001156 -0.001934 -0.003555 -0.006188 -0.011177 -0.019934
                                -0.036031 -0.063532 -0.106182 -0.152551 -0.153361 -0.006820  0.318526  0.500514  0.283708  0.044913
                                -0.001017  0.000293  0.002288 -0.001957  0.000127 -0.000074  0.000019 -0.000003  0.000003  0.000003
                                 0.000000 -0.000000  0.000000  0.000000  0.000000  0.000000  0.000000  0.000000  0.000001  0.000002
                                 0.000005  0.000013  0.000031  0.000055  0.000078  0.000054  0.000010  0.000003 -0.000001  0.000002
                                -0.000000 -0.000000  0.000000 -0.000001 -0.000000  0.000002  0.000001 -0.000000  0.000000  0.000000
                                -0.000000  0.000000 -0.000000  0.000000 -0.000000  0.000001 -0.000000  0.000003 -0.000000  0.000016
                                -0.000000  0.000023 -0.000000  0.000005 -0.000000 -0.000001  0.000000 -0.000001  0.000000 -0.000001
                                 0.000000  0.000000 -0.000000 -0.000000 -0.000000 -0.000000 -0.000000  0.000001 -0.000000  0.000000
                                -0.000000 -0.000000 -0.000000  0.000000 -0.000000  0.000001 -0.000000 -0.000001  0.000000  0.000001
                                 0.000000 -0.000001  0.000000  0.000002 -0.000000 -0.000001  0.000000  0.000001 -0.000000 -0.000000
                                 0.000000 -0.000000  0.000000 -0.000000  0.000000  0.000001  0.000000  0.000000  0.000000 -0.000000
                                 0.000000 -0.000001 -0.000000 -0.000000  0.000000 -0.000000 -0.000000 -0.000000  0.000000  0.000000
                                 0.000000 -0.000000  0.000000  0.000000  0.000000  0.000000 -0.000000 -0.000000  0.000000  0.000000
                                 0.000000 -0.000000  0.000000 -0.000000  0.000000 -0.000000  0.000000 -0.000000 -0.000000 -0.000000
                                 0.000001 -0.000002 -0.000003  0.000000  0.000000  0.000000  0.000000 -0.000000 -0.000000  0.000000
                                 0.000000 -0.000000 -0.000000  0.000000  0.000000  0.000000 -0.000000  0.000000 -0.000000 -0.000000
                                -0.000000 -0.000000  0.000000 -0.000000  0.000000

   3.1   2  -287.2443 -832.9688  0.000000  0.000000  0.000000  0.000000  0.000000  0.000000  0.000001  0.000001  0.000002  0.000004
                                 0.000008  0.000013  0.000023  0.000033  0.000033 -0.000000 -0.000075 -0.000095 -0.000062 -0.000002
                                -0.000079  0.000231 -0.000446  0.000341 -0.000065  0.000022 -0.000017  0.000014 -0.000006  0.000000
                                 0.000002 -0.000001  0.000000  0.000013  0.000036  0.000109  0.000314  0.000925  0.002776  0.008419
                                 0.025018  0.069322  0.164655  0.301583  0.359207  0.215497  0.045697  0.002056 -0.000353  0.000782
                                -0.000673  0.000104 -0.000057  0.000033 -0.000015  0.000004 -0.000001  0.000000 -0.000000  0.000000
                                 0.000000  0.000000  0.000000  0.000000  0.000000  0.000001  0.000000  0.000007  0.000000  0.000015
                                -0.000000  0.000007  0.000000  0.000001  0.000000  0.000002  0.000000 -0.000001  0.000000  0.000001
                                 0.000000 -0.000002  0.000000  0.000002  0.000000  0.000000 -0.000000 -0.000002 -0.000000  0.000000
                                -0.000000 -0.000000 -0.000000  0.000001 -0.000000  0.000013 -0.000000  0.000014 -0.000000 -0.000002
                                -0.000000  0.000005 -0.000000 -0.000007  0.000000  0.000002 -0.000000  0.000001  0.000000 -0.000002
                                -0.000000  0.000001 -0.000000  0.000001 -0.000000 -0.000001 -0.000000  0.000000 -0.000000 -0.000000
                                 0.000000  0.000000 -0.000000 -0.000000 -0.000000  0.000000 -0.000000  0.000001 -0.000000 -0.000000
                                -0.000000  0.000000 -0.000000 -0.000000 -0.000000  0.000000  0.000000  0.000000 -0.000000 -0.000000
                                -0.000000  0.000000 -0.000000  0.000000 -0.000000  0.000000 -0.000000  0.000002  0.000004  0.000003
                                -0.000002  0.000004 -0.000002 -0.000004 -0.000003  0.000000  0.000000 -0.000000  0.000002 -0.000001
                                 0.000001 -0.000000 -0.000000 -0.000000 -0.000000 -0.000002 -0.000000  0.000000  0.000000  0.000000
                                -0.000000  0.000000  0.000000  0.000001 -0.000000

   4.1   2   -73.6819 -316.5802  0.000063  0.000063  0.000179  0.000266  0.000538  0.000901  0.001659  0.002891  0.005235  0.009369
                                 0.017039  0.030326  0.051574  0.076168  0.079719 -0.002513 -0.242281 -0.502076 -0.306914  0.460266
                                 0.715714 -0.029965  0.281504 -0.033194  0.020431  0.000672  0.000086 -0.000089 -0.000047 -0.000007
                                -0.000019 -0.000007 -0.000000 -0.000000 -0.000000 -0.000000 -0.000000 -0.000001 -0.000002 -0.000005
                                -0.000016 -0.000045 -0.000112 -0.000214 -0.000272 -0.000035  0.000466  0.000691  0.000323 -0.000083
                                 0.000082 -0.000012  0.000023 -0.000017 -0.000030  0.000013  0.000012  0.000004 -0.000000  0.000000
                                -0.000000  0.000001 -0.000000  0.000003 -0.000000  0.000016 -0.000000  0.000052 -0.000000  0.000126
                                -0.000000  0.000226 -0.000000  0.000476 -0.000000  0.000515 -0.000000  0.000126 -0.000000 -0.000010
                                 0.000000  0.000003  0.000000 -0.000004 -0.000000 -0.000016 -0.000000  0.000013 -0.000000  0.000006
                                -0.000000  0.000000 -0.000000 -0.000000  0.000000 -0.000001  0.000000 -0.000000 -0.000000 -0.000000
                                 0.000000  0.000004  0.000000 -0.000012 -0.000000  0.000011  0.000000 -0.000020 -0.000000  0.000011
                                 0.000000 -0.000008 -0.000000 -0.000009  0.000000  0.000005  0.000000  0.000002  0.000000  0.000000
                                 0.000000 -0.000012  0.000000  0.000000  0.000017 -0.000000 -0.000000 -0.000009  0.000000  0.000000
                                 0.000001 -0.000000 -0.000000  0.000001  0.000000  0.000000 -0.000000  0.000000 -0.000001  0.000000
                                -0.000000 -0.000001 -0.000000 -0.000000 -0.000000 -0.000000 -0.000000 -0.000001 -0.000004 -0.000013
                                 0.000021  0.000014  0.000001  0.000008  0.000001 -0.000000 -0.000002  0.000006 -0.000018 -0.000023
                                -0.000006  0.000002  0.000000  0.000000  0.000000  0.000010 -0.000000  0.000008 -0.000000 -0.000000
                                -0.000000 -0.000002  0.000000 -0.000002  0.000000

   5.1   2   -62.4234 -295.9487 -0.000000 -0.000000 -0.000000 -0.000000 -0.000001 -0.000001 -0.000002 -0.000004 -0.000007 -0.000013
                                -0.000023 -0.000041 -0.000070 -0.000103 -0.000108  0.000005  0.000337  0.000681  0.000416 -0.000691
                                -0.001239  0.000940 -0.001990  0.001281 -0.000277  0.000103 -0.000055  0.000056 -0.000005  0.000009
                                 0.000015 -0.000001  0.000001 -0.000006 -0.000018 -0.000054 -0.000156 -0.000460 -0.001386 -0.004234
                                -0.012736 -0.036119 -0.089122 -0.172373 -0.208042 -0.013008  0.388116  0.505023  0.199320 -0.001378
                                 0.020181  0.001140 -0.000091  0.000083 -0.000043  0.000009 -0.000007 -0.000000 -0.000000  0.000000
                                 0.000000  0.000000  0.000000  0.000002  0.000000  0.000010  0.000000  0.000032  0.000000  0.000084
                                 0.000000  0.000179  0.000000  0.000269  0.000000  0.000260  0.000000  0.000072 -0.000000  0.000025
                                -0.000000 -0.000005 -0.000000  0.000012  0.000000  0.000009  0.000000 -0.000008  0.000000  0.000001
                                 0.000000 -0.000001  0.000000  0.000001 -0.000000  0.000003 -0.000000  0.000076 -0.000000  0.000257
                                -0.000000  0.000144 -0.000000  0.000044 -0.000000 -0.000034 -0.000000  0.000052 -0.000000 -0.000044
                                -0.000000 -0.000002 -0.000000 -0.000002 -0.000000 -0.000005 -0.000000 -0.000000 -0.000000 -0.000000
                                -0.000000  0.000002  0.000000  0.000000 -0.000002  0.000000 -0.000000  0.000003  0.000000 -0.000000
                                -0.000001  0.000000 -0.000000 -0.000001 -0.000000  0.000000  0.000000  0.000000 -0.000000 -0.000000
                                -0.000000  0.000001  0.000000  0.000000  0.000000  0.000000  0.000000  0.000002  0.000005  0.000008
                                -0.000014  0.000003 -0.000016 -0.000004 -0.000003 -0.000000 -0.000001  0.000001  0.000017  0.000007
                                 0.000006  0.000001  0.000000 -0.000002 -0.000000 -0.000012  0.000000 -0.000003  0.000000  0.000000
                                -0.000000  0.000002 -0.000000  0.000004 -0.000000

   6.1   2   -47.4419 -273.0720 -0.000000 -0.000000 -0.000000 -0.000000 -0.000001 -0.000001 -0.000002 -0.000004 -0.000008 -0.000014
                                -0.000025 -0.000044 -0.000075 -0.000112 -0.000117  0.000004  0.000378  0.000805  0.000462 -0.001111
                                -0.000878 -0.000873  0.001808 -0.001291  0.000507 -0.000136  0.000076 -0.000238  0.000319  0.000040
                                -0.000038  0.000003 -0.000001  0.000000  0.000000  0.000000  0.000000  0.000000  0.000001  0.000003
                                 0.000010  0.000030  0.000073  0.000143  0.000169 -0.000002 -0.000387 -0.000419 -0.000033 -0.000068
                                 0.000097 -0.000004 -0.000003 -0.000063  0.000207 -0.000011 -0.000025 -0.000003  0.000001  0.000090
                                 0.000000  0.000696  0.000000  0.003989  0.000000  0.017835  0.000000  0.061326  0.000000  0.159728
                                 0.000001  0.296077  0.000001  0.364682  0.000002  0.244160  0.000001  0.069318  0.000000  0.005434
                                 0.000000  0.000482  0.000000 -0.000053 -0.000000  0.000150  0.000000 -0.000011 -0.000000 -0.000018
                                 0.000000 -0.000002 -0.000000  0.000001  0.000000  0.000015  0.000000  0.000056  0.000000  0.000099
                                 0.000000  0.000066  0.000000 -0.000030 -0.000000  0.000014  0.000000 -0.000025  0.000000 -0.000004
                                -0.000000 -0.000021 -0.000000  0.000044 -0.000000 -0.000008 -0.000000 -0.000012  0.000000 -0.000001
                                 0.000000  0.000271  0.000000 -0.000000 -0.000064  0.000000  0.000000  0.000037  0.000000 -0.000000
                                 0.000003  0.000000  0.000000 -0.000006 -0.000000 -0.000000  0.000000  0.000000  0.000001 -0.000000
                                 0.000000  0.000006 -0.000000 -0.000000 -0.000000 -0.000000 -0.000001 -0.000000  0.000011  0.000040
                                -0.000070 -0.000122 -0.000020 -0.000023 -0.000004  0.000000  0.000006 -0.000016  0.000061  0.000106
                                 0.000036 -0.000006 -0.000000 -0.000002 -0.000000 -0.000016  0.000000 -0.000027  0.000000  0.000001
                                 0.000000  0.000002 -0.000000 -0.000006 -0.000000

   7.1   2   -47.4125 -273.0238  0.000000  0.000000  0.000000  0.000000  0.000000  0.000000  0.000000  0.000000  0.000000  0.000000
                                 0.000000  0.000000  0.000000  0.000000  0.000000 -0.000000 -0.000000 -0.000000 -0.000000  0.000000
                                 0.000000 -0.000000  0.000000 -0.000000 -0.000000  0.000000 -0.000000  0.000000 -0.000000 -0.000000
                                 0.000000  0.000000  0.000000 -0.000000 -0.000000 -0.000000 -0.000000 -0.000000 -0.000000 -0.000000
                                -0.000000 -0.000000 -0.000000 -0.000000 -0.000000  0.000000  0.000000  0.000000  0.000000 -0.000000
                                -0.000000 -0.000000  0.000000  0.000000 -0.000000  0.000000 -0.000000 -0.000000 -0.000000 -0.000000
                                 0.000090 -0.000000  0.000696 -0.000000  0.003989 -0.000000  0.017835 -0.000000  0.061326 -0.000001
                                 0.159731 -0.000001  0.296088 -0.000002  0.364634 -0.000001  0.244067 -0.000000  0.069386 -0.000000
                                 0.005621 -0.000000  0.000574 -0.000000  0.000001 -0.000000  0.000045  0.000000 -0.000011  0.000000
                                 0.000006  0.000000 -0.000002 -0.000000  0.000001 -0.000000  0.000011 -0.000000  0.000042 -0.000000
                                 0.000075 -0.000000  0.000058  0.000000 -0.000020  0.000000  0.000023 -0.000000 -0.000015  0.000000
                                 0.000010 -0.000000 -0.000002 -0.000000  0.000006  0.000000  0.000001  0.000000 -0.000000  0.000000
                                 0.000000  0.000000 -0.000364  0.000146  0.000000 -0.000148 -0.000081  0.000000 -0.000044  0.000013
                                 0.000000 -0.000002 -0.000000  0.000000  0.000000  0.000000  0.000001 -0.000001  0.000000  0.000001
                                 0.000000 -0.000000  0.000000  0.000000  0.000000  0.000000  0.000000  0.000000 -0.000000 -0.000000
                                 0.000000  0.000000  0.000000  0.000000  0.000000 -0.000000 -0.000000  0.000000 -0.000000 -0.000000
                                -0.000000  0.000000  0.000000  0.000000  0.000001  0.000000 -0.000004  0.000000 -0.000001 -0.000000
                                -0.000000 -0.000000  0.000000 -0.000000  0.000006

   8.1   2   -20.5596  -77.0787 -0.000000 -0.000000 -0.000000 -0.000000 -0.000000  0.000000 -0.000000  0.000000 -0.000000  0.000000
                                -0.000001  0.000001 -0.000004  0.000008 -0.000019  0.000042 -0.000095  0.000228 -0.000563  0.002116
                                -0.015557  0.046144 -0.092895  0.072076 -0.015001  0.005481 -0.004816  0.004918 -0.004332 -0.009361
                                -0.002844  0.000175  0.000012 -0.000000 -0.000000 -0.000000 -0.000000 -0.000000 -0.000000 -0.000000
                                -0.000000  0.000000 -0.000003  0.000002 -0.000015  0.000030 -0.000068  0.000220 -0.000809  0.001871
                                -0.001604  0.000591 -0.000919  0.001384 -0.000736 -0.004473 -0.006116  0.000186 -0.000032  0.000000
                                 0.000000  0.000000  0.000000  0.000000  0.000000  0.000001  0.000000  0.000000  0.000000  0.000005
                                 0.000000 -0.000002  0.000000  0.000020  0.000000 -0.000031 -0.000000  0.000030 -0.000000 -0.000079
                                -0.000000 -0.000055 -0.000000  0.000324  0.000000  0.000974  0.000000 -0.001923  0.000000 -0.003003
                                -0.000000  0.000119 -0.000000  0.000000  0.000000  0.000000  0.000000  0.000003  0.000000  0.000003
                                 0.000000  0.000085 -0.000000 -0.000168  0.000000  0.000359 -0.000000 -0.000611  0.000000  0.000485
                                -0.000000  0.000022  0.000000  0.000693  0.000000 -0.000036  0.000000 -0.001289  0.000000 -0.000050
                                -0.000000 -0.000002 -0.000000  0.000000  0.000010 -0.000000 -0.000000  0.000130 -0.000000  0.000000
                                 0.000477 -0.000000  0.000000 -0.000562  0.000000  0.000000  0.000000 -0.000000  0.000030  0.000000
                                -0.000000 -0.000097  0.000743  0.004235  0.020729  0.079634  0.231686  0.425538  0.337319  0.044543
                                -0.013315  0.011136  0.012157  0.007443  0.011827 -0.000018  0.000226 -0.001237  0.001546 -0.003639
                                 0.000803 -0.000533 -0.000022  0.000268  0.000000 -0.000560  0.000000  0.000917 -0.000000  0.000085
                                -0.000000  0.000047 -0.000000  0.000061 -0.000000

   9.1   2   -15.6167 -137.3642 -0.000030 -0.000030 -0.000086 -0.000128 -0.000259 -0.000434 -0.000799 -0.001393 -0.002523 -0.004523
                                -0.008227 -0.014698 -0.025041 -0.037349 -0.039208  0.001515  0.132024  0.287834  0.196235 -0.405784
                                -0.871326 -0.042137 -0.047253 -0.056510  0.869960  0.568527  0.054318 -0.004438  0.001892  0.001457
                                 0.000134 -0.000007  0.000006  0.000000  0.000000  0.000000  0.000000  0.000001  0.000004  0.000012
                                 0.000035  0.000100  0.000251  0.000488  0.000601 -0.000069 -0.001583 -0.002393  0.000419 -0.000207
                                 0.003278  0.003156  0.000690 -0.000158  0.000049  0.000954  0.000326 -0.000060  0.000008 -0.000000
                                 0.000000 -0.000002  0.000000 -0.000012  0.000000 -0.000054  0.000000 -0.000188  0.000000 -0.000491
                                 0.000000 -0.000903  0.000000 -0.001195  0.000000 -0.000472  0.000000  0.002352 -0.000000  0.003649
                                -0.000000  0.000657 -0.000000 -0.000015 -0.000000  0.000038  0.000000  0.000518  0.000000  0.000099
                                 0.000000 -0.000016  0.000000  0.000000 -0.000000  0.000002 -0.000000  0.000008 -0.000000  0.000021
                                -0.000000  0.000006 -0.000000  0.000007  0.000000  0.000046 -0.000000  0.000148  0.000000 -0.000005
                                -0.000000  0.000042  0.000000 -0.000047 -0.000000  0.000206 -0.000000  0.000032 -0.000000 -0.000005
                                -0.000000 -0.000026  0.000000  0.000000 -0.000080  0.000000  0.000000  0.000066 -0.000000 -0.000000
                                 0.000066  0.000000 -0.000000  0.000000 -0.000000 -0.000000  0.000000  0.000000  0.000005 -0.000000
                                -0.000000  0.000035 -0.000000 -0.000000 -0.000002 -0.000009 -0.000025 -0.000052 -0.000055  0.000012
                                 0.000086 -0.001123 -0.001241  0.000001  0.000004 -0.000001  0.000011 -0.000089 -0.000049  0.000216
                                 0.000199 -0.000023 -0.000001  0.000028 -0.000000  0.000033  0.000000  0.000046  0.000000  0.000001
                                 0.000000 -0.000011 -0.000000 -0.000014 -0.000000

  10.1   2   -11.8331 -126.8468  0.000000  0.000000  0.000001  0.000001  0.000002  0.000003  0.000006  0.000010  0.000017  0.000031
                                 0.000057  0.000102  0.000174  0.000259  0.000272 -0.000012 -0.000923 -0.002003 -0.001389  0.002903
                                 0.006718 -0.000758  0.001317  0.000385 -0.008466 -0.002676  0.001134 -0.000103 -0.000063 -0.000530
                                -0.000352  0.000068 -0.000017  0.000003  0.000008  0.000026  0.000074  0.000218  0.000658  0.002015
                                 0.006074  0.017331  0.043090  0.084605  0.102001 -0.012381 -0.281960 -0.403653  0.071839  0.002956
                                 0.602464  0.445451  0.074740 -0.000078  0.001101 -0.000488 -0.000225  0.000001  0.000006 -0.000000
                                 0.000000 -0.000001  0.000000 -0.000006  0.000000 -0.000030  0.000000 -0.000100  0.000000 -0.000277
                                 0.000000 -0.000499  0.000000 -0.000644  0.000000 -0.000089 -0.000000  0.000769 -0.000000  0.002002
                                -0.000000  0.001667 -0.000000  0.000351  0.000000  0.000008 -0.000000  0.000043 -0.000000 -0.000141
                                -0.000000  0.000020 -0.000000  0.000003 -0.000000  0.000032 -0.000000  0.000092 -0.000000  0.000309
                                -0.000000  0.001119 -0.000000  0.000372 -0.000000  0.001935 -0.000000  0.000726 -0.000000  0.000285
                                -0.000000  0.000096 -0.000000 -0.000055 -0.000000  0.000037 -0.000000 -0.000048 -0.000000  0.000001
                                 0.000000 -0.000005  0.000000  0.000000  0.000112  0.000000 -0.000000  0.000186 -0.000000 -0.000000
                                 0.000034 -0.000000 -0.000000 -0.000012  0.000000  0.000000  0.000000  0.000000 -0.000089 -0.000000
                                -0.000000  0.000146 -0.000000 -0.000001 -0.000007 -0.000025 -0.000083 -0.000084  0.000070  0.000279
                                 0.000062  0.000179  0.000786 -0.000266 -0.000151 -0.000007 -0.000017 -0.000275 -0.000280 -0.000107
                                -0.000054 -0.000039 -0.000003  0.000110 -0.000000  0.000124  0.000000 -0.000032  0.000000  0.000007
                                 0.000000 -0.000068 -0.000000  0.000022 -0.000000

  11.1   2    -6.3914 -111.3214  0.000000  0.000000  0.000001  0.000001  0.000002  0.000003  0.000005  0.000009  0.000017  0.000030
                                 0.000055  0.000099  0.000168  0.000253  0.000262 -0.000005 -0.000922 -0.001965 -0.001443  0.003520
                                 0.003860  0.008311 -0.017875  0.014149 -0.011730  0.001487 -0.003045  0.004558 -0.006506 -0.001328
                                 0.000457 -0.000014  0.000023 -0.000000 -0.000000 -0.000000 -0.000000 -0.000001 -0.000004 -0.000013
                                -0.000038 -0.000110 -0.000274 -0.000540 -0.000645  0.000089  0.001923  0.002687 -0.000840  0.000163
                                -0.005492 -0.001831  0.001399  0.002964 -0.004142 -0.000155 -0.000204  0.000040 -0.000010 -0.000043
                                 0.000000 -0.000333  0.000000 -0.001910  0.000000 -0.008622  0.000000 -0.029932  0.000000 -0.079608
                                 0.000000 -0.146078  0.000001 -0.166162  0.000001 -0.000466  0.000000  0.318372 -0.000001  0.468883
                                -0.000002  0.282636 -0.000001  0.059256 -0.000000  0.000387 -0.000000  0.000716 -0.000000  0.000055
                                 0.000000  0.000044 -0.000000  0.000000 -0.000000 -0.000001 -0.000000  0.000001 -0.000000  0.000045
                                -0.000000  0.000051 -0.000000  0.000285  0.000000 -0.000035 -0.000000  0.001068  0.000000  0.000123
                                -0.000000  0.001284 -0.000000 -0.000807 -0.000000  0.000116 -0.000000  0.000155 -0.000000 -0.000006
                                -0.000000  0.001022  0.000000 -0.000000  0.001923  0.000000 -0.000000  0.000704  0.000000  0.000000
                                 0.000116  0.000000  0.000000  0.000067 -0.000000 -0.000000 -0.000000  0.000000  0.000316  0.000000
                                 0.000000  0.000282 -0.000001 -0.000008 -0.000041 -0.000152 -0.000511 -0.000580  0.000603  0.002294
                                 0.001978  0.003065  0.001348 -0.002085 -0.001004 -0.000048 -0.000054 -0.002227 -0.002739 -0.002692
                                -0.000556 -0.000446 -0.000026  0.000764 -0.000000  0.000725 -0.000000  0.000482  0.000000  0.000019
                                 0.000000 -0.000482  0.000000  0.000217 -0.000000

  12.1   2    -6.3562 -111.0738 -0.000000 -0.000000 -0.000000 -0.000000 -0.000000 -0.000000 -0.000000 -0.000000 -0.000000 -0.000000
                                -0.000000 -0.000000 -0.000000 -0.000000 -0.000000  0.000000  0.000000  0.000000  0.000000 -0.000000
                                -0.000000  0.000000 -0.000000  0.000000 -0.000000  0.000000 -0.000000  0.000000 -0.000000  0.000000
                                 0.000000  0.000000  0.000000 -0.000000 -0.000000 -0.000000 -0.000000 -0.000000 -0.000000 -0.000000
                                -0.000000 -0.000000 -0.000000 -0.000000 -0.000000  0.000000  0.000000  0.000000 -0.000000  0.000000
                                -0.000000 -0.000000  0.000000  0.000000 -0.000000 -0.000000 -0.000000 -0.000000  0.000000 -0.000000
                                -0.000043 -0.000000 -0.000332 -0.000000 -0.001909 -0.000000 -0.008612 -0.000000 -0.029906 -0.000000
                                -0.079512 -0.000001 -0.145965 -0.000001 -0.165847 -0.000000 -0.000607  0.000001  0.317788  0.000002
                                 0.466423  0.000001  0.285254  0.000000  0.060810  0.000000  0.001924  0.000000  0.000596 -0.000000
                                -0.000212 -0.000000  0.000078 -0.000000  0.000002 -0.000000  0.000011 -0.000000  0.000057  0.000000
                                 0.000187 -0.000000  0.000530  0.000000 -0.000055 -0.000000  0.000901  0.000000 -0.000111 -0.000000
                                 0.001186  0.000000  0.000444 -0.000000 -0.000031 -0.000000  0.000016 -0.000000  0.000005 -0.000000
                                -0.000001  0.000000 -0.001356  0.000518  0.000000 -0.002589  0.001166  0.000000 -0.001532 -0.000142
                                 0.000000 -0.000126 -0.000079 -0.000000  0.000036  0.000036  0.000137 -0.000010  0.000000 -0.000005
                                -0.000002  0.000000 -0.000000 -0.000000 -0.000000 -0.000000 -0.000000 -0.000000  0.000000  0.000000
                                 0.000000  0.000000  0.000000 -0.000000 -0.000000 -0.000000 -0.000000 -0.000000 -0.000000 -0.000000
                                 0.000000 -0.000000 -0.000000  0.000000  0.000036 -0.000000  0.000034 -0.000000 -0.000054  0.000000
                                 0.000000 -0.000000 -0.000045  0.000000  0.000035

  13.1   2    -2.2809  -57.3996  0.000011  0.000011  0.000032  0.000047  0.000095  0.000159  0.000292  0.000510  0.000924  0.001656
                                 0.003014  0.005385  0.009186  0.013714  0.014442 -0.000632 -0.049553 -0.109798 -0.076344  0.167531
                                 0.427343 -0.068543  0.143938 -0.061171 -0.560982 -0.582687  0.275893  0.764292  0.194831 -0.015308
                                -0.006576  0.004204 -0.000467 -0.000000 -0.000000 -0.000001 -0.000003 -0.000010 -0.000029 -0.000091
                                -0.000272 -0.000783 -0.001929 -0.003853 -0.004520  0.000497  0.014271  0.018228  0.000283 -0.017635
                                -0.023196 -0.039812  0.029404  0.068208 -0.029910  0.001967 -0.011651  0.001705 -0.000428  0.000001
                                -0.000000  0.000008 -0.000000  0.000049 -0.000000  0.000214 -0.000000  0.000761 -0.000000  0.001972
                                -0.000000  0.003740 -0.000000  0.004029 -0.000000  0.000105 -0.000000 -0.010211  0.000000 -0.012472
                                 0.000000 -0.005784 -0.000000  0.020611 -0.000000 -0.010959 -0.000000  0.005611  0.000000 -0.001583
                                 0.000000  0.000309  0.000000  0.000006  0.000000  0.000063  0.000000  0.000253 -0.000000  0.000887
                                 0.000000  0.000441 -0.000000  0.002426  0.000000 -0.001686 -0.000000  0.007085  0.000000 -0.003435
                                -0.000000  0.011250 -0.000000 -0.003307 -0.000000  0.005655 -0.000000  0.000587 -0.000000  0.000010
                                -0.000000  0.000101 -0.000000 -0.000000 -0.000281  0.000000  0.000000  0.003559  0.000000  0.000000
                                 0.003061  0.000000  0.000000  0.000230 -0.000000 -0.000000  0.000000 -0.000000  0.000512  0.000000
                                -0.000000  0.001638 -0.000042 -0.000240 -0.001193 -0.004662 -0.014816 -0.029684 -0.029983  0.040390
                                 0.120586  0.072437  0.038015 -0.012216 -0.007389 -0.001711 -0.010742 -0.043181 -0.070545 -0.049687
                                -0.008077 -0.002843 -0.000345  0.006909  0.000000  0.018845  0.000000  0.012041 -0.000000  0.000357
                                 0.000000 -0.003043 -0.000000 -0.003091 -0.000000

  14.1   2    -1.5967  -46.2879 -0.000004 -0.000004 -0.000011 -0.000017 -0.000034 -0.000057 -0.000104 -0.000182 -0.000329 -0.000590
                                -0.001072 -0.001918 -0.003265 -0.004892 -0.005114  0.000167  0.017796  0.038817  0.028101 -0.063255
                                -0.129671 -0.047639  0.096621 -0.093935  0.229324  0.215501 -0.132245 -0.225625 -0.278226 -0.047734
                                -0.018280  0.002739 -0.000421 -0.000001 -0.000002 -0.000006 -0.000017 -0.000051 -0.000155 -0.000475
                                -0.001429 -0.004092 -0.010155 -0.020090 -0.023996  0.003483  0.073001  0.102198 -0.026885 -0.021824
                                -0.192043 -0.181553  0.147529  0.354749  0.123556  0.032228 -0.026522  0.004242 -0.000794  0.000003
                                 0.000000  0.000020  0.000000  0.000118  0.000000  0.000523  0.000000  0.001850  0.000000  0.004841
                                 0.000000  0.009096  0.000000  0.009775  0.000000 -0.000491 -0.000000 -0.023576 -0.000000 -0.029802
                                -0.000000 -0.020358  0.000000  0.048830  0.000000  0.022297  0.000000  0.021688 -0.000000 -0.007305
                                -0.000000  0.000781 -0.000000  0.000024 -0.000000  0.000213 -0.000000  0.000946 -0.000000  0.002907
                                -0.000000  0.004454 -0.000000  0.002369  0.000000  0.003825 -0.000000  0.007692  0.000000  0.003411
                                -0.000000  0.025725 -0.000000  0.007211 -0.000000  0.018192 -0.000000 -0.001246  0.000000 -0.000110
                                -0.000000  0.000157  0.000000  0.000000  0.000523 -0.000000 -0.000000  0.007738 -0.000000 -0.000000
                                 0.006990 -0.000000 -0.000000 -0.000542  0.000000  0.000000  0.000000  0.000000  0.000781  0.000000
                                 0.000000  0.002128 -0.000107 -0.000612 -0.003036 -0.011890 -0.037774 -0.077578 -0.084281  0.104682
                                 0.338810  0.207714  0.079069 -0.024417 -0.016395 -0.002750 -0.017972 -0.068266 -0.116430 -0.095280
                                -0.010424 -0.003873 -0.000525  0.008195  0.000000  0.027557 -0.000000  0.023753 -0.000000  0.000380
                                 0.000000 -0.003791 -0.000000 -0.005516  0.000000

  15.1   2    -0.9457  -36.2638  0.000001  0.000001  0.000004  0.000006  0.000012  0.000020  0.000037  0.000065  0.000117  0.000210
                                 0.000384  0.000683  0.001172  0.001734  0.001858 -0.000130 -0.006198 -0.014276 -0.009074  0.018933
                                 0.075420 -0.069239  0.141466 -0.103700 -0.055895 -0.087835  0.044803  0.139366  0.029706  0.038638
                                 0.032415 -0.004918  0.000654 -0.000001 -0.000002 -0.000006 -0.000016 -0.000048 -0.000144 -0.000441
                                -0.001327 -0.003800 -0.009440 -0.018655 -0.022336  0.003389  0.067885  0.096315 -0.029904 -0.010315
                                -0.192959 -0.169482  0.155526  0.363466  0.237953  0.081130  0.040843  0.002274 -0.000668 -0.000002
                                -0.000000 -0.000012 -0.000000 -0.000068 -0.000000 -0.000311 -0.000000 -0.001067 -0.000000 -0.002887
                                -0.000000 -0.005191 -0.000000 -0.006024 -0.000000  0.001115  0.000000  0.012876  0.000000  0.020612
                                 0.000000  0.004718 -0.000000 -0.022507 -0.000000 -0.061809 -0.000000 -0.007242 -0.000000  0.020537
                                -0.000000 -0.000550 -0.000000 -0.000032 -0.000000 -0.000268 -0.000000 -0.001220 -0.000000 -0.003548
                                -0.000000 -0.008011 -0.000000  0.001164  0.000000 -0.012809 -0.000000  0.004242  0.000000 -0.014059
                                -0.000000 -0.004325 -0.000000 -0.013349 -0.000000  0.002527 -0.000000  0.009548  0.000000  0.000337
                                -0.000000  0.000093 -0.000000 -0.000000 -0.000337 -0.000000  0.000000  0.001141 -0.000000  0.000000
                                -0.000641 -0.000000  0.000000  0.003853  0.000000 -0.000000  0.000000  0.000000 -0.000094  0.000000
                                 0.000000  0.001414  0.000119  0.000682  0.003378  0.013263  0.042110  0.088682  0.103739 -0.116257
                                -0.424843 -0.426041 -0.113154  0.017736  0.015222 -0.004332 -0.029152 -0.112407 -0.153278 -0.054837
                                -0.010433 -0.005680 -0.000806  0.007033  0.000000  0.014298  0.000000  0.005308  0.000000  0.000517
                                 0.000000 -0.002418  0.000000 -0.002590 -0.000000

  16.1   2    -0.4665  -38.5785 -0.000002 -0.000002 -0.000004 -0.000006 -0.000013 -0.000022 -0.000040 -0.000069 -0.000125 -0.000225
                                -0.000408 -0.000734 -0.001240 -0.001879 -0.001923 -0.000001  0.006955  0.014507  0.011691 -0.027965
                                -0.024076 -0.097617  0.198108 -0.160281  0.115349  0.087577 -0.077469 -0.054215 -0.294729  0.014359
                                -0.001388  0.011244 -0.002282  0.000000  0.000001  0.000003  0.000009  0.000025  0.000076  0.000234
                                 0.000707  0.002012  0.005033  0.009852  0.012018 -0.002227 -0.035141 -0.054498  0.029783 -0.028246
                                 0.135405  0.080872 -0.092057 -0.182498 -0.300236 -0.040999  0.005806  0.006261 -0.001438  0.000008
                                 0.000000  0.000060  0.000000  0.000347  0.000000  0.001555  0.000000  0.005445  0.000000  0.014406
                                 0.000000  0.026675  0.000000  0.029385  0.000000 -0.003370 -0.000000 -0.070366 -0.000000 -0.095975
                                -0.000000 -0.041465 -0.000000  0.162226  0.000000  0.237883  0.000000  0.219543  0.000000  0.045385
                                 0.000000  0.002206 -0.000000  0.000181 -0.000000  0.001557 -0.000000  0.007012 -0.000000  0.020895
                                -0.000000  0.040544 -0.000000  0.003780 -0.000000  0.052809 -0.000000  0.013513 -0.000000  0.050089
                                -0.000000  0.076545 -0.000000  0.041849 -0.000000  0.059213  0.000000  0.015214  0.000000  0.001743
                                -0.000000  0.000206  0.000000  0.000000  0.000873  0.000000 -0.000000  0.013211  0.000000 -0.000000
                                 0.013559  0.000000 -0.000000  0.004338 -0.000000  0.000000 -0.000000 -0.000000  0.002052 -0.000000
                                -0.000000  0.004092 -0.000018 -0.000100 -0.000495 -0.001948 -0.006183 -0.013052 -0.014324  0.016500
                                 0.072264 -0.100997 -0.088685 -0.004737 -0.002437 -0.008900 -0.061587 -0.225082 -0.360891 -0.302578
                                -0.064267 -0.009791 -0.001580  0.009612  0.000000  0.032691  0.000000  0.044184  0.000000  0.000376
                                 0.000000 -0.004920  0.000000 -0.007984  0.000000

  17.1   +    -0.7494  -85.9719  0.000000  0.000000  0.000000  0.000000  0.000000  0.000000  0.000000  0.000000  0.000000  0.000000
                                 0.000000  0.000000  0.000000  0.000000  0.000000 -0.000000 -0.000000 -0.000000 -0.000000  0.000000
                                 0.000000 -0.000000  0.000001 -0.000001  0.000000 -0.000000  0.000000  0.000000 -0.000000 -0.000000
                                -0.000000 -0.000000  0.000000  0.000000  0.000000  0.000000  0.000000  0.000000  0.000000  0.000000
                                 0.000000  0.000000  0.000000  0.000000  0.000000 -0.000000 -0.000000 -0.000000  0.000000 -0.000000
                                 0.000000 -0.000000  0.000000 -0.000000 -0.000000  0.000000 -0.000000  0.000000 -0.000000 -0.000000
                                 0.000000 -0.000000  0.000002 -0.000000  0.000012 -0.000000  0.000051 -0.000000  0.000181 -0.000000
                                 0.000477 -0.000000  0.000888 -0.000000  0.000970  0.000000 -0.000113  0.000000 -0.002328  0.000000
                                -0.003122  0.000000 -0.001085 -0.000000  0.004260 -0.000001  0.004483 -0.000001  0.001817 -0.000000
                                 0.000204  0.000000 -0.000062  0.000000  0.001001  0.000000  0.008543  0.000000  0.038727  0.000001
                                 0.114550  0.000002  0.231105  0.000000  0.002145  0.000003  0.319701  0.000000  0.004489  0.000003
                                 0.323825  0.000003  0.237584  0.000001  0.110633  0.000000  0.023492 -0.000000  0.001130 -0.000000
                                -0.000084  0.000000 -0.000003  0.000415  0.000000 -0.000004  0.001265  0.000000  0.000003  0.003231
                                 0.000000 -0.000002  0.000914 -0.000000  0.000000  0.000041  0.002597  0.000418  0.000000  0.000217
                                -0.000062  0.000000  0.000000  0.000000  0.000000  0.000000  0.000000  0.000000  0.000000  0.000000
                                -0.000000 -0.000000  0.000000 -0.000000 -0.000000  0.000000  0.000000  0.000000  0.000000  0.000000
                                 0.000000 -0.000000 -0.000000  0.000000  0.001998  0.000000  0.005433  0.000000 -0.000010  0.000000
                                 0.000110 -0.000000 -0.001958 -0.000000 -0.000758

  18.1   +    -0.7073  -82.4736  0.000000  0.000000  0.000001  0.000001  0.000003  0.000005  0.000009  0.000016  0.000028  0.000051
                                 0.000093  0.000165  0.000284  0.000417  0.000454 -0.000043 -0.001476 -0.003518 -0.002056  0.004075
                                 0.022648 -0.029024  0.058260 -0.043358 -0.011821 -0.021860  0.013021  0.039903  0.026919 -0.025084
                                -0.001475 -0.002337  0.000601 -0.000000 -0.000000 -0.000000 -0.000001 -0.000002 -0.000007 -0.000023
                                -0.000068 -0.000196 -0.000479 -0.000965 -0.001112  0.000096  0.003685  0.004316  0.001109 -0.007115
                                -0.003732 -0.010787  0.008680  0.017285  0.022998  0.021711 -0.003276  0.000118  0.000098 -0.000003
                                -0.000000 -0.000025 -0.000000 -0.000142 -0.000000 -0.000644 -0.000000 -0.002229 -0.000000 -0.005976
                                -0.000000 -0.010877 -0.000000 -0.012355 -0.000000  0.002046  0.000000  0.028422  0.000000  0.042408
                                 0.000000  0.009675  0.000000 -0.065022 -0.000000 -0.131935 -0.000000 -0.097756 -0.000000 -0.021736
                                -0.000000 -0.000177  0.000000  0.000969 -0.000000  0.008265 -0.000000  0.037465 -0.000000  0.110837
                                -0.000001  0.223695 -0.000002  0.002183 -0.000000  0.309184 -0.000003  0.005259 -0.000000  0.311872
                                -0.000003  0.227799 -0.000003  0.098105 -0.000001  0.012239 -0.000000 -0.002894 -0.000000 -0.000678
                                 0.000000  0.000667 -0.000000 -0.000000  0.001486 -0.000000 -0.000000  0.001749  0.000000 -0.000000
                                -0.001275  0.000000  0.000000 -0.000581 -0.000000 -0.000000 -0.000000 -0.000000  0.002600 -0.000000
                                 0.000000 -0.000227  0.000007  0.000041  0.000199  0.000807  0.002434  0.006889  0.012555  0.000782
                                -0.039512  0.001132  0.059117 -0.006474 -0.002227  0.001357  0.010522  0.029732  0.059095  0.064081
                                 0.017404  0.000079  0.000184  0.003892 -0.000000  0.003483 -0.000000 -0.004663 -0.000000  0.000241
                                -0.000000 -0.001722  0.000000  0.000776  0.000000

  19.1   +    -0.1784  -18.3947 -0.000003 -0.000003 -0.000008 -0.000012 -0.000024 -0.000040 -0.000073 -0.000128 -0.000231 -0.000415
                                -0.000755 -0.001348 -0.002302 -0.003434 -0.003622  0.000166  0.012443  0.027677  0.019236 -0.042459
                                -0.112505  0.023156 -0.045351  0.020142  0.155536  0.172134 -0.113750 -0.275002 -0.260749  0.357394
                                 0.605153  0.209257  0.003224 -0.000000 -0.000000 -0.000001 -0.000002 -0.000006 -0.000019 -0.000059
                                -0.000179 -0.000512 -0.001272 -0.002514 -0.003010  0.000468  0.009193  0.013102 -0.004335 -0.000939
                                -0.027494 -0.023302  0.025442  0.054277  0.051491 -0.023647 -0.191316 -0.101243  0.002817 -0.000001
                                 0.000000 -0.000004  0.000000 -0.000025  0.000000 -0.000114  0.000000 -0.000396  0.000000 -0.001057
                                 0.000000 -0.001934  0.000000 -0.002194  0.000000  0.000306 -0.000000  0.005243 -0.000000  0.007731
                                -0.000001  0.000584 -0.000000 -0.011738  0.000001 -0.020000  0.000002 -0.038930  0.000002 -0.037648
                                 0.000002 -0.005764  0.000001 -0.000007  0.000000 -0.000060  0.000000 -0.000271  0.000000 -0.000809
[...]
                                 0.000000  0.007966  0.000000 -0.001646  0.000000  0.012563  0.000000 -0.003804  0.000000  0.013744
                                 0.000000  0.008828  0.000000  0.018969  0.000000  0.016874  0.000000  0.008501  0.000000 -0.004137
                                -0.000000  0.000016  0.000000 -0.000152 -0.000000  0.002583 -0.000000  0.006569 -0.000000 -0.004143
                                 0.000000 -0.000131  0.000000 -0.000044  0.001566 -0.000000 -0.000031  0.010012  0.070831  0.246548
                                 0.386285  0.351574  0.091846  0.008873  0.001694 -0.002802 -0.015734 -0.027506 -0.000285  0.000294
                                -0.000000  0.007778 -0.000000

   9.3   +    -0.9105  -85.5888 -0.000000 -0.000000 -0.000000 -0.000000 -0.000001 -0.000004 -0.000013 -0.000038 -0.000110 -0.000273
                                -0.000542 -0.000646  0.000101  0.002024  0.002786 -0.000975 -0.000617 -0.005614 -0.004438  0.007058
                                 0.008715  0.001429 -0.004148 -0.001742  0.000851 -0.000260 -0.000000 -0.000004 -0.000022 -0.000097
                                -0.000342 -0.000903 -0.001676 -0.001835  0.000231  0.004491  0.006152  0.002143 -0.011423 -0.020818
                                -0.011109 -0.001566  0.000699  0.001009  0.000000  0.008602  0.000000  0.039004  0.000000  0.115309
                                 0.000000  0.233268  0.000000  0.001245  0.000000  0.323375  0.000000  0.002352  0.000000  0.326859
                                 0.000000  0.235386  0.000000  0.102842  0.000000  0.016989  0.000000  0.000044  0.000000  0.000642
                                 0.000000  0.000030  0.000000  0.000359  0.000000 -0.001666 -0.000000 -0.002717 -0.000000  0.001033
                                 0.000000  0.002260  0.000000  0.000403 -0.001193 -0.000000 -0.000068 -0.000471 -0.003322 -0.011801
                                -0.017834 -0.019502 -0.007679 -0.000448 -0.000081 -0.000288 -0.000450  0.001468 -0.000002  0.000316
                                 0.000000 -0.000719 -0.000000

  10.3   0    -0.0108  -13.7322 -0.000000 -0.000000 -0.000001 -0.000004 -0.000013 -0.000038 -0.000116 -0.000350 -0.001000 -0.002487
                                -0.004912 -0.005889  0.000927  0.017939  0.025656 -0.008719 -0.001542 -0.053619 -0.045694  0.047880
                                 0.113680  0.109767 -0.075219 -0.322956 -0.322184 -0.306749  0.000002  0.000017  0.000097  0.000435
                                 0.001528  0.004034  0.007487  0.008219 -0.000904 -0.019945 -0.027270 -0.010295  0.046375  0.076908
                                 0.128634  0.191960  0.217319  0.000006 -0.000000  0.000047 -0.000000  0.000224 -0.000000  0.000634
                                -0.000000  0.001507 -0.000000 -0.000478  0.000000  0.002418 -0.000000 -0.001006  0.000000  0.002939
                                -0.000000  0.001520 -0.000000 -0.000856 -0.000000 -0.004421  0.000000  0.006194  0.000000  0.001342
                                 0.000000 -0.000088  0.000000  0.000037  0.000000 -0.000135 -0.000000 -0.004306 -0.000000 -0.001057
                                -0.000000 -0.000026  0.000000 -0.000061 -0.000105  0.000000 -0.000012 -0.000297 -0.002140 -0.007185
                                -0.011304 -0.013731 -0.060539 -0.000209 -0.000048 -0.000335 -0.001777  0.003455 -0.000027  0.000389
                                 0.000000 -0.000444  0.000000

                                   1 3d2-    1 3d2-    1 3d2-    1 3d2-    1 3d2-    1 3d2-    1 3d2-    1 3d2-    1 3d2-    1 3d2- 
                                   1 3d2-    1 3d2-    1 3d2-    1 3d2-    1 3d2-    1 3d2-    1 3d2-    1 4f2-    1 4f2-    1 4f2- 
                                   1 4f2-    1 4f2-    1 4f2-    1 4f2-    1 4f2-    1 4f2-    1 4f2-    1 4f2-    1 4f2-    1 4f2- 
                                   1 4f2-    1 5g2-    1 5g4-    1 5g2-    1 5g4-    1 5g2-    1 5g4-    1 5g2-    1 5g4-    1 5g2- 
                                   1 5g4-    1 6h4-    1 6h2-    1 6h4-    1 6h2-    2 3d2-    2 3d2-    2 3d2-    2 3d2-    2 4f2- 
                                   2 4f2- 

   1.4   2   -47.5550 -272.1654  0.000090  0.000696  0.003989  0.017836  0.061330  0.159742  0.296107  0.364629  0.244043  0.069376
                                 0.005627  0.000575  0.000003  0.000041 -0.000013  0.000006 -0.000002  0.000000  0.000003  0.000009
                                 0.000003  0.000003 -0.000004  0.000002 -0.000002 -0.000001 -0.000001 -0.000000 -0.000001 -0.000000
                                 0.000000  0.000147  0.000366 -0.000083  0.000149  0.000011  0.000044 -0.000004  0.000001  0.000001
                                -0.000000 -0.000000  0.000000 -0.000000 -0.000000 -0.000000  0.000000  0.000001  0.000000  0.000000
                                -0.000001

   2.4   2    -6.4992 -110.2367 -0.000043 -0.000332 -0.001908 -0.008610 -0.029901 -0.079496 -0.145943 -0.165784 -0.000618  0.317712
                                 0.466116  0.285819  0.060743  0.001557  0.000575 -0.000226  0.000083  0.000000 -0.000000  0.000003
                                 0.000015  0.000064 -0.000062  0.000118 -0.000109  0.000222 -0.000170 -0.000138 -0.000014  0.000001
                                -0.000000  0.000532  0.001362  0.000924  0.002605 -0.000276  0.001532 -0.000059  0.000111  0.000024
                                -0.000033  0.000000  0.000028 -0.000003 -0.000034 -0.000001  0.000007 -0.000012  0.000000  0.000000
                                -0.000005

   3.4   +    -0.8911  -85.4772 -0.000000 -0.000001 -0.000007 -0.000033 -0.000115 -0.000306 -0.000562 -0.000627  0.000094  0.001500
                                 0.002136  0.000544 -0.003634 -0.007753 -0.003002  0.000190 -0.000079  0.001006  0.008586  0.038926
                                 0.115098  0.232483  0.001725  0.321907  0.003383  0.325803  0.237356  0.105732  0.018329  0.000439
                                 0.000024  0.000008 -0.000002  0.000262 -0.000001 -0.001227  0.000005 -0.002480 -0.000002  0.000722
                                 0.000000 -0.000419  0.002170  0.000063 -0.001049  0.000112  0.000591  0.000221  0.000009 -0.000137
                                -0.000104

   4.4   0     0.0308  -19.0689 -0.000005 -0.000042 -0.000245 -0.001100 -0.003854 -0.010193 -0.018880 -0.020791  0.002417  0.050026
                                 0.068910  0.025924 -0.112256 -0.211928 -0.319742 -0.199595 -0.532880 -0.000016 -0.000133 -0.000632
                                -0.001753 -0.004551  0.001667 -0.007528  0.003558 -0.007685 -0.001550 -0.001174  0.027229  0.040036
                                 0.115623  0.000182 -0.000063 -0.000017 -0.000043 -0.000133  0.000151  0.006783 -0.000033  0.010415
                                -0.000023  0.000006 -0.000066 -0.000003  0.000208 -0.000677 -0.002570 -0.004742 -0.000044  0.000298
                                 0.000701

 HOMO     19.1    -0.251153 =      -6.8342eV
 LUMO     10.3    -0.010810 =      -0.2942eV
 LUMO-HOMO         0.240342 =       6.5400eV


 **********************************************************************************************************************************
 DATASETS  * FILE   NREC   LENGTH (MB)   RECORD NAMES
              1      22       23.61       500      610      700      900      950      970     1001      129      960     1700   
                                          VAR    BASINP    GEOM    SYMINP    ZMAT    AOBASIS   BASIS     P2S    ABASIS    OPER   
                                         1101     1401     1411     1412     1650     1100     1400     1410     1200     1210   
                                          SR      EKINR    POTR     PVPR    MOLCAS      S      EKIN      POT      H0       H01  
                                         1080     1600   
                                         AOSYM     SMH  

              2       8       10.63       700     1000      520     1800     2100     2101     1001     2102   
                                         GEOM     BASIS   MCVARS    GRID      RKS      RHF     BASIS     RHF  

 PROGRAMS   *        TOTAL       RHF       INT       RHF       RKS       INT  UCCSD(T)       POP       RHF       INT       RHF
 CPU TIMES  *      5346.40      5.98    219.15      0.56      1.73    103.85    404.35      0.02      6.13    219.83      0.90
 REAL TIME  *      6170.33 SEC
 DISK USED  *        33.81 GB      
 SF USED    *         7.48 GB      
 GA USED    *         0.26 MB       (max)       0.00 MB       (current)
 **********************************************************************************************************************************
 SETTING SCF(8)         =    -11779.89325460  AU                              


 PROGRAM * POP (Mulliken population analysis)

 
 Density matrix read from record         2102.2  Type=RHF/CHARGE (state 1.2)
 
 Population analysis by basis function type

 Unique atom        s        p        d        f        g    Total    Charge
   1  TB     10.80970 24.11699 20.74914  8.04707  0.00455 63.72770  + 1.27230
   2  O       4.09013  5.15544  0.02448  0.00225  0.00000  9.27230  - 1.27230


 **********************************************************************************************************************************
 DATASETS  * FILE   NREC   LENGTH (MB)   RECORD NAMES
              1      22       23.61       500      610      700      900      950      970     1001      129      960     1700   
                                          VAR    BASINP    GEOM    SYMINP    ZMAT    AOBASIS   BASIS     P2S    ABASIS    OPER   
                                         1101     1401     1411     1412     1650     1100     1400     1410     1200     1210   
                                          SR      EKINR    POTR     PVPR    MOLCAS      S      EKIN      POT      H0       H01  
                                         1080     1600   
                                         AOSYM     SMH  

              2       8       10.63       700     1000      520     1800     2100     2101     1001     2102   
                                         GEOM     BASIS   MCVARS    GRID      RKS      RHF     BASIS     RHF  

 PROGRAMS   *        TOTAL       POP       RHF       INT       RHF       RKS       INT  UCCSD(T)       POP       RHF       INT
 CPU TIMES  *      5346.41      0.00      5.98    219.15      0.56      1.73    103.85    404.35      0.02      6.13    219.83
 REAL TIME  *      6170.42 SEC
 DISK USED  *        33.81 GB      
 SF USED    *         7.48 GB      
 GA USED    *         0.26 MB       (max)       0.00 MB       (current)
 **********************************************************************************************************************************
 SETTING _CC_NORM_MAX   =         2.00000000                                  


 PROGRAM * CCSD (Unrestricted open-shell coupled cluster)     Authors: C. Hampel, H.-J. Werner, 1991, M. Deegan, P.J. Knowles, 1992


 Input parameters for THRESH:

 THRDIS =    1.000000
 ONEINT =    1.00D-15
 TWOINT =    1.00D-15
 ENERGY =    5.00D-06
 COEFF  =    0.001000

 Convergence thresholds:  THRVAR = 1.00D-06  THRDEN = 5.00D-06

 CCSD(T)     terms to be evaluated (factor= 1.000)


 Number of core orbitals:          24 (  12   5   5   2 )
 Number of closed-shell orbitals:   9 (   4   2   3   0 )
 Number of active  orbitals:        7 (   3   2   1   1 )
 Number of external orbitals:     392 ( 156  94  94  48 )

 Memory could be reduced to 405.66 Mwords without degradation in triples

 Number of N-1 electron functions:              25
 Number of N-2 electron functions:             300
 Number of singly external CSFs:              3039
 Number of doubly external CSFs:           9013329
 Total number of CSFs:                     9016368

 Molecular orbitals read from record     2102.2  Type=RHF/CANONICAL (state 1.2)

 Integral transformation finished. Total CPU:  16.00 sec, npass=  1  Memory used:  44.61 MW

 Starting RMP2 calculation

 ITER.      SQ.NORM     CORR.ENERGY   TOTAL ENERGY   ENERGY CHANGE        DEN1      VAR(S)    VAR(P)  DIIS     TIME
   1      1.24854579    -1.06303488-11780.95628947    -1.06303488    -0.00340615  0.61D-04  0.17D-02  1  1    17.54
   2      1.25310110    -1.06674851-11780.96000311    -0.00371363    -0.00002181  0.33D-05  0.13D-04  2  2    18.39
   3      1.25347442    -1.06692331-11780.96017791    -0.00017480    -0.00000032  0.19D-06  0.11D-06  3  3    19.51
   4      1.25349637    -1.06692845-11780.96018304    -0.00000514    -0.00000001  0.12D-07  0.25D-08  4  4    20.84
   5      1.25349778    -1.06692820-11780.96018279     0.00000025    -0.00000000  0.42D-09  0.56D-10  5  5    22.24

 Norm of t1 vector:      0.05340844      S-energy:    -0.00490461      T1 diagnostic:  0.00057781
 Norm of t2 vector:      0.50064490      P-energy:    -1.06202359
                                         Alpha-Beta:  -0.64548797
                                         Alpha-Alpha: -0.32650123
                                         Beta-Beta:   -0.09003439

 Spin contamination <S**2-Sz**2-Sz>     0.00577218
  Reference energy                   -11779.8932545957    
  RHF-RMP2 correlation energy          -1.066928196043
 !RHF-RMP2 energy                    -11780.9601827917    

 Starting UCCSD calculation

 ITER.      SQ.NORM     CORR.ENERGY   TOTAL ENERGY   ENERGY CHANGE        DEN1      VAR(S)    VAR(P)  DIIS     TIME
   1      1.20308123    -0.95074627-11780.84400086    -0.95074627    -0.05153583  0.24D-01  0.94D-02  0  0    34.36
   2      1.23779680    -0.99759780-11780.89085239    -0.04685153    -0.01145355  0.15D-02  0.59D-02  1  1    45.88
   3      1.24379271    -0.98793078-11780.88118538     0.00966702    -0.00226304  0.22D-02  0.34D-03  2  2    57.79
   4      1.25935885    -0.99185779-11780.88511238    -0.00392700    -0.00068376  0.67D-03  0.10D-03  3  3    69.82
   5      1.27976986    -0.99562523-11780.88887982    -0.00376744    -0.00021728  0.25D-03  0.24D-04  4  4    81.78
   6      1.29035850    -0.99631249-11780.88956708    -0.00068726    -0.00009934  0.11D-03  0.15D-04  5  5    93.88
   7      1.30241838    -0.99701258-11780.89026717    -0.00070009    -0.00003598  0.38D-04  0.56D-05  6  6   105.86
   8      1.30940111    -0.99727021-11780.89052480    -0.00025763    -0.00001306  0.13D-04  0.24D-05  7  7   117.82
   9      1.31358705    -0.99745026-11780.89070485    -0.00018005    -0.00000345  0.25D-05  0.89D-06  8  8   130.01
  10      1.31474960    -0.99749598-11780.89075058    -0.00004573    -0.00000098  0.61D-06  0.33D-06  9  9   143.16
  11      1.31533799    -0.99752892-11780.89078351    -0.00003293    -0.00000029  0.21D-06  0.82D-07 10 10   155.92
  12      1.31545867    -0.99753274-11780.89078734    -0.00000383    -0.00000009  0.67D-07  0.23D-07 11 11   168.02

 Norm of t1 vector:      0.30852267      S-energy:    -0.00761840      T1 diagnostic:  0.03886471
                                                                       D1 diagnostic:  0.09977919
 Norm of t2 vector:      0.46933190      P-energy:    -0.98991435
                                         Alpha-Beta:  -0.62970028
                                         Alpha-Alpha: -0.28877331
                                         Beta-Beta:   -0.07144076

 Singles amplitudes (print threshold =  0.500E-01):

         I         SYM. A    A   T(IA) [Alpha-Alpha]

         4         1         5     -0.05498623
         4         1        11     -0.05624266
         4         1        17      0.05000684
         7         1         4     -0.08174516
         7         1         5      0.06828775
         7         1         7      0.06020318
         9         2         3     -0.05168483
         9         2         6     -0.08913403
         9         2         9      0.07598295
        14         3         2      0.05168483
        14         3         5     -0.08913402
        14         3         8      0.07598295

 Spin contamination <S**2-Sz**2-Sz>     0.05441948

 Memory could be reduced to 421.51 Mwords without degradation in triples
 

 RESULTS
 =======

  Reference energy                   -11779.8932545957    
  UCCSD singles energy                 -0.007618397693
  UCCSD pair energy                    -0.989914346048
  UCCSD correlation energy             -0.997532743742
  Triples (T) contribution             -0.054292415001
  Total correlation energy             -1.051825158742
 
  RHF-UCCSD energy                   -11780.8907873394    
  RHF-UCCSD[T] energy                -11780.9578223228    
  RHF-UCCSD-T energy                 -11780.9424687338    
 !RHF-UCCSD(T) energy                -11780.9450797544    

 Program statistics:

 Available memory in ccsd:               999997692
 Min. memory needed in ccsd:              26627381
 Max. memory used in ccsd:                38006636
 Max. memory used in cckext:              33388260 (12 integral passes)
 Max. memory used in cckint:              44613093 ( 1 integral passes)



 **********************************************************************************************************************************
 DATASETS  * FILE   NREC   LENGTH (MB)   RECORD NAMES
              1      22       23.61       500      610      700      900      950      970     1001      129      960     1700   
                                          VAR    BASINP    GEOM    SYMINP    ZMAT    AOBASIS   BASIS     P2S    ABASIS    OPER   
                                         1101     1401     1411     1412     1650     1100     1400     1410     1200     1210   
                                          SR      EKINR    POTR     PVPR    MOLCAS      S      EKIN      POT      H0       H01  
                                         1080     1600   
                                         AOSYM     SMH  

              2       8       10.63       700     1000      520     1800     2100     2101     1001     2102   
                                         GEOM     BASIS   MCVARS    GRID      RKS      RHF     BASIS     RHF  

 PROGRAMS   *        TOTAL  UCCSD(T)       POP       RHF       INT       RHF       RKS       INT  UCCSD(T)       POP       RHF
 CPU TIMES  *      5748.46    401.79      0.00      5.98    219.15      0.56      1.73    103.85    404.35      0.02      6.13
 REAL TIME  *      6657.17 SEC
 DISK USED  *        33.81 GB      
 SF USED    *         7.48 GB      
 GA USED    *         0.26 MB       (max)       0.00 MB       (current)
 **********************************************************************************************************************************
 SETTING CCSD(8)        =    -11780.94507975  AU                              
                                                                                                                                                                                                                                                                

      Z          SCF            CCSD
    1.4   -11779.72219   -11780.77415
    1.5   -11779.83393   -11780.88188
    1.6   -11779.89854   -11780.94403
    1.7   -11779.93049   -11780.97471
    1.8   -11779.93968   -11780.98384
    1.9   -11779.93326   -11780.97866
    2.0   -11779.91651   -11780.96448
    2.1   -11779.89325   -11780.94508
                                                  

 UCCSD(T)/USERDEF energy= -11780.945079754398

        UCCSD(T)        RHF-SCF         RHF-SCF         RKS-SCF         UCCSD(T)        RHF-SCF         RHF-SCF         RKS-SCF 
 -11780.94507975 -11779.89325460 -11779.88780335 -11784.18732220 -11780.96447950 -11779.91651098 -11779.91130644 -11784.21015684
 **********************************************************************************************************************************
 Molpro calculation terminated
 Variable memory released
