<?xml version="1.0"?>
<molpro xmlns="http://www.molpro.net/schema/molpro-output"
  xmlns:xsd="http://www.w3.org/1999/XMLSchema"
  xmlns:cml="http://www.xml-cml.org/schema"
  xmlns:stm="http://www.xml-cml.org/schema"
  xmlns:xhtml="http://www.w3.org/1999/xhtml">
 <!--

 Nodes     nprocs
 nid13025    11
 Number of processes for MPI-2 version of Molpro:   nprocs(total)=   12   nprocs(compute)=   11   nprocs(helper)=    1

 Using customized tuning parameters: mindgm=7; mindgv=16; mindgc=1; mindgr=1; noblas=0; minvec=7
 default implementation of scratch files=sf

 --><job>
  <!--

 Variables initialized (889), CPU time= 0.02 sec
 Commands  initialized (702), CPU time= 0.01 sec, 572 directives.
 Default parameters read. Elapsed time= 0.11 sec

 Checking input...
 Passed
1


                                         ***  PROGRAM SYSTEM MOLPRO  ***
                                       Copyright, TTI GmbH Stuttgart, 2015
                                    Version 2015.1 linked Dec 29 2018 15:55:43


 **********************************************************************************************************************************
 LABEL *   Calculation for Lu atom, singlet and triplet
  64 bit mpp version                                                                     DATE: 31-Mar-23          TIME: 18:09:38
 **********************************************************************************************************************************

 SHA1:             19cd028119e0e09f93f0674bd8af7968d9b3eff6
 **********************************************************************************************************************************
  -->
  <!--

 THRESHOLDS:

 ZERO    =  1.00D-12  ONEINT  =  1.00D-12  TWOINT  =  1.00D-15  PREFAC  =  1.00D-14  LOCALI  =  1.00D-09  EORDER  =  1.00D-04
 ENERGY  =  0.00D+00  ETEST   =  0.00D+00  EDENS   =  0.00D+00  THRDEDEF=  1.00D-06  GRADIENT=  1.00D-02  STEP    =  1.00D-03
 ORBITAL =  1.00D-05  CIVEC   =  1.00D-05  COEFF   =  1.00D-04  PRINTCI =  5.00D-02  PUNCHCI =  9.90D+01  OPTGRAD =  3.00D-04
 OPTENERG=  1.00D-06  OPTSTEP =  3.00D-04  THRGRAD =  1.00D-10  COMPRESS=  1.00D-11  VARMIN  =  1.00D-07  VARMAX  =  1.00D-03
 THRDOUB =  0.00D+00  THRDIV  =  1.00D-05  THRRED  =  1.00D-07  THRPSP  =  1.00D+00  THRDC   =  1.00D-10  THRCS   =  1.00D-10
 THRNRM  =  1.00D-08  THREQ   =  0.00D+00  THRDE   =  1.00D+00  THRREF  =  1.00D-05  SPARFAC =  1.00D+00  THRDLP  =  1.00D-07
 THRDIA  =  1.00D-10  THRDLS  =  1.00D-07  THRGPS  =  0.00D+00  THRKEX  =  0.00D+00  THRDIS  =  2.00D-01  THRVAR  =  1.00D-10
 THRLOC  =  1.00D-06  THRGAP  =  1.00D-06  THRLOCT = -1.00D+00  THRGAPT = -1.00D+00  THRORB  =  1.00D-06  THRMLTP =  0.00D+00
 THRCPQCI=  1.00D-10  KEXTA   =  0.00D+00  THRCOARS=  0.00D+00  SYMTOL  =  1.00D-06  GRADTOL =  1.00D-06  THROVL  =  1.00D-08
 THRORTH =  1.00D-08  GRID    =  1.00D-06  GRIDMAX =  1.00D-03  DTMAX   =  0.00D+00  THROCCDE=  1.00D-01  THROCCDE=  1.00D-01



 THRESHOLDS:

 ZERO    =  1.00D-12  ONEINT  =  1.00D-15  TWOINT  =  1.00D-15  PREFAC  =  1.00D-14  LOCALI  =  1.00D-09  EORDER  =  1.00D-04
 ENERGY  =  0.00D+00  ETEST   =  0.00D+00  EDENS   =  0.00D+00  THRDEDEF=  1.00D-06  GRADIENT=  1.00D-02  STEP    =  1.00D-03
 ORBITAL =  1.00D-05  CIVEC   =  1.00D-05  COEFF   =  1.00D-04  PRINTCI =  5.00D-02  PUNCHCI =  9.90D+01  OPTGRAD =  3.00D-04
 OPTENERG=  1.00D-06  OPTSTEP =  3.00D-04  THRGRAD =  1.00D-10  COMPRESS=  1.00D-11  VARMIN  =  1.00D-07  VARMAX  =  1.00D-03
 THRDOUB =  0.00D+00  THRDIV  =  1.00D-05  THRRED  =  1.00D-07  THRPSP  =  1.00D+00  THRDC   =  1.00D-10  THRCS   =  1.00D-10
 THRNRM  =  1.00D-08  THREQ   =  0.00D+00  THRDE   =  1.00D+00  THRREF  =  1.00D-05  SPARFAC =  1.00D+00  THRDLP  =  1.00D-07
 THRDIA  =  1.00D-10  THRDLS  =  1.00D-07  THRGPS  =  0.00D+00  THRKEX  =  0.00D+00  THRDIS  =  2.00D-01  THRVAR  =  1.00D-10
 THRLOC  =  1.00D-06  THRGAP  =  1.00D-06  THRLOCT = -1.00D+00  THRGAPT = -1.00D+00  THRORB  =  1.00D-06  THRMLTP =  0.00D+00
 THRCPQCI=  1.00D-10  KEXTA   =  0.00D+00  THRCOARS=  0.00D+00  SYMTOL  =  1.00D-06  GRADTOL =  1.00D-06  THROVL  =  1.00D-08
 THRORTH =  1.00D-08  GRID    =  1.00D-06  GRIDMAX =  1.00D-03  DTMAX   =  0.00D+00  THROCCDE=  1.00D-01  THROCCDE=  1.00D-01



Geometry recognized as XYZ


 Variable memory set to 1000000000 words,  buffer space   230000 words

 SETTING BASIS          =    USERDEF

 DO I                   =        17.00000000

 Running procedure=IIIEF2
  --><jobstep command="RHF-SCF" commandset="SCFPRO">
   <!--


 Recomputing integrals since basis changed


 Using spherical harmonics



 PROGRAM * SEWARD (Integral evaluation for generally contracted gaussian basis sets)     Author: Roland Lindh, 1990

 Geometry written to block  1 of record 700

 Orientation using atomic masses
 Molecule type: Atom
 Symmetry elements: X,Y,Z
 Rotational constants:       0.0000000      0.0000000      0.0000000 GHz  (calculated with average atomic masses)

 Point group  D2h


   --><cml:molecule>
    <cml:symmetry pointGroup="D2h"/>
    <cml:atomArray>
     <cml:atom id="a1" elementType="Lu" x3="0.0" y3="0.0" z3="0.0"/>
    </cml:atomArray>
    <cml:bondArray>
    </cml:bondArray>
   </cml:molecule><!--

 ATOMIC COORDINATES

 NR  ATOM    CHARGE       X              Y              Z

   1  LU     25.00    0.000000000    0.000000000    0.000000000

 NUCLEAR CHARGE:                   25
 NUMBER OF PRIMITIVE AOS:         581
 NUMBER OF SYMMETRY AOS:          442
 NUMBER OF CONTRACTIONS:          442   ( 103Ag  +  70B3u +  70B2u +  36B1g +  70B1u +  36B2g +  36B3g +  21Au  )
 NUMBER OF CORE ORBITALS:           0   (   0Ag  +   0B3u +   0B2u +   0B1g +   0B1u +   0B2g +   0B3g +   0Au  )
 NUMBER OF VALENCE ORBITALS:       17   (   4Ag  +   3B3u +   3B2u +   1B1g +   3B1u +   1B2g +   1B3g +   1Au  )


 NUCLEAR REPULSION ENERGY    0.00000000

 EXTRA SYMMETRY OF AOS IN SYMMETRY 1:   1 1 1 1 1 1 1 1 1 1   1 1 1 1 1 1 1 1 1 1   1 1 1 1 1 1 1 1 1 1   1 1 1 1 1 1 1 1 2 3
                                        2 3 2 3 2 3 2 3 2 3   2 3 2 3 2 3 2 3 2 3   2 3 2 3 2 3 2 3 2 3   2 3 2 3 2 3 2 3 2 3
                                        2 3 4 5 6 4 5 6 4 5   6 4 5 6 4 5 6 4 5 6   4 5 6
 EXTRA SYMMETRY OF AOS IN SYMMETRY 2:   1 1 1 1 1 1 1 1 1 1   1 1 1 1 1 1 1 1 1 1   1 1 1 1 1 1 1 1 1 1   1 2 3 2 3 2 3 2 3 2
                                        3 2 3 2 3 2 3 2 3 2   3 2 3 2 3 2 3 2 3 2   3 4 5 6 4 5 6 4 5 6
 EXTRA SYMMETRY OF AOS IN SYMMETRY 3:   1 1 1 1 1 1 1 1 1 1   1 1 1 1 1 1 1 1 1 1   1 1 1 1 1 1 1 1 1 1   1 2 3 2 3 2 3 2 3 2
                                        3 2 3 2 3 2 3 2 3 2   3 2 3 2 3 2 3 2 3 2   3 4 5 6 4 5 6 4 5 6
 EXTRA SYMMETRY OF AOS IN SYMMETRY 4:   1 1 1 1 1 1 1 1 1 1   1 1 1 1 1 1 1 1 1 1   1 1 2 3 2 3 2 3 2 3   2 3 2 3 2 3
 EXTRA SYMMETRY OF AOS IN SYMMETRY 5:   1 1 1 1 1 1 1 1 1 1   1 1 1 1 1 1 1 1 1 1   1 1 1 1 1 1 1 1 1 1   1 2 3 2 3 2 3 2 3 2
                                        3 2 3 2 3 2 3 2 3 2   3 2 3 2 3 2 3 2 3 2   3 4 5 6 4 5 6 4 5 6
 EXTRA SYMMETRY OF AOS IN SYMMETRY 6:   1 1 1 1 1 1 1 1 1 1   1 1 1 1 1 1 1 1 1 1   1 1 2 3 2 3 2 3 2 3   2 3 2 3 2 3
 EXTRA SYMMETRY OF AOS IN SYMMETRY 7:   1 1 1 1 1 1 1 1 1 1   1 1 1 1 1 1 1 1 1 1   1 1 2 3 2 3 2 3 2 3   2 3 2 3 2 3
 EXTRA SYMMETRY OF AOS IN SYMMETRY 8:   1 1 1 1 1 1 1 1 1 1   1 1 1 1 1 2 3 2 3 2   3

 Eigenvalues of metric

         1 0.333E-06 0.964E-06 0.340E-05 0.186E-04 0.475E-04 0.703E-04 0.799E-04 0.799E-04
         2 0.960E-06 0.179E-05 0.251E-04 0.110E-03 0.525E-03 0.525E-03 0.534E-03 0.156E-02
         3 0.960E-06 0.179E-05 0.251E-04 0.110E-03 0.525E-03 0.525E-03 0.534E-03 0.156E-02
         4 0.799E-04 0.144E-03 0.223E-02 0.632E-02 0.897E-02 0.238E-01 0.240E-01 0.240E-01
         5 0.960E-06 0.179E-05 0.251E-04 0.110E-03 0.525E-03 0.525E-03 0.534E-03 0.156E-02
         6 0.799E-04 0.144E-03 0.223E-02 0.632E-02 0.897E-02 0.238E-01 0.240E-01 0.240E-01
         7 0.799E-04 0.144E-03 0.223E-02 0.632E-02 0.897E-02 0.238E-01 0.240E-01 0.240E-01
         8 0.525E-03 0.142E-01 0.219E-01 0.528E-01 0.103E+00 0.167E+00 0.268E+00 0.268E+00


 Contracted 2-electron integrals neglected if value below      1.0D-15
 AO integral compression algorithm  1   Integral accuracy      1.0D-15

     3531.604 MB (compressed) written to integral file ( 42.0%)

     Node minimum: 157.549 MB, node maximum: 449.577 MB


 NUMBER OF SORTED TWO-ELECTRON INTEGRALS:   55864608.     BUFFER LENGTH:  32768
 NUMBER OF SEGMENTS:   2  SEGMENT LENGTH:   31978830      RECORD LENGTH: 524288

 Memory used in sort:      32.54 MW

 SORT1 READ  1050599776. AND WROTE    32116883. INTEGRALS IN     93 RECORDS. CPU TIME:    25.80 SEC, REAL TIME:    30.08 SEC
 SORT2 READ   352987961. AND WROTE   613618504. INTEGRALS IN  14234 RECORDS. CPU TIME:     1.44 SEC, REAL TIME:     2.27 SEC

 Node minimum:    55639389.  Node maximum:    55868715. integrals

 OPERATOR DM      FOR CENTER  0  COORDINATES:    0.000000    0.000000    0.000000


 **********************************************************************************************************************************
 DATASETS  * FILE   NREC   LENGTH (MB)   RECORD NAMES
              1      19       21.26       500      610      700      900      950      970     1000      129      960     1100
                                          VAR    BASINP    GEOM    SYMINP    ZMAT    AOBASIS   BASIS     P2S    ABASIS      S
                                         1400     1410     1420     1200     1210     1080     1600     1650     1700
                                           T        V       ECP      H0       H01     AOSYM     SMH    MOLCAS    OPER

 PROGRAMS   *        TOTAL       INT
 CPU TIMES  *       158.30    157.90
 REAL TIME  *       165.74 SEC
 DISK USED  *         7.80 GB
 GA USED    *         0.00 MB       (max)       0.00 MB       (current)
 **********************************************************************************************************************************


 PROGRAM * RHF-SCF (OPEN SHELL)       Authors: W. Meyer, H.-J. Werner


 NUMBER OF ELECTRONS:      13+   11-    SPACE SYMMETRY=4    SPIN SYMMETRY: Triplet
 CONVERGENCE THRESHOLDS:    1.00E-05 (Density)    1.00E-07 (Energy)
 MAX. NUMBER OF ITERATIONS:       60
 INTERPOLATION TYPE:            DIIS
 INTERPOLATION STEPS:              2 (START)      1 (STEP)
 LEVEL SHIFTS:                 -0.60 (CLOSED) -0.30 (OPEN)

 Number of closed-shell orbitals:   11 (   1   3   3   0   3   0   0   1 )
 Number of open-shell orbitals:      2 (   0   1   1   0   0   0   0   0 )



 Extra symmetries of mos in symmetry 2:   1   3   2   3   2
 Extra symmetries of mos in symmetry 3:   1   3   2   3   2
 Extra symmetries of mos in symmetry 5:   1   3   2   3   2
 Guess basis ATOMIC-GUESS,LU=ECP46_GUESS not found. No density guess!


 Molecular orbital dump at record        4202.2

 ITERATION    DDIFF          GRAD             ENERGY        2-EL.EN.            DIPOLE MOMENTS         DIIS   ORB.
    1      0.000D+00      0.000D+00      -139.18936294    475.701703    0.00000    0.00000    0.00000    0    start
    2      0.000D+00      0.324D+00      -109.49660006    107.767927    0.00000    0.00000    0.00000    0    diag,B
    3      0.482D+00      0.219D+00      -161.45425811    419.881003    0.00000    0.00000    0.00000    1    diag,B
    4      0.436D+00      0.208D+00      -178.88210467    330.689576    0.00000    0.00000    0.00000    2    diag,B
    5      0.781D-01      0.343D-01      -180.20058038    299.637735    0.00000    0.00000    0.00000    3    diag,B
    6      0.220D-01      0.150D-01      -180.36320004    296.855398    0.00000    0.00000    0.00000    4    diag,B
    7      0.595D-02      0.752D-02      -180.42833665    297.507708    0.00000    0.00000    0.00000    5    fixocc
    8      0.457D-02      0.137D-02      -174.00301193    330.796179    0.00000    0.00000    0.00000    6    diag,B
    9      0.121D+00      0.234D-01      -174.02264546    330.250039    0.00000    0.00000    0.00000    7    diag,B
   10      0.612D-02      0.225D-01      -174.05535179    329.455852    0.00000    0.00000    0.00000    8    orth
     Orbital  4.2 strongly deviates from fixed occupation: 0.89958  (now: 1.00)
     Note:  Use {hf,nitord=N} to fix occupations at iteration N
            Use {gthresh,occdev=1.0} to suppress deviation warnings
   11      0.337D-01      0.212D-01      -174.06299058    329.000180    0.00000    0.00000    0.00000    9    diag,B
   12      0.537D-01      0.206D-01      -174.07039075    328.778219    0.00000    0.00000    0.00000    9    diag,B
   13      0.247D-01      0.203D-01      -174.07200973    328.695762    0.00000    0.00000    0.00000    9    diag,B
   14      0.869D-02      0.201D-01      -174.07610598    328.542395    0.00000    0.00000    0.00000    9    diag,B
   15      0.267D-01      0.199D-01      -174.08361778    328.317963    0.00000    0.00000    0.00000    9    diag,B
   16      0.136D-01      0.196D-01      -174.08467877    328.257874    0.00000    0.00000    0.00000    9    diag,B
   17      0.702D-01      0.196D-01      -177.41528835    312.587783    0.00000    0.00000    0.00000    9    diag,B
   18      0.111D+00      0.965D-02      -177.41067670    312.782949    0.00000    0.00000    0.00000    9    diag,B
   19      0.297D-01      0.992D-02      -177.41098534    312.803968    0.00000    0.00000    0.00000    9    diag,B
   20      0.338D-01      0.993D-02      -180.46283494    296.814692    0.00000    0.00000    0.00000    9    orth
   21      0.924D-01      0.233D-02      -180.43988448    297.109088    0.00000    0.00000    0.00000    9    diag,B
   22      0.148D-02      0.151D-02      -180.41917362    297.854537    0.00000    0.00000    0.00000    9    diag,B
   23      0.220D-02      0.176D-02      -180.04595833    300.273847    0.00000    0.00000    0.00000    9    diag,B
   24      0.177D+00      0.272D-02      -180.05936399    298.661206    0.00000    0.00000    0.00000    9    diag,B
   25      0.716D-01      0.283D-02      -179.36694232    307.107878    0.00000    0.00000    0.00000    9    diag,B
   26      0.206D+00      0.661D-02      -180.04694959    300.465576    0.00000    0.00000    0.00000    9    diag,B
   27      0.127D+00      0.283D-02      -180.05661683    300.207178    0.00000    0.00000    0.00000    9    diag,B
     Orbital  4.3 strongly deviates from fixed occupation: 0.87468  (now: 1.00)
   28      0.689D-02      0.268D-02      -180.08255752    299.841283    0.00000    0.00000    0.00000    9    diag,B
     Orbital  4.3 strongly deviates from fixed occupation: 0.89251  (now: 1.00)
   29      0.232D-01      0.308D-02      -174.00248841    330.792702    0.00000    0.00000    0.00000    9    diag,B
   30      0.170D+00      0.231D-01      -173.96766026    331.725355    0.00000    0.00000    0.00000    9    orth
   31      0.249D-01      0.247D-01      -173.97775787    331.449874    0.00000    0.00000    0.00000    9    diag,B
   32      0.116D-01      0.243D-01      -173.96576351    331.787337    0.00000    0.00000    0.00000    9    diag,B
   33      0.461D-01      0.248D-01      -173.97219778    331.709084    0.00000    0.00000    0.00000    9    diag,B
   34      0.203D-01      0.246D-01      -173.97134233    331.774418    0.00000    0.00000    0.00000    9    diag,B
   35      0.190D-01      0.247D-01      -173.97180619    331.773263    0.00000    0.00000    0.00000    9    diag,B
   36      0.511D-02      0.247D-01      -173.97131100    331.776226    0.00000    0.00000    0.00000    9    diag,B
   37      0.466D-02      0.247D-01      -173.97233380    331.782079    0.00000    0.00000    0.00000    9    diag,B
   38      0.105D-01      0.247D-01      -173.97201843    331.779834    0.00000    0.00000    0.00000    9    diag,B
   39      0.977D-02      0.247D-01      -173.97142996    331.778359    0.00000    0.00000    0.00000    9    diag,B
   40      0.727D-02      0.247D-01      -173.97129771    331.776050    0.00000    0.00000    0.00000    9    orth
   41      0.970D-02      0.247D-01      -173.97034448    331.772356    0.00000    0.00000    0.00000    9    diag,B
   42      0.798D-02      0.247D-01      -173.97141131    331.773245    0.00000    0.00000    0.00000    9    diag,B


 ?APPARENTLY NO CONVERGENCE, EXIT AFTER THREE FURTHER ITERATIONS


   43      0.119D-01      0.247D-01      -173.97057430    331.769602    0.00000    0.00000    0.00000    9    diag,B
   44      0.563D-02      0.247D-01      -173.97172869    331.775659    0.00000    0.00000    0.00000    9    orth
   45      0.861D-02      0.247D-01      -174.14325850    306.636738    0.00000    0.00000    0.00000    0    orth

 Final alpha occupancy:   1   4   4   0   3   0   0   1
 Final beta  occupancy:   1   3   3   0   3   0   0   1

 !RHF STATE 1.4 Energy               -174.143258495846
   --><property name="Energy" method="RHF" principal="true" stateSymmetry="4" stateNumber="1"
     value="-174.143258495846"/><!--
 Nuclear energy                         0.00000000
 One-electron energy                 -327.46162761
 Two-electron energy                  153.31836912
 Virial quotient                       -1.68688809
 !RHF STATE 1.4 Dipole moment           0.00000000     0.00000000     0.00000000
 Dipole moment /Debye                   0.00000000     0.00000000     0.00000000
   --><property name="Dipole moment" method="RHF" principal="true" stateSymmetry="4"
     stateNumber="1" value="0.0 0.0 0.0"/><!--

 ELECTRON ORBITALS
 =================


   Orb  Occ    Energy  Couls-En    Coefficients

                                   1 1s      1 1s      1 1s      1 1s      1 1s      1 1s      1 1s      1 1s      1 1s      1 1s
                                   1 1s      1 1s      1 1s      1 1s      1 1s      1 1s      1 1s      1 1s      1 1s      1 1s
                                   1 1s      1 1s      1 1s      1 1s      1 1s      1 1s      1 1s      1 1s      1 1s      1 1s
                                   1 1s      1 1s      1 1s      1 1s      1 1s      1 1s      1 1s      1 1s      1 3d0     1 3d2+
                                   1 3d0     1 3d2+    1 3d0     1 3d2+    1 3d0     1 3d2+    1 3d0     1 3d2+    1 3d0     1 3d2+
                                   1 3d0     1 3d2+    1 3d0     1 3d2+    1 3d0     1 3d2+    1 3d0     1 3d2+    1 3d0     1 3d2+
                                   1 3d0     1 3d2+    1 3d0     1 3d2+    1 3d0     1 3d2+    1 3d0     1 3d2+    1 3d0     1 3d2+
                                   1 3d0     1 3d2+    1 3d0     1 3d2+    1 3d0     1 3d2+    1 3d0     1 3d2+    1 3d0     1 3d2+
                                   1 3d0     1 3d2+    1 5g0     1 5g4+    1 5g2+    1 5g0     1 5g4+    1 5g2+    1 5g0     1 5g4+
                                   1 5g2+    1 5g0     1 5g4+    1 5g2+    1 5g0     1 5g4+    1 5g2+    1 5g0     1 5g4+    1 5g2+
                                   1 5g0     1 5g4+    1 5g2+

   1.1   2    -2.5627  -18.8379 -0.000000  0.000000 -0.000000  0.000000 -0.000000  0.000000 -0.000000  0.000000 -0.000000  0.000001
                                -0.000002  0.000004 -0.000012  0.000042 -0.000249 -0.000888  0.000739 -0.001417  0.003907  0.000806
                                -0.017737  0.173475 -0.258859  0.071776  0.423207 -0.799118 -0.436382  1.066764  0.492820  0.067864
                                -0.039392  0.060068 -0.092048  0.069657 -0.027746  0.010769 -0.002795  0.000500  0.000000  0.000000
                                -0.000000 -0.000000  0.000000  0.000000 -0.000001 -0.000000  0.000004  0.000001 -0.000014 -0.000003
                                 0.000042  0.000009 -0.000133 -0.000028  0.000668  0.000140 -0.001700 -0.000365  0.001688  0.000379
                                -0.001168 -0.000288 -0.001392 -0.000664  0.012662  0.004916  0.005513  0.001999 -0.000754 -0.000539
                                 0.002604  0.001814 -0.003703 -0.002590  0.001838  0.001291 -0.000365 -0.000256  0.000132  0.000092
                                -0.000035 -0.000025 -0.000002 -0.000000 -0.000003  0.000014  0.000001  0.000019 -0.000553 -0.000076
                                -0.000704 -0.000752 -0.000083 -0.000914  0.000717  0.000082  0.000877 -0.000279 -0.000033 -0.000344
                                 0.000091  0.000011  0.000112

   2.1   0    -0.2575  -11.3317  0.000000 -0.000000  0.000000 -0.000000  0.000000 -0.000000  0.000000 -0.000000  0.000000 -0.000001
                                 0.000002 -0.000004  0.000011 -0.000038  0.000211  0.000694 -0.000501  0.000766 -0.001518 -0.000656
                                 0.004385 -0.027900  0.038387 -0.020105 -0.003964  0.023667  0.025900 -0.052970 -0.049707  0.012496
                                 0.015903  0.088231 -0.060267  0.062445 -0.022509  0.009360 -0.002553  0.000474 -0.000000  0.000000
                                 0.000001 -0.000000 -0.000005  0.000000  0.000020 -0.000001 -0.000071  0.000003  0.000223 -0.000010
                                -0.000668  0.000031  0.002112 -0.000098 -0.010514  0.000494  0.026133 -0.001273 -0.025161  0.001340
                                 0.024557 -0.002486 -0.110197  0.017858  0.333253 -0.059221  0.519852 -0.092948  0.309696 -0.061111
                                 0.022922  0.014299  0.075349 -0.041685 -0.019041  0.018292  0.006647 -0.004476 -0.002049  0.001641
                                 0.000530 -0.000458  0.000078 -0.000012  0.000001 -0.000122  0.000046  0.000024  0.004362 -0.000407
                                 0.000382  0.023400 -0.002142  0.002315 -0.017932  0.001844 -0.001456  0.011239 -0.001163  0.000959
                                -0.003610  0.000403 -0.000254

   3.1   0    -0.2208  -11.1929  0.000000 -0.000000  0.000000 -0.000000  0.000000 -0.000000  0.000000 -0.000000  0.000000 -0.000000
                                 0.000001 -0.000002  0.000007 -0.000022  0.000123  0.000404 -0.000292  0.000449 -0.000900 -0.000381
                                 0.002658 -0.017485  0.024264 -0.012139 -0.006400  0.021952  0.018363 -0.042372 -0.037623  0.002710
                                 0.013570  0.070965 -0.031040  0.048100 -0.013375  0.006121 -0.001680  0.000313 -0.000000 -0.000000
                                 0.000000  0.000001 -0.000002 -0.000007  0.000008  0.000030 -0.000028 -0.000106  0.000090  0.000336
                                -0.000268 -0.001006  0.000848  0.003183 -0.004215 -0.015829  0.010403  0.039168 -0.009823 -0.037265
                                 0.007604  0.031907 -0.022700 -0.117306  0.059424  0.333082  0.092001  0.516961  0.045849  0.289425
                                 0.042969  0.135153 -0.041423 -0.070656  0.027209  0.066662 -0.004969 -0.008799  0.002103  0.004322
                                -0.000615 -0.001301 -0.000018  0.000031  0.000024  0.000197 -0.000022  0.000115  0.000840  0.001924
                                 0.003001  0.006100  0.011455  0.017937 -0.003049 -0.008403 -0.012218  0.002148  0.005587  0.008115
                                -0.000386 -0.001650 -0.002251

                                   1 2px     1 2px     1 2px     1 2px     1 2px     1 2px     1 2px     1 2px     1 2px     1 2px
                                   1 2px     1 2px     1 2px     1 2px     1 2px     1 2px     1 2px     1 2px     1 2px     1 2px
                                   1 2px     1 2px     1 2px     1 2px     1 2px     1 2px     1 2px     1 2px     1 2px     1 2px
                                   1 2px     1 4f1+    1 4f3+    1 4f1+    1 4f3+    1 4f1+    1 4f3+    1 4f1+    1 4f3+    1 4f1+
                                   1 4f3+    1 4f1+    1 4f3+    1 4f1+    1 4f3+    1 4f1+    1 4f3+    1 4f1+    1 4f3+    1 4f1+
                                   1 4f3+    1 4f1+    1 4f3+    1 4f1+    1 4f3+    1 4f1+    1 4f3+    1 4f1+    1 4f3+    1 4f1+
                                   1 4f3+    1 6h1+    1 6h3+    1 6h5+    1 6h1+    1 6h3+    1 6h5+    1 6h1+    1 6h3+    1 6h5+


   1.2   2    -1.6248  -16.3941  0.000000 -0.000000  0.000000 -0.000000  0.000000 -0.000000  0.000001 -0.000003  0.000010 -0.000030
                                 0.000087 -0.000243  0.000671 -0.002043  0.007565 -0.063131  0.154511 -0.301783  0.549245 -0.542293
                                -0.094325  0.698739 -0.014856  0.487055  0.096484  0.051810 -0.006298 -0.095122  0.001852 -0.000754
                                 0.000162  0.000000  0.000000 -0.000002 -0.000000  0.000011  0.000002 -0.000050 -0.000011  0.000467
                                 0.000118 -0.000797 -0.000184  0.001816  0.000709  0.002193  0.001247  0.005726  0.002467  0.009626
                                 0.006232  0.003810  0.001120  0.000476  0.000840 -0.000149 -0.000566  0.000057  0.000268 -0.000016
                                -0.000084 -0.000008 -0.000055 -0.000013 -0.000084 -0.000293 -0.000011 -0.000082 -0.000229 -0.000036

   2.2   2     0.0118  -13.3229 -0.000000  0.000000 -0.000000  0.000000 -0.000000  0.000000 -0.000000  0.000000 -0.000000  0.000000
                                -0.000000  0.000001 -0.000002  0.000006 -0.000021  0.000137 -0.000282 -0.000263  0.002710 -0.003345
                                -0.003271  0.007206 -0.000069  0.006164  0.003522  0.001593 -0.000275 -0.003588  0.000107 -0.000049
                                 0.000012 -0.000001 -0.000010  0.000004  0.000068 -0.000019 -0.000331  0.000095  0.001613 -0.001122
                                -0.016998  0.001613  0.026689 -0.008718 -0.100557 -0.016686 -0.169444 -0.024829 -0.284274 -0.043008
                                -0.417111 -0.025086 -0.298695 -0.017165 -0.150389  0.006431  0.046978 -0.003474 -0.026114  0.001117
                                 0.008549 -0.000193 -0.000831 -0.000586 -0.000428 -0.001851 -0.001359 -0.000768 -0.003173 -0.002204

   3.2   2    -0.0419  -13.3915  0.000000 -0.000000  0.000000 -0.000000  0.000000 -0.000000  0.000000 -0.000000  0.000000 -0.000000
                                 0.000000  0.000000 -0.000000  0.000001 -0.000009  0.000146 -0.000455  0.002246 -0.007869  0.009097
                                 0.005821 -0.019270  0.005298 -0.020490 -0.129217  0.008940  0.014346  0.127771 -0.002758  0.001170
                                -0.000260  0.000012 -0.000001 -0.000079  0.000010  0.000386 -0.000049 -0.001869  0.000233  0.019144
                                -0.002288 -0.030772  0.003804  0.104064 -0.010649  0.166830 -0.015212  0.293811 -0.029914  0.402715
                                -0.035037  0.311786 -0.032670  0.137014 -0.010164 -0.038917  0.001719  0.021612 -0.001096 -0.007126
                                 0.000382  0.001046  0.000167 -0.000046  0.002350  0.000403 -0.000112  0.003645  0.000554 -0.000149

   4.2   +     3.2909   -6.5263  0.000000 -0.000000  0.000000 -0.000000  0.000000 -0.000000  0.000001 -0.000002  0.000007 -0.000022
                                 0.000064 -0.000179  0.000494 -0.001490  0.005412 -0.044034  0.105834 -0.173851  0.200082 -0.122365
                                 0.090640 -0.363282  0.568375 -0.325378  1.216884  0.083524 -0.056137 -1.205890  0.026393 -0.011092
                                 0.002424 -0.000055 -0.000169  0.000375  0.001146 -0.001802 -0.005502  0.008402  0.025657 -0.072249
                                -0.220636  0.131087  0.400203 -0.157260 -0.480906  0.006277  0.017565 -0.338233 -1.034402  0.599034
                                 1.827146 -0.417557 -1.266412  0.317810  0.961938 -0.268917 -0.813998  0.132666  0.401749 -0.042774
                                -0.129583  0.000859  0.001193  0.000227 -0.009240 -0.014300 -0.005021  0.048978  0.077666  0.030441

   5.2   0    -0.0227   -2.1538 -0.000000  0.000000 -0.000000  0.000000 -0.000000  0.000000 -0.000000  0.000000 -0.000000  0.000000
                                -0.000000  0.000000 -0.000001  0.000004 -0.000015  0.000122 -0.000297  0.000535 -0.000799  0.000662
                                -0.000056  0.000019 -0.000943  0.000011 -0.290781 -0.000621  0.003696  0.300517 -0.036259  0.066625
                                -0.039954 -0.000000  0.000000  0.000003 -0.000000 -0.000013  0.000002  0.000058 -0.000007 -0.000384
                                 0.000048  0.000825 -0.000102  0.001314 -0.000158  0.005528 -0.000676  0.005485 -0.000695  0.014390
                                -0.001863 -0.003631  0.000450  0.068978 -0.008888 -0.202818  0.026327  0.302131 -0.038959 -1.154051
                                 0.149542  0.000024  0.000004 -0.000002  0.000085  0.000014 -0.000007  0.000023  0.000002 -0.000002

   6.2   0    -0.1004   -4.2889 -0.000000  0.000000 -0.000000  0.000000 -0.000000  0.000000 -0.000000  0.000000 -0.000002  0.000005
                                -0.000014  0.000040 -0.000111  0.000337 -0.001244  0.010363 -0.025283  0.047828 -0.082750  0.080921
                                 0.003610 -0.089440 -0.004036 -0.093099  0.933996 -0.034611  0.228138 -0.332010  0.307590 -0.024045
                                 0.008794 -0.000000 -0.000000  0.000001  0.000000 -0.000007 -0.000001  0.000033  0.000005 -0.000332
                                -0.000045  0.000547  0.000074 -0.001609 -0.000223 -0.002353 -0.000311 -0.004596 -0.000655 -0.006216
                                -0.000961 -0.003092  0.000594  0.003260  0.003786  0.005638  0.003541  0.006529  0.004588  0.002317
                                 0.001332 -0.000014 -0.000003 -0.000000 -0.000013  0.000054 -0.000006 -0.000087 -0.000148 -0.000019

                                   1 2py     1 2py     1 2py     1 2py     1 2py     1 2py     1 2py     1 2py     1 2py     1 2py
                                   1 2py     1 2py     1 2py     1 2py     1 2py     1 2py     1 2py     1 2py     1 2py     1 2py
                                   1 2py     1 2py     1 2py     1 2py     1 2py     1 2py     1 2py     1 2py     1 2py     1 2py
                                   1 2py     1 4f1-    1 4f3-    1 4f1-    1 4f3-    1 4f1-    1 4f3-    1 4f1-    1 4f3-    1 4f1-
                                   1 4f3-    1 4f1-    1 4f3-    1 4f1-    1 4f3-    1 4f1-    1 4f3-    1 4f1-    1 4f3-    1 4f1-
                                   1 4f3-    1 4f1-    1 4f3-    1 4f1-    1 4f3-    1 4f1-    1 4f3-    1 4f1-    1 4f3-    1 4f1-
                                   1 4f3-    1 6h1-    1 6h3-    1 6h5-    1 6h1-    1 6h3-    1 6h5-    1 6h1-    1 6h3-    1 6h5-


   1.3   2    -1.5949  -16.3573  0.000000 -0.000000  0.000000 -0.000000  0.000000 -0.000000  0.000001 -0.000003  0.000009 -0.000029
                                 0.000085 -0.000237  0.000654 -0.001993  0.007385 -0.061706  0.151209 -0.296694  0.543321 -0.538303
                                -0.094979  0.694018 -0.010164  0.485259  0.105844  0.053562 -0.006720 -0.104410  0.002066 -0.000847
                                 0.000183  0.000000 -0.000000 -0.000003  0.000000  0.000016 -0.000000 -0.000075  0.000001  0.000704
                                 0.000014 -0.001202  0.000009  0.002706  0.000524  0.003144  0.001359  0.008872  0.002205  0.013972
                                 0.007623  0.005916  0.000511  0.000721  0.001505 -0.000217 -0.001114  0.000086  0.000534 -0.000024
                                -0.000168 -0.000090 -0.000070  0.000001 -0.000249 -0.000263 -0.000055 -0.000311 -0.000244 -0.000011

   2.3   2     0.0132  -13.3141 -0.000000  0.000000 -0.000000  0.000000 -0.000000  0.000000 -0.000000  0.000000 -0.000000  0.000000
                                -0.000001  0.000003 -0.000008  0.000024 -0.000083  0.000642 -0.001492  0.001618  0.000881 -0.002474
                                -0.004341  0.008389  0.000442  0.006912  0.002511  0.002041 -0.000443 -0.002693  0.000110 -0.000055
                                 0.000014 -0.000001 -0.000010  0.000004  0.000069 -0.000019 -0.000334  0.000095  0.001630 -0.001176
                                -0.017126  0.001636  0.026944 -0.009906 -0.100551 -0.019542 -0.168672 -0.028182 -0.284276 -0.050828
                                -0.414917 -0.028325 -0.299919 -0.020540 -0.150501  0.007939  0.047259 -0.004270 -0.026074  0.001363
                                 0.008628 -0.000257 -0.000835 -0.000584 -0.000567 -0.001864 -0.001357 -0.001021 -0.003174 -0.002201

   3.3   2    -0.0278  -13.3637  0.000000 -0.000000  0.000000 -0.000000  0.000000 -0.000000  0.000000 -0.000000  0.000000 -0.000001
                                 0.000002 -0.000006  0.000017 -0.000052  0.000183 -0.001404  0.003250 -0.003348 -0.003036  0.007367
                                 0.009399 -0.022393 -0.000118 -0.021703 -0.136422  0.007142  0.014672  0.135047 -0.002971  0.001269
                                -0.000283  0.000011 -0.000002 -0.000078  0.000012  0.000380 -0.000060 -0.001840  0.000285  0.018889
                                -0.002775 -0.030296  0.004637  0.103437 -0.012538  0.166623 -0.017431  0.291788 -0.035230  0.402713
                                -0.039670  0.310661 -0.038837  0.140079 -0.011561 -0.040027  0.001715  0.022339 -0.001086 -0.007378
                                 0.000421  0.001409  0.000170 -0.000056  0.003200  0.000414 -0.000122  0.005024  0.000566 -0.000215

   4.3   +     3.2907   -6.5177  0.000000 -0.000000  0.000000 -0.000000  0.000000 -0.000000  0.000000 -0.000002  0.000005 -0.000017
                                 0.000050 -0.000140  0.000385 -0.001162  0.004224 -0.034403  0.082746 -0.136013  0.156493 -0.095857
                                 0.072020 -0.283356  0.438323 -0.249020  0.887331  0.062104 -0.041090 -0.879314  0.019269 -0.008108
                                 0.001774 -0.000076 -0.000160  0.000518  0.001088 -0.002485 -0.005222  0.011589  0.024353 -0.099645
                                -0.209423  0.180804  0.379854 -0.216888 -0.456475  0.008653  0.016644 -0.466444 -0.981809  0.826358
                                 1.733856 -0.576691 -1.201510  0.439134  0.912220 -0.371587 -0.771881  0.183309  0.380967 -0.059099
                                -0.122885  0.001137  0.001175  0.000190 -0.013272 -0.014633 -0.004710  0.072080  0.080636  0.029010

   5.3   0    -0.0223   -2.1472 -0.000000  0.000000 -0.000000  0.000000 -0.000000  0.000000 -0.000000  0.000000 -0.000000  0.000000
                                -0.000000  0.000000 -0.000001  0.000004 -0.000013  0.000111 -0.000274  0.000534 -0.000943  0.000912
                                 0.000008 -0.000217 -0.001380 -0.000340 -0.294393 -0.000814  0.004602  0.308344 -0.033728  0.060161
                                -0.035306 -0.000000  0.000000  0.000003 -0.000001 -0.000014  0.000003  0.000060 -0.000011 -0.000403
                                 0.000076  0.000857 -0.000161  0.001238 -0.000230  0.005435 -0.001016  0.005258 -0.001024  0.014140
                                -0.002779 -0.003815  0.000725  0.069287 -0.013588 -0.201624  0.039857  0.307444 -0.060368 -1.147610
                                 0.226395  0.000031  0.000003 -0.000002  0.000114  0.000011 -0.000009  0.000030  0.000000 -0.000002

   6.3   0    -0.0966   -4.1753  0.000000 -0.000000  0.000000 -0.000000  0.000000 -0.000000  0.000000 -0.000000  0.000002 -0.000005
                                 0.000015 -0.000041  0.000112 -0.000341  0.001259 -0.010475  0.025540 -0.047889  0.081116 -0.078088
                                -0.001450  0.076485  0.014053  0.080882 -0.677195  0.038070 -0.200890  0.082512 -0.335529  0.018428
                                -0.008899  0.000000  0.000000 -0.000002 -0.000000  0.000010  0.000001 -0.000049 -0.000006  0.000466
                                 0.000057 -0.000787 -0.000095  0.001952  0.000253  0.002454  0.000319  0.005480  0.000721  0.006543
                                 0.000926  0.003256 -0.000517 -0.005798 -0.003732 -0.008494 -0.003732 -0.010229 -0.004876 -0.003878
                                -0.001639  0.000019  0.000003  0.000001  0.000015 -0.000035 -0.000012  0.000239  0.000150  0.000007

                                   1 3d2-    1 3d2-    1 3d2-    1 3d2-    1 3d2-    1 3d2-    1 3d2-    1 3d2-    1 3d2-    1 3d2-
                                   1 3d2-    1 3d2-    1 3d2-    1 3d2-    1 3d2-    1 3d2-    1 3d2-    1 3d2-    1 3d2-    1 3d2-
                                   1 3d2-    1 3d2-    1 5g2-    1 5g4-    1 5g2-    1 5g4-    1 5g2-    1 5g4-    1 5g2-    1 5g4-
                                   1 5g2-    1 5g4-    1 5g2-    1 5g4-    1 5g2-    1 5g4-

   1.4   0    -0.2216  -11.2183 -0.000000  0.000001 -0.000007  0.000029 -0.000103  0.000325 -0.000971  0.003071 -0.015277  0.037820
                                -0.036027  0.031319 -0.118225  0.338700  0.525818  0.297648  0.125201 -0.053783  0.057954 -0.006873
                                 0.003571 -0.001086  0.000037  0.000016  0.000036  0.000056  0.003052  0.001721  0.017909  0.010917
                                -0.012735 -0.007392  0.008419  0.005013 -0.002442 -0.001380

   2.4   0    -0.0511   -2.4518  0.000000 -0.000000  0.000001 -0.000004  0.000013 -0.000040  0.000119 -0.000376  0.001871 -0.004632
                                 0.004416 -0.003920  0.015453 -0.045077 -0.072597 -0.047170  0.007758 -0.012783  0.135645  0.407891
                                 0.470057  0.113626 -0.000004 -0.000002 -0.000007 -0.000009 -0.000382 -0.000220 -0.002734 -0.001752
                                 0.003223  0.002073 -0.001760 -0.001121  0.006916  0.004749

                                   1 2pz     1 2pz     1 2pz     1 2pz     1 2pz     1 2pz     1 2pz     1 2pz     1 2pz     1 2pz
                                   1 2pz     1 2pz     1 2pz     1 2pz     1 2pz     1 2pz     1 2pz     1 2pz     1 2pz     1 2pz
                                   1 2pz     1 2pz     1 2pz     1 2pz     1 2pz     1 2pz     1 2pz     1 2pz     1 2pz     1 2pz
                                   1 2pz     1 4f0     1 4f2+    1 4f0     1 4f2+    1 4f0     1 4f2+    1 4f0     1 4f2+    1 4f0
                                   1 4f2+    1 4f0     1 4f2+    1 4f0     1 4f2+    1 4f0     1 4f2+    1 4f0     1 4f2+    1 4f0
                                   1 4f2+    1 4f0     1 4f2+    1 4f0     1 4f2+    1 4f0     1 4f2+    1 4f0     1 4f2+    1 4f0
                                   1 4f2+    1 6h2+    1 6h4+    1 6h0     1 6h2+    1 6h4+    1 6h0     1 6h2+    1 6h4+    1 6h0


   1.5   2    -1.6739  -16.4512  0.000000 -0.000000  0.000000 -0.000000  0.000000 -0.000000  0.000001 -0.000003  0.000010 -0.000031
                                 0.000091 -0.000253  0.000699 -0.002128  0.007873 -0.065576  0.160196 -0.310613  0.559545 -0.549207
                                -0.092879  0.707450 -0.025571  0.490624  0.084007  0.050234 -0.005725 -0.082754  0.001570 -0.000632
                                 0.000135  0.000000  0.000000 -0.000003 -0.000000  0.000014  0.000002 -0.000068 -0.000011  0.000631
                                 0.000105 -0.001081 -0.000173  0.002388  0.000498  0.002822  0.000794  0.007287  0.001360  0.012031
                                 0.003263  0.004804  0.000751  0.000431  0.000224 -0.000025 -0.000105 -0.000001  0.000049  0.000002
                                -0.000015 -0.000041  0.000002 -0.000021 -0.000453 -0.000043 -0.000372 -0.000264 -0.000013 -0.000219

   2.5   2    -0.0096  -13.3251 -0.000000  0.000000 -0.000000  0.000000 -0.000000  0.000000 -0.000000  0.000000 -0.000000  0.000001
                                -0.000002  0.000005 -0.000013  0.000040 -0.000148  0.001271 -0.003142  0.006302 -0.011223  0.009837
                                 0.003437 -0.014276  0.006095 -0.015172 -0.059826  0.003170  0.007466  0.059280 -0.001294  0.000549
                                -0.000122  0.000005  0.000011 -0.000033 -0.000073  0.000160  0.000356 -0.000775 -0.001721  0.007918
                                 0.017609 -0.012735 -0.028307  0.042733  0.095222  0.068087  0.151971  0.120721  0.268743  0.164219
                                 0.366722  0.129714  0.288172  0.058989  0.129089 -0.016274 -0.035817  0.009280  0.020412 -0.003074
                                -0.006738  0.001131  0.000325  0.000720  0.002561  0.000783  0.001626  0.004121  0.001117  0.002664

   3.5   2    -0.0423  -13.3871  0.000000 -0.000000  0.000000 -0.000000  0.000000 -0.000000  0.000000 -0.000000  0.000000 -0.000000
                                 0.000000 -0.000001  0.000003 -0.000010  0.000042 -0.000427  0.001143 -0.003581  0.010207 -0.011210
                                -0.006451  0.023068 -0.007680  0.024633  0.153774 -0.010870 -0.019257 -0.152435  0.003354 -0.001429
                                 0.000318 -0.000011  0.000005  0.000073 -0.000033 -0.000357  0.000160  0.001728 -0.000776 -0.017674
                                 0.007935  0.028450 -0.012767 -0.095489  0.042972 -0.152460  0.068738 -0.269640  0.121225 -0.367534
                                 0.165822 -0.286815  0.128630 -0.125675  0.055471  0.035267 -0.015639 -0.019648  0.008721  0.006488
                                -0.002868  0.000184  0.000133 -0.001084  0.000389  0.000315 -0.002448  0.000655  0.000444 -0.003783

   4.5   0    -0.0220   -2.1418  0.000000 -0.000000  0.000000 -0.000000  0.000000 -0.000000  0.000000 -0.000000  0.000000 -0.000000
                                 0.000000 -0.000001  0.000002 -0.000005  0.000018 -0.000152  0.000369 -0.000655  0.000947 -0.000756
                                 0.000042  0.000289  0.000433  0.000273  0.287996  0.000608 -0.003560 -0.299048  0.037668 -0.065142
                                 0.037385  0.000000  0.000000 -0.000001 -0.000003  0.000006  0.000013 -0.000026 -0.000056  0.000173
                                 0.000377 -0.000366 -0.000799 -0.000516 -0.001136 -0.002288 -0.005018 -0.002225 -0.004872 -0.005994
                                -0.013144  0.001611  0.003527 -0.029868 -0.065024  0.085908  0.187672 -0.133540 -0.291154  0.489248
                                 1.067874 -0.000025 -0.000008 -0.000015 -0.000092 -0.000031 -0.000058 -0.000029 -0.000009 -0.000017

   5.5   0    -0.0227   -2.1538 -0.000000  0.000000 -0.000000  0.000000 -0.000000  0.000000 -0.000000  0.000000 -0.000000  0.000000
                                -0.000000  0.000001 -0.000002  0.000005 -0.000018  0.000152 -0.000368  0.000653 -0.000940  0.000749
                                -0.000087  0.000103 -0.001108  0.000142 -0.370311 -0.000738  0.004541  0.381528 -0.047455  0.086772
                                -0.051907 -0.000000  0.000000  0.000003 -0.000001 -0.000012  0.000006  0.000053 -0.000024 -0.000349
                                 0.000162  0.000749 -0.000347  0.001210 -0.000551  0.005064 -0.002322  0.005052 -0.002300  0.013211
                                -0.006056 -0.003275  0.001529  0.063253 -0.028904 -0.185838  0.085226  0.276652 -0.126655 -1.057603
                                 0.484680 -0.000004 -0.000003  0.000025 -0.000014 -0.000013  0.000090 -0.000006 -0.000003  0.000023

                                   1 3d1+    1 3d1+    1 3d1+    1 3d1+    1 3d1+    1 3d1+    1 3d1+    1 3d1+    1 3d1+    1 3d1+
                                   1 3d1+    1 3d1+    1 3d1+    1 3d1+    1 3d1+    1 3d1+    1 3d1+    1 3d1+    1 3d1+    1 3d1+
                                   1 3d1+    1 3d1+    1 5g1+    1 5g3+    1 5g1+    1 5g3+    1 5g1+    1 5g3+    1 5g1+    1 5g3+
                                   1 5g1+    1 5g3+    1 5g1+    1 5g3+    1 5g1+    1 5g3+

   1.6   0    -0.2532  -11.3430 -0.000000  0.000001 -0.000005  0.000020 -0.000070  0.000220 -0.000659  0.002085 -0.010379  0.025806
                                -0.024868  0.024557 -0.111874  0.339604  0.529025  0.316093  0.023015  0.079303 -0.020052  0.007199
                                -0.002232  0.000581  0.000081  0.000042 -0.000186 -0.000154  0.003889  0.001379  0.020421  0.007062
                                -0.016240 -0.006120  0.010166  0.003873 -0.003348 -0.001341

   2.6   0    -0.0529   -2.5330 -0.000000  0.000000 -0.000001  0.000002 -0.000008  0.000025 -0.000074  0.000234 -0.001165  0.002900
                                -0.002806  0.002937 -0.014465  0.045010  0.072970  0.050422 -0.037295  0.044195 -0.178571 -0.427951
                                -0.441779 -0.090288  0.000010  0.000005 -0.000022 -0.000019  0.000487  0.000181  0.003089  0.001149
                                -0.003923 -0.001524  0.002059  0.000854 -0.007993 -0.003003

                                   1 3d1-    1 3d1-    1 3d1-    1 3d1-    1 3d1-    1 3d1-    1 3d1-    1 3d1-    1 3d1-    1 3d1-
                                   1 3d1-    1 3d1-    1 3d1-    1 3d1-    1 3d1-    1 3d1-    1 3d1-    1 3d1-    1 3d1-    1 3d1-
                                   1 3d1-    1 3d1-    1 5g1-    1 5g3-    1 5g1-    1 5g3-    1 5g1-    1 5g3-    1 5g1-    1 5g3-
                                   1 5g1-    1 5g3-    1 5g1-    1 5g3-    1 5g1-    1 5g3-

   1.7   0    -0.2402  -11.2650 -0.000000  0.000001 -0.000004  0.000018 -0.000064  0.000204 -0.000610  0.001928 -0.009601  0.023896
                                -0.023091  0.023440 -0.109973  0.335295  0.523787  0.319815  0.029860  0.079866 -0.017657  0.007927
                                -0.002434  0.000639  0.000118  0.000050 -0.000288 -0.000191  0.005437  0.001540  0.029331  0.007858
                                -0.023362 -0.006962  0.014835  0.004428 -0.004850 -0.001544

   2.7   0    -0.0522   -2.5018 -0.000000  0.000000 -0.000000  0.000002 -0.000007  0.000023 -0.000069  0.000219 -0.001090  0.002716
                                -0.002637  0.002844 -0.014393  0.044908  0.072788  0.051348 -0.031340  0.041466 -0.167049 -0.419599
                                -0.453624 -0.098636  0.000015  0.000007 -0.000035 -0.000025  0.000697  0.000205  0.004509  0.001274
                                -0.005603 -0.001667  0.003003  0.000968 -0.010935 -0.003075

                                   1 4f2-    1 4f2-    1 4f2-    1 4f2-    1 4f2-    1 4f2-    1 4f2-    1 4f2-    1 4f2-    1 4f2-
                                   1 4f2-    1 4f2-    1 4f2-    1 4f2-    1 4f2-    1 6h4-    1 6h2-    1 6h4-    1 6h2-    1 6h4-
                                   1 6h2-

   1.8   2    -0.0160  -13.3418  0.000012 -0.000080  0.000390 -0.001887  0.019308 -0.031041  0.104475  0.166872  0.294769  0.402654
                                 0.315438  0.140325 -0.039045  0.022173 -0.007312  0.000352  0.001096  0.000834  0.002475  0.001232
                                 0.003967

   2.8   0    -0.0221   -2.1444  0.000000 -0.000003  0.000014 -0.000061  0.000410 -0.000872 -0.001262 -0.005533 -0.005385 -0.014479
                                 0.003848 -0.071120  0.206102 -0.317285  1.172618 -0.000009 -0.000024 -0.000032 -0.000089 -0.000009
                                -0.000029

   3.8   0     0.0458   -2.6972  0.000003 -0.000021  0.000103 -0.000480  0.004246 -0.007482  0.012233  0.008673  0.028880  0.015828
                                 0.061670 -0.219119  0.602720 -2.081572  1.317229  0.000025  0.000073  0.000101  0.000267  0.000016
                                 0.000063

 HOMO      4.2     3.290866 =      89.5490eV
 LUMO      2.1    -0.257487 =      -7.0066eV
 LUMO-HOMO        -3.548353 =     -96.5556eV

 No convergence



 **********************************************************************************************************************************
 DATASETS  * FILE   NREC   LENGTH (MB)   RECORD NAMES
              1      19       21.31       500      610      700      900      950      970     1000      129      960     1100
                                          VAR    BASINP    GEOM    SYMINP    ZMAT    AOBASIS   BASIS     P2S    ABASIS      S
                                         1400     1410     1420     1200     1210     1080     1600     1650     1700
                                           T        V       ECP      H0       H01     AOSYM     SMH    MOLCAS    OPER

              2       5        6.25       200      700     1000      520     4202
                                        OPTIONS   GEOM     BASIS   MCVARS     RHF

 PROGRAMS   *        TOTAL       RHF       INT
 CPU TIMES  *       166.10      7.79    157.90
 REAL TIME  *       174.44 SEC
 DISK USED  *         8.15 GB
 SF USED    *         0.12 MB
 GA USED    *         0.00 MB       (max)       0.00 MB       (current)
 **********************************************************************************************************************************
   -->
   <time start="18:09:38" end="18:12:32" cpu="166.1" system="7.65" real="174.44"/>
   <storage units="megabyte" memory="8001.84" sf="0.12" df="352.05" eaf="7795.49" ga="0.0"/>
  </jobstep><!--
  --><jobstep command="POP" commandset="POP">
   <!--


 PROGRAM * POP (Mulliken population analysis)


 Density matrix read from record         4202.2  Type=RHF/CHARGE (state 1.4)

 Population analysis by basis function type

 Unique atom        s        p        d        f        g    Total    Charge
   1  LU      1.99944  6.00198  0.00056 15.98018  0.00000 24.00000  + 1.00000


 **********************************************************************************************************************************
 DATASETS  * FILE   NREC   LENGTH (MB)   RECORD NAMES
              1      19       21.31       500      610      700      900      950      970     1000      129      960     1100
                                          VAR    BASINP    GEOM    SYMINP    ZMAT    AOBASIS   BASIS     P2S    ABASIS      S
                                         1400     1410     1420     1200     1210     1080     1600     1650     1700
                                           T        V       ECP      H0       H01     AOSYM     SMH    MOLCAS    OPER

              2       5        6.25       200      700     1000      520     4202
                                        OPTIONS   GEOM     BASIS   MCVARS     RHF

 PROGRAMS   *        TOTAL       POP       RHF       INT
 CPU TIMES  *       166.11      0.01      7.79    157.90
 REAL TIME  *       174.45 SEC
 DISK USED  *         8.15 GB
 SF USED    *         0.12 MB
 GA USED    *         0.00 MB       (max)       0.00 MB       (current)
 **********************************************************************************************************************************
   -->
   <time start="18:12:32" end="18:12:32" cpu="0.01" system="0.01" real="0.01"/>
   <storage units="megabyte" memory="8001.84" sf="0.12" df="352.05" eaf="7795.49" ga="0.0"/>
  </jobstep><!--
  --><jobstep command="RHF-SCF" commandset="SCFPRO">
   <!--


 PROGRAM * RHF-SCF (OPEN SHELL)       Authors: W. Meyer, H.-J. Werner


 NUMBER OF ELECTRONS:      13+   11-    SPACE SYMMETRY=4    SPIN SYMMETRY: Triplet
 CONVERGENCE THRESHOLDS:    1.00E-05 (Density)    1.00E-07 (Energy)
 MAX. NUMBER OF ITERATIONS:        0
 INTERPOLATION TYPE:            DIIS
 INTERPOLATION STEPS:              2 (START)      1 (STEP)
 LEVEL SHIFTS:                 -0.60 (CLOSED) -0.30 (OPEN)

 Number of closed-shell orbitals:   11 (   1   3   3   0   3   0   0   1 )
 Number of open-shell orbitals:      2 (   0   1   1   0   0   0   0   0 )


 Molecular orbitals read from record     4202.2  Type=RHF/CANONICAL (state 1.4)

 Molecular orbital dump at record        2114.2

 ITERATION    DDIFF          GRAD             ENERGY        2-EL.EN.            DIPOLE MOMENTS         DIIS   ORB.
    1      0.000D+00      0.000D+00      -174.14325850    306.636738    0.00000    0.00000    0.00000    0    start

 Final alpha occupancy:   1   4   4   0   3   0   0   1
 Final beta  occupancy:   1   3   3   0   3   0   0   1

 !RHF STATE 1.4 Energy               -174.143258495846
   --><property name="Energy" method="RHF" principal="true" stateSymmetry="4" stateNumber="1"
     value="-174.143258495846"/><!--
 Nuclear energy                         0.00000000
 One-electron energy                 -327.46162761
 Two-electron energy                  153.31836912
 Virial quotient                       -1.68688809
 !RHF STATE 1.4 Dipole moment           0.00000000     0.00000000     0.00000000
 Dipole moment /Debye                   0.00000000     0.00000000     0.00000000
   --><property name="Dipole moment" method="RHF" principal="true" stateSymmetry="4"
     stateNumber="1" value="0.0 0.0 0.0"/><!--

 Orbital energies:

         1.1          2.1          3.1
     -2.562672    -0.257487    -0.220786

         1.2          2.2          3.2          4.2          5.2          6.2
     -1.624776     0.011833    -0.041870     3.290866    -0.022716    -0.100406

         1.3          2.3          3.3          4.3          5.3          6.3
     -1.594881     0.013185    -0.027774     3.290708    -0.022316    -0.096624

         1.4          2.4
     -0.221560    -0.051119

         1.5          2.5          3.5          4.5          5.5
     -1.673913    -0.009573    -0.042326    -0.021991    -0.022734

         1.6          2.6
     -0.253156    -0.052927

         1.7          2.7
     -0.240181    -0.052219

         1.8          2.8          3.8
     -0.015987    -0.022126     0.045832

 HOMO      4.2     3.290866 =      89.5490eV
 LUMO      2.1    -0.257487 =      -7.0066eV
 LUMO-HOMO        -3.548353 =     -96.5556eV


 **********************************************************************************************************************************
 DATASETS  * FILE   NREC   LENGTH (MB)   RECORD NAMES
              1      19       21.31       500      610      700      900      950      970     1000      129      960     1100
                                          VAR    BASINP    GEOM    SYMINP    ZMAT    AOBASIS   BASIS     P2S    ABASIS      S
                                         1400     1410     1420     1200     1210     1080     1600     1650     1700
                                           T        V       ECP      H0       H01     AOSYM     SMH    MOLCAS    OPER

              2       6        9.95       200      700     1000      520     4202     2114
                                        OPTIONS   GEOM     BASIS   MCVARS     RHF      RHF

 PROGRAMS   *        TOTAL       RHF       POP       RHF       INT
 CPU TIMES  *       166.36      0.25      0.01      7.79    157.90
 REAL TIME  *       174.77 SEC
 DISK USED  *         8.15 GB
 SF USED    *         0.12 MB
 GA USED    *         0.00 MB       (max)       0.00 MB       (current)
 **********************************************************************************************************************************
   -->
   <time start="18:12:32" end="18:12:32" cpu="0.25" system="0.04" real="0.32"/>
   <storage units="megabyte" memory="8001.84" sf="0.12" df="352.05" eaf="7795.49" ga="0.0"/>
  </jobstep><!--
 SETTING SCF(17)        =      -174.14325850  AU
 SETTING _CC_NORM_MAX   =         2.00000000
  --><jobstep command="RCCSD(T)" commandset="CCSD">
   <!--


 PROGRAM * CCSD (Restricted open-shell coupled cluster)     Authors: C. Hampel, H.-J. Werner, 1991, M. Deegan, P.J. Knowles, 1992


 Convergence thresholds:  THRVAR = 1.00D-08  THRDEN = 1.00D-06

 CCSD(T)     terms to be evaluated (factor= 1.000)


 Number of closed-shell orbitals:  11 (   1   3   3   0   3   0   0   1 )
 Number of active  orbitals:        2 (   0   1   1   0   0   0   0   0 )
 Number of external orbitals:     429 ( 102  66  66  36  67  36  36  20 )

 Memory could be reduced to 216.92 Mwords without degradation in triples

 Number of N-1 electron functions:              24
 Number of N-2 electron functions:             276
 Number of singly external CSFs:              1584
 Number of doubly external CSFs:           4913060
 Total number of CSFs:                     4914644

 Molecular orbitals read from record     2114.2  Type=RHF/CANONICAL (state 1.4)

 Integral transformation finished. Total CPU:   6.55 sec, npass=  1  Memory used:  42.30 MW

 Starting RMP2 calculation

 Wavefunction is spin-projected


 UNREASONABLE NORM:297.456139 CALCULATION WILL BE STOPPED

 The threshold can be changed using option CC_NORM_MAX (see manual). The current value is CC_NORM_MAX=2.00

 Norm of t1 vector:      0.57472028      S-energy:    -0.12213602      T1 diagnostic:  0.08287556
 Norm of t2 vector:     17.20830716      P-energy:    -3.28430294
                                         Alpha-Beta:  -2.09832077
                                         Alpha-Alpha: -0.74664922
                                         Beta-Beta:   -0.43933294

 Singles amplitudes (print threshold =  0.500E-01):

         I         SYM. A    A   T(IA) [Alpha-Alpha]

         3         2        18      0.06307633
         4         2        17      0.05801003
         5         2        15      0.05334517
         5         2        17      0.21399226
         5         2        18     -0.22969163
         7         3        17     -0.05059280
         7         3        18     -0.05483630
         8         3        17      0.05433856
         9         3        15     -0.05085126
         9         3        17      0.26180695
         9         3        18      0.16746627
        11         5        17      0.06493952
        12         5        16     -0.06544980
        13         8         5      0.06555874

         I         SYM. A    A   T(IA) [Beta-Beta]

         3         2        18      0.05072214
         4         2        17      0.05454462
        11         5        17      0.06314802
        12         5        16     -0.06420060
        13         8         5      0.06346169

 Spin contamination <S**2-Sz**2-Sz>     0.00000000


 RESULTS
 =======

  Reference energy                   -174.143258495846
   --><property name="energy" method="Reference" stateSymmetry="1" stateNumber="1"
     value="-174.143258495846"/><!--
  RCCSD singles energy                 -0.122136019152
   --><property name="energy" method="RCCSD singles" stateSymmetry="1" stateNumber="1"
     value="-0.122136019152347"/><!--
  RCCSD pair energy                    -3.284302940386
   --><property name="energy" method="RCCSD pair" stateSymmetry="1" stateNumber="1"
     value="-3.2843029403859"/><!--
  RCCSD correlation energy             -3.406438959538
   --><property name="energy" method="RCCSD correlation" stateSymmetry="1" stateNumber="1"
     value="-3.40643895953825"/><!--

 !RHF-RCCSD energy                   -177.549697455384
   --><property name="energy" method="RHF-RCCSD" principal="true" stateSymmetry="1"
     stateNumber="1" value="-177.549697455384"/><!--

 Program statistics:

 Available memory in ccsd:               999998418
 Min. memory needed in ccsd:              13698222
 Max. memory used in ccsd:                19821983
 Max. memory used in cckext:                     0 ( 0 integral passes)
 Max. memory used in cckint:              42299598 ( 1 integral passes)


 ? Error
 ? No convergence. This error exit can be avoided using the NOCHECK option
 ? The problem occurs in ccsd
   --><error type="Error" location="ccsd"
     message="No convergence. This error exit can be avoided using the NOCHECK option"/><!--
  --></jobstep><!--
  -->
  <input>
  <!--
 --></job><!--
--></molpro>
