<?xml version="1.0"?>
<molpro xmlns="http://www.molpro.net/schema/molpro-output"
  xmlns:xsd="http://www.w3.org/1999/XMLSchema"
  xmlns:cml="http://www.xml-cml.org/schema"
  xmlns:stm="http://www.xml-cml.org/schema"
  xmlns:xhtml="http://www.w3.org/1999/xhtml">
 <!--

 Nodes     nprocs
 nid12902    11
 Number of processes for MPI-2 version of Molpro:   nprocs(total)=   12   nprocs(compute)=   11   nprocs(helper)=    1

 Using customized tuning parameters: mindgm=7; mindgv=16; mindgc=1; mindgr=1; noblas=0; minvec=7
 default implementation of scratch files=sf

 --><job>
  <!--

 Variables initialized (889), CPU time= 0.02 sec
 Commands  initialized (702), CPU time= 0.01 sec, 572 directives.
 Default parameters read. Elapsed time= 0.14 sec

 Checking input...
 Passed
1


                                         ***  PROGRAM SYSTEM MOLPRO  ***
                                       Copyright, TTI GmbH Stuttgart, 2015
                                    Version 2015.1 linked Dec 29 2018 15:55:43


 **********************************************************************************************************************************
 LABEL *   Calculation for Lu atom, singlet and triplet
  64 bit mpp version                                                                     DATE: 17-Apr-23          TIME: 12:16:14
 **********************************************************************************************************************************

 SHA1:             19cd028119e0e09f93f0674bd8af7968d9b3eff6
 **********************************************************************************************************************************
  -->
  <!--

 THRESHOLDS:

 ZERO    =  1.00D-12  ONEINT  =  1.00D-12  TWOINT  =  1.00D-15  PREFAC  =  1.00D-14  LOCALI  =  1.00D-09  EORDER  =  1.00D-04
 ENERGY  =  0.00D+00  ETEST   =  0.00D+00  EDENS   =  0.00D+00  THRDEDEF=  1.00D-06  GRADIENT=  1.00D-02  STEP    =  1.00D-03
 ORBITAL =  1.00D-05  CIVEC   =  1.00D-05  COEFF   =  1.00D-04  PRINTCI =  5.00D-02  PUNCHCI =  9.90D+01  OPTGRAD =  3.00D-04
 OPTENERG=  1.00D-06  OPTSTEP =  3.00D-04  THRGRAD =  1.00D-10  COMPRESS=  1.00D-11  VARMIN  =  1.00D-07  VARMAX  =  1.00D-03
 THRDOUB =  0.00D+00  THRDIV  =  1.00D-05  THRRED  =  1.00D-07  THRPSP  =  1.00D+00  THRDC   =  1.00D-10  THRCS   =  1.00D-10
 THRNRM  =  1.00D-08  THREQ   =  0.00D+00  THRDE   =  1.00D+00  THRREF  =  1.00D-05  SPARFAC =  1.00D+00  THRDLP  =  1.00D-07
 THRDIA  =  1.00D-10  THRDLS  =  1.00D-07  THRGPS  =  0.00D+00  THRKEX  =  0.00D+00  THRDIS  =  2.00D-01  THRVAR  =  1.00D-10
 THRLOC  =  1.00D-06  THRGAP  =  1.00D-06  THRLOCT = -1.00D+00  THRGAPT = -1.00D+00  THRORB  =  1.00D-06  THRMLTP =  0.00D+00
 THRCPQCI=  1.00D-10  KEXTA   =  0.00D+00  THRCOARS=  0.00D+00  SYMTOL  =  1.00D-06  GRADTOL =  1.00D-06  THROVL  =  1.00D-08
 THRORTH =  1.00D-08  GRID    =  1.00D-06  GRIDMAX =  1.00D-03  DTMAX   =  0.00D+00  THROCCDE=  1.00D-01  THROCCDE=  1.00D-01



 THRESHOLDS:

 ZERO    =  1.00D-12  ONEINT  =  1.00D-15  TWOINT  =  1.00D-15  PREFAC  =  1.00D-14  LOCALI  =  1.00D-09  EORDER  =  1.00D-04
 ENERGY  =  0.00D+00  ETEST   =  0.00D+00  EDENS   =  0.00D+00  THRDEDEF=  1.00D-06  GRADIENT=  1.00D-02  STEP    =  1.00D-03
 ORBITAL =  1.00D-05  CIVEC   =  1.00D-05  COEFF   =  1.00D-04  PRINTCI =  5.00D-02  PUNCHCI =  9.90D+01  OPTGRAD =  3.00D-04
 OPTENERG=  1.00D-06  OPTSTEP =  3.00D-04  THRGRAD =  1.00D-10  COMPRESS=  1.00D-11  VARMIN  =  1.00D-07  VARMAX  =  1.00D-03
 THRDOUB =  0.00D+00  THRDIV  =  1.00D-05  THRRED  =  1.00D-07  THRPSP  =  1.00D+00  THRDC   =  1.00D-10  THRCS   =  1.00D-10
 THRNRM  =  1.00D-08  THREQ   =  0.00D+00  THRDE   =  1.00D+00  THRREF  =  1.00D-05  SPARFAC =  1.00D+00  THRDLP  =  1.00D-07
 THRDIA  =  1.00D-10  THRDLS  =  1.00D-07  THRGPS  =  0.00D+00  THRKEX  =  0.00D+00  THRDIS  =  2.00D-01  THRVAR  =  1.00D-10
 THRLOC  =  1.00D-06  THRGAP  =  1.00D-06  THRLOCT = -1.00D+00  THRGAPT = -1.00D+00  THRORB  =  1.00D-06  THRMLTP =  0.00D+00
 THRCPQCI=  1.00D-10  KEXTA   =  0.00D+00  THRCOARS=  0.00D+00  SYMTOL  =  1.00D-06  GRADTOL =  1.00D-06  THROVL  =  1.00D-08
 THRORTH =  1.00D-08  GRID    =  1.00D-06  GRIDMAX =  1.00D-03  DTMAX   =  0.00D+00  THROCCDE=  1.00D-01  THROCCDE=  1.00D-01



Geometry recognized as XYZ


 Variable memory set to 1000000000 words,  buffer space   230000 words

 SETTING BASIS          =    USERDEF

 DO I                   =        17.00000000

 Running procedure=IIIEF2
  --><jobstep command="RHF-SCF" commandset="SCFPRO">
   <!--


 Recomputing integrals since basis changed


 Using spherical harmonics



 PROGRAM * SEWARD (Integral evaluation for generally contracted gaussian basis sets)     Author: Roland Lindh, 1990

 Geometry written to block  1 of record 700

 Orientation using atomic masses
 Molecule type: Atom
 Symmetry elements: X,Y,Z
 Rotational constants:       0.0000000      0.0000000      0.0000000 GHz  (calculated with average atomic masses)

 Point group  D2h


   --><cml:molecule>
    <cml:symmetry pointGroup="D2h"/>
    <cml:atomArray>
     <cml:atom id="a1" elementType="Lu" x3="0.0" y3="0.0" z3="0.0"/>
    </cml:atomArray>
    <cml:bondArray>
    </cml:bondArray>
   </cml:molecule><!--

 ATOMIC COORDINATES

 NR  ATOM    CHARGE       X              Y              Z

   1  LU     25.00    0.000000000    0.000000000    0.000000000

 NUCLEAR CHARGE:                   25
 NUMBER OF PRIMITIVE AOS:         503
 NUMBER OF SYMMETRY AOS:          380
 NUMBER OF CONTRACTIONS:          380   (  85Ag  +  62B3u +  62B2u +  30B1g +  62B1u +  30B2g +  30B3g +  19Au  )
 NUMBER OF CORE ORBITALS:           0   (   0Ag  +   0B3u +   0B2u +   0B1g +   0B1u +   0B2g +   0B3g +   0Au  )
 NUMBER OF VALENCE ORBITALS:       17   (   4Ag  +   3B3u +   3B2u +   1B1g +   3B1u +   1B2g +   1B3g +   1Au  )


 NUCLEAR REPULSION ENERGY    0.00000000

 EXTRA SYMMETRY OF AOS IN SYMMETRY 1:   1 1 1 1 1 1 1 1 1 1   1 1 1 1 1 1 1 1 1 1   1 1 1 1 1 1 1 1 1 1   1 2 3 2 3 2 3 2 3 2
                                        3 2 3 2 3 2 3 2 3 2   3 2 3 2 3 2 3 2 3 2   3 2 3 2 3 2 3 4 5 6   4 5 6 4 5 6 4 5 6 4
                                        5 6 4 5 6
 EXTRA SYMMETRY OF AOS IN SYMMETRY 2:   1 1 1 1 1 1 1 1 1 1   1 1 1 1 1 1 1 1 1 1   1 1 1 1 1 1 1 2 3 2   3 2 3 2 3 2 3 2 3 2
                                        3 2 3 2 3 2 3 2 3 2   3 2 3 4 5 6 4 5 6 4   5 6
 EXTRA SYMMETRY OF AOS IN SYMMETRY 3:   1 1 1 1 1 1 1 1 1 1   1 1 1 1 1 1 1 1 1 1   1 1 1 1 1 1 1 2 3 2   3 2 3 2 3 2 3 2 3 2
                                        3 2 3 2 3 2 3 2 3 2   3 2 3 4 5 6 4 5 6 4   5 6
 EXTRA SYMMETRY OF AOS IN SYMMETRY 4:   1 1 1 1 1 1 1 1 1 1   1 1 1 1 1 1 1 1 2 3   2 3 2 3 2 3 2 3 2 3
 EXTRA SYMMETRY OF AOS IN SYMMETRY 5:   1 1 1 1 1 1 1 1 1 1   1 1 1 1 1 1 1 1 1 1   1 1 1 1 1 1 1 2 3 2   3 2 3 2 3 2 3 2 3 2
                                        3 2 3 2 3 2 3 2 3 2   3 2 3 4 5 6 4 5 6 4   5 6
 EXTRA SYMMETRY OF AOS IN SYMMETRY 6:   1 1 1 1 1 1 1 1 1 1   1 1 1 1 1 1 1 1 2 3   2 3 2 3 2 3 2 3 2 3
 EXTRA SYMMETRY OF AOS IN SYMMETRY 7:   1 1 1 1 1 1 1 1 1 1   1 1 1 1 1 1 1 1 2 3   2 3 2 3 2 3 2 3 2 3
 EXTRA SYMMETRY OF AOS IN SYMMETRY 8:   1 1 1 1 1 1 1 1 1 1   1 1 1 2 3 2 3 2 3

 Eigenvalues of metric

         1 0.433E-04 0.526E-04 0.113E-03 0.205E-03 0.387E-03 0.579E-03 0.702E-03 0.702E-03
         2 0.122E-04 0.207E-04 0.110E-03 0.494E-03 0.158E-02 0.385E-02 0.728E-02 0.144E-01
         3 0.122E-04 0.207E-04 0.110E-03 0.494E-03 0.158E-02 0.385E-02 0.728E-02 0.144E-01
         4 0.702E-03 0.220E-02 0.838E-02 0.215E-01 0.345E-01 0.566E-01 0.104E+00 0.174E+00
         5 0.122E-04 0.207E-04 0.110E-03 0.494E-03 0.158E-02 0.385E-02 0.728E-02 0.144E-01
         6 0.702E-03 0.220E-02 0.838E-02 0.215E-01 0.345E-01 0.566E-01 0.104E+00 0.174E+00
         7 0.702E-03 0.220E-02 0.838E-02 0.215E-01 0.345E-01 0.566E-01 0.104E+00 0.174E+00
         8 0.144E-01 0.330E-01 0.524E-01 0.114E+00 0.217E+00 0.268E+00 0.268E+00 0.366E+00


 Contracted 2-electron integrals neglected if value below      1.0D-15
 AO integral compression algorithm  1   Integral accuracy      1.0D-15

     1958.740 MB (compressed) written to integral file ( 43.0%)

     Node minimum: 92.013 MB, node maximum: 235.405 MB


 NUMBER OF SORTED TWO-ELECTRON INTEGRALS:   30635607.     BUFFER LENGTH:  32768
 NUMBER OF SEGMENTS:   1  SEGMENT LENGTH:   30635607      RECORD LENGTH: 524288

 Memory used in sort:      31.19 MW

 SORT1 READ   568811974. AND WROTE    17427516. INTEGRALS IN     50 RECORDS. CPU TIME:    14.58 SEC, REAL TIME:    17.29 SEC
 SORT2 READ   190908661. AND WROTE   335703620. INTEGRALS IN   5522 RECORDS. CPU TIME:     0.54 SEC, REAL TIME:     1.48 SEC

 Node minimum:    30394465.  Node maximum:    30635607. integrals

 OPERATOR DM      FOR CENTER  0  COORDINATES:    0.000000    0.000000    0.000000


 **********************************************************************************************************************************
 DATASETS  * FILE   NREC   LENGTH (MB)   RECORD NAMES
              1      19       20.90       500      610      700      900      950      970     1000      129      960     1100
                                          VAR    BASINP    GEOM    SYMINP    ZMAT    AOBASIS   BASIS     P2S    ABASIS      S
                                         1400     1410     1420     1200     1210     1080     1600     1650     1700
                                           T        V       ECP      H0       H01     AOSYM     SMH    MOLCAS    OPER

 PROGRAMS   *        TOTAL       INT
 CPU TIMES  *        65.97     65.60
 REAL TIME  *        71.49 SEC
 DISK USED  *         4.27 GB
 GA USED    *         0.00 MB       (max)       0.00 MB       (current)
 **********************************************************************************************************************************


 PROGRAM * RHF-SCF (OPEN SHELL)       Authors: W. Meyer, H.-J. Werner


 NUMBER OF ELECTRONS:      13+   11-    SPACE SYMMETRY=4    SPIN SYMMETRY: Triplet
 CONVERGENCE THRESHOLDS:    1.00E-05 (Density)    1.00E-07 (Energy)
 MAX. NUMBER OF ITERATIONS:      150
 INTERPOLATION TYPE:            DIIS
 INTERPOLATION STEPS:              2 (START)      1 (STEP)
 LEVEL SHIFTS:                 -0.60 (CLOSED) -0.30 (OPEN)

 Number of closed-shell orbitals:   11 (   1   3   3   0   3   0   0   1 )
 Number of open-shell orbitals:      2 (   0   1   1   0   0   0   0   0 )



 Extra symmetries of mos in symmetry 2:   1   3   2   3   2
 Extra symmetries of mos in symmetry 3:   1   3   2   3   2
 Extra symmetries of mos in symmetry 5:   1   3   2   3   2
 Guess basis ATOMIC-GUESS,LU=ECP46_GUESS not found. No density guess!


 Molecular orbital dump at record        4202.2

 ITERATION    DDIFF          GRAD             ENERGY        2-EL.EN.            DIPOLE MOMENTS         DIIS   ORB.
    1      0.000D+00      0.000D+00      -160.20030632    569.480701    0.00000    0.00000    0.00000    0    start
    2      0.000D+00      0.429D+00      -127.14757231    100.741131    0.00000    0.00000    0.00000    0    diag,B
    3      0.581D+00      0.254D+00      -169.05095005    549.580195    0.00000    0.00000    0.00000    1    diag,B
    4      0.569D+00      0.393D+00      -192.86852898    483.021006    0.00000    0.00000    0.00000    2    diag,B
    5      0.597D-01      0.227D+00      -205.46243914    411.014492    0.00000    0.00000    0.00000    3    diag,B
    6      0.455D-01      0.111D+00      -204.79035954    397.205151    0.00000    0.00000    0.00000    4    diag,B
    7      0.112D+00      0.471D-01      -201.19906257    375.693827    0.00000    0.00000    0.00000    5    diag,B
    8      0.132D+00      0.144D-01      -208.99134646    336.625788    0.00000    0.00000    0.00000    6    diag,B
    9      0.153D+00      0.280D-01      -209.24824823    344.902205    0.00000    0.00000    0.00000    7    diag,B
   10      0.608D-01      0.132D-01      -208.38410669    361.182996    0.00000    0.00000    0.00000    8    orth
   11      0.835D-01      0.203D-02      -209.23586363    351.091164    0.00000    0.00000    0.00000    9    diag,B
   12      0.919D-01      0.436D-02      -209.25579623    352.067520    0.00000    0.00000    0.00000    9    diag,B
   13      0.158D-01      0.300D-02      -209.28954544    353.034621    0.00000    0.00000    0.00000    9    diag,B
   14      0.359D-01      0.275D-02      -209.28672075    352.733647    0.00000    0.00000    0.00000    9    diag,B
   15      0.203D-01      0.294D-02      -209.03318497    354.805390    0.00000    0.00000    0.00000    9    diag,B
   16      0.121D+00      0.107D-02      -209.34893115    351.793248    0.00000    0.00000    0.00000    9    diag,B
   17      0.124D+00      0.156D-02      -209.03054870    354.754427    0.00000    0.00000    0.00000    9    diag,B
   18      0.122D+00      0.611D-03      -209.35338057    351.051183    0.00000    0.00000    0.00000    9    diag,B
   19      0.123D+00      0.793D-03      -209.03728291    355.372878    0.00000    0.00000    0.00000    9    diag,B
   20      0.140D+00      0.950D-03      -208.40870082    361.293267    0.00000    0.00000    0.00000    9    orth
   21      0.132D+00      0.375D-02      -209.24216979    350.640167    0.00000    0.00000    0.00000    9    diag,B
   22      0.772D-01      0.938D-03      -209.03291119    354.204507    0.00000    0.00000    0.00000    9    diag,B
   23      0.832D-01      0.543D-03      -208.41020720    361.319285    0.00000    0.00000    0.00000    9    diag,B
   24      0.944D-01      0.389D-02      -209.24906259    350.661761    0.00000    0.00000    0.00000    9    diag,B
   25      0.805D-01      0.599D-03      -209.25202515    350.283933    0.00000    0.00000    0.00000    9    diag,B
   26      0.350D-01      0.762D-03      -209.24924651    350.884013    0.00000    0.00000    0.00000    9    diag,B
   27      0.587D-01      0.474D-03      -209.24966738    350.812513    0.00000    0.00000    0.00000    9    diag,B
   28      0.280D-01      0.507D-03      -208.41020225    361.342583    0.00000    0.00000    0.00000    9    diag,B
   29      0.802D-01      0.392D-02      -209.24999630    350.649530    0.00000    0.00000    0.00000    9    diag,B
   30      0.782D-01      0.685D-03      -209.03194192    354.204797    0.00000    0.00000    0.00000    9    orth
   31      0.131D+00      0.457D-03      -208.41082836    361.279796    0.00000    0.00000    0.00000    9    diag,B
   32      0.119D+00      0.391D-02      -209.03188289    354.199732    0.00000    0.00000    0.00000    9    diag,B
   33      0.111D+00      0.426D-03      -209.03272092    354.138903    0.00000    0.00000    0.00000    9    diag,B
   34      0.207D-01      0.446D-03      -209.34476148    352.612570    0.00000    0.00000    0.00000    9    diag,B
   35      0.122D+00      0.633D-03      -209.34280848    352.788943    0.00000    0.00000    0.00000    9    diag,B
   36      0.179D-02      0.597D-03      -209.03168274    354.215670    0.00000    0.00000    0.00000    9    diag,B
   37      0.110D+00      0.622D-03      -208.40886751    361.418923    0.00000    0.00000    0.00000    9    diag,B
   38      0.826D-01      0.406D-02      -209.03108452    354.238684    0.00000    0.00000    0.00000    9    diag,B
   39      0.132D+00      0.582D-03      -209.03112109    354.222684    0.00000    0.00000    0.00000    9    diag,B
   40      0.482D-01      0.559D-03      -209.03117925    354.227904    0.00000    0.00000    0.00000    9    orth
   41      0.372D-01      0.609D-03      -209.34591920    352.489992    0.00000    0.00000    0.00000    9    diag,B
   42      0.113D+00      0.592D-03      -209.34063467    352.960708    0.00000    0.00000    0.00000    9    diag,B
   43      0.262D-02      0.642D-03      -209.03114433    354.232859    0.00000    0.00000    0.00000    9    diag,B
   44      0.152D+00      0.606D-03      -209.03125551    354.200106    0.00000    0.00000    0.00000    9    diag,B
   45      0.102D+00      0.589D-03      -209.34382743    352.668979    0.00000    0.00000    0.00000    9    diag,B
   46      0.109D+00      0.669D-03      -208.40938666    361.318908    0.00000    0.00000    0.00000    9    diag,B
   47      0.784D-01      0.396D-02      -209.03099962    354.223642    0.00000    0.00000    0.00000    9    diag,B
   48      0.158D+00      0.545D-03      -209.34609235    352.481227    0.00000    0.00000    0.00000    9    diag,B
   49      0.174D+00      0.590D-03      -209.34196239    352.887704    0.00000    0.00000    0.00000    9    diag,B
   50      0.240D-02      0.611D-03      -209.03126815    354.191324    0.00000    0.00000    0.00000    9    orth
   51      0.113D+00      0.599D-03      -208.40865098    361.441799    0.00000    0.00000    0.00000    9    diag,B
   52      0.812D-01      0.407D-02      -209.34602191    352.534074    0.00000    0.00000    0.00000    9    diag,B
   53      0.782D-01      0.569D-03      -209.34595827    352.477065    0.00000    0.00000    0.00000    9    diag,B
   54      0.211D-02      0.543D-03      -209.03136608    354.235171    0.00000    0.00000    0.00000    9    diag,B
   55      0.110D+00      0.610D-03      -208.40869743    361.431338    0.00000    0.00000    0.00000    9    diag,B
   56      0.788D-01      0.406D-02      -209.03093650    354.269878    0.00000    0.00000    0.00000    9    diag,B
   57      0.160D+00      0.577D-03      -209.03098273    354.256681    0.00000    0.00000    0.00000    9    diag,B
   58      0.689D-01      0.560D-03      -209.03118989    354.217498    0.00000    0.00000    0.00000    9    diag,B
   59      0.571D-01      0.592D-03      -208.40923865    361.331622    0.00000    0.00000    0.00000    9    diag,B
   60      0.788D-01      0.398D-02      -209.03095206    354.272298    0.00000    0.00000    0.00000    9    orth
   61      0.156D+00      0.573D-03      -209.03096933    354.254388    0.00000    0.00000    0.00000    9    diag,B
   62      0.585D-01      0.557D-03      -209.03124462    354.195996    0.00000    0.00000    0.00000    9    diag,B
   63      0.617D-01      0.578D-03      -208.40934864    361.315017    0.00000    0.00000    0.00000    9    diag,B
   64      0.792D-01      0.397D-02      -209.03097522    354.274855    0.00000    0.00000    0.00000    9    diag,B
   65      0.166D+00      0.573D-03      -209.03095761    354.254678    0.00000    0.00000    0.00000    9    diag,B
   66      0.672D-01      0.557D-03      -209.03125850    354.191206    0.00000    0.00000    0.00000    9    diag,B
   67      0.658D-01      0.575D-03      -208.40929989    361.324461    0.00000    0.00000    0.00000    9    diag,B
   68      0.787D-01      0.398D-02      -209.03098069    354.275015    0.00000    0.00000    0.00000    9    diag,B
   69      0.167D+00      0.573D-03      -209.03096021    354.254436    0.00000    0.00000    0.00000    9    diag,B
   70      0.696D-01      0.557D-03      -209.03125404    354.192850    0.00000    0.00000    0.00000    9    orth
   71      0.639D-01      0.576D-03      -208.40932055    361.320789    0.00000    0.00000    0.00000    9    diag,B
   72      0.791D-01      0.397D-02      -209.03097975    354.274945    0.00000    0.00000    0.00000    9    diag,B
   73      0.165D+00      0.573D-03      -209.03095961    354.254443    0.00000    0.00000    0.00000    9    diag,B
   74      0.680D-01      0.557D-03      -209.03125669    354.191902    0.00000    0.00000    0.00000    9    diag,B
   75      0.645D-01      0.575D-03      -208.40932190    361.320646    0.00000    0.00000    0.00000    9    diag,B
   76      0.790D-01      0.397D-02      -209.03098081    354.275043    0.00000    0.00000    0.00000    9    diag,B
   77      0.166D+00      0.573D-03      -209.03095934    354.254450    0.00000    0.00000    0.00000    9    diag,B
   78      0.682D-01      0.557D-03      -209.03125669    354.191871    0.00000    0.00000    0.00000    9    diag,B
   79      0.647D-01      0.575D-03      -208.40931973    361.321033    0.00000    0.00000    0.00000    9    diag,B
   80      0.789D-01      0.397D-02      -209.03098082    354.275030    0.00000    0.00000    0.00000    9    orth
   81      0.165D+00      0.573D-03      -209.03095951    354.254437    0.00000    0.00000    0.00000    9    diag,B
   82      0.681D-01      0.557D-03      -209.03125641    354.191953    0.00000    0.00000    0.00000    9    diag,B
   83      0.647D-01      0.575D-03      -208.40932090    361.320816    0.00000    0.00000    0.00000    9    diag,B
   84      0.789D-01      0.397D-02      -209.03098076    354.275023    0.00000    0.00000    0.00000    9    diag,B
   85      0.165D+00      0.573D-03      -209.03095950    354.254435    0.00000    0.00000    0.00000    9    diag,B
   86      0.679D-01      0.557D-03      -209.03125649    354.191910    0.00000    0.00000    0.00000    9    diag,B
   87      0.648D-01      0.575D-03      -208.40932096    361.320804    0.00000    0.00000    0.00000    9    diag,B
   88      0.788D-01      0.397D-02      -209.03098080    354.275025    0.00000    0.00000    0.00000    9    diag,B
   89      0.165D+00      0.573D-03      -209.03095951    354.254432    0.00000    0.00000    0.00000    9    diag,B
   90      0.678D-01      0.557D-03      -209.03125645    354.191912    0.00000    0.00000    0.00000    9    orth
   91      0.648D-01      0.575D-03      -208.40932096    361.320802    0.00000    0.00000    0.00000    9    diag,B
   92      0.788D-01      0.397D-02      -209.03098079    354.275023    0.00000    0.00000    0.00000    9    diag,B
   93      0.165D+00      0.573D-03      -209.03095953    354.254430    0.00000    0.00000    0.00000    9    diag,B
   94      0.677D-01      0.557D-03      -209.03125642    354.191915    0.00000    0.00000    0.00000    9    diag,B
   95      0.648D-01      0.575D-03      -208.40932106    361.320780    0.00000    0.00000    0.00000    9    diag,B
   96      0.788D-01      0.397D-02      -209.03098078    354.275022    0.00000    0.00000    0.00000    9    diag,B
   97      0.165D+00      0.573D-03      -209.03095954    354.254429    0.00000    0.00000    0.00000    9    diag,B
   98      0.677D-01      0.557D-03      -209.03125642    354.191913    0.00000    0.00000    0.00000    9    diag,B
   99      0.649D-01      0.575D-03      -208.40932110    361.320773    0.00000    0.00000    0.00000    9    fixocc
  100      0.788D-01      0.397D-02      -208.40886188    361.419987    0.00000    0.00000    0.00000    9    orth
  101      0.104D-02      0.401D-02      -208.40903027    361.412558    0.00000    0.00000    0.00000    9    diag,B
  102      0.103D-02      0.399D-02      -208.40883944    361.429683    0.00000    0.00000    0.00000    9    diag,B
  103      0.589D-02      0.400D-02      -208.40889521    361.419053    0.00000    0.00000    0.00000    9    diag,B
  104      0.110D-02      0.399D-02      -208.40927807    361.428358    0.00000    0.00000    0.00000    9    diag,B


 ?APPARENTLY NO CONVERGENCE, EXIT AFTER THREE FURTHER ITERATIONS


  105      0.232D-01      0.397D-02      -208.40887856    361.418747    0.00000    0.00000    0.00000    9    diag,B
  106      0.352D-01      0.399D-02      -208.40892019    361.407657    0.00000    0.00000    0.00000    9    orth
  107      0.652D-02      0.398D-02      -208.41389860    357.176615    0.00000    0.00000    0.00000    0    orth

 Final alpha occupancy:   1   4   4   0   3   0   0   1
 Final beta  occupancy:   1   3   3   0   3   0   0   1

 !RHF STATE 1.4 Energy               -208.413898601947
   --><property name="Energy" method="RHF" principal="true" stateSymmetry="4" stateNumber="1"
     value="-208.413898601947"/><!--
 Nuclear energy                         0.00000000
 One-electron energy                 -387.00220591
 Two-electron energy                  178.58830731
 Virial quotient                       -1.20043516
 !RHF STATE 1.4 Dipole moment           0.00000000     0.00000000     0.00000000
 Dipole moment /Debye                   0.00000000     0.00000000     0.00000000
   --><property name="Dipole moment" method="RHF" principal="true" stateSymmetry="4"
     stateNumber="1" value="0.0 0.0 0.0"/><!--

 ELECTRON ORBITALS
 =================


   Orb  Occ    Energy  Couls-En    Coefficients

                                   1 1s      1 1s      1 1s      1 1s      1 1s      1 1s      1 1s      1 1s      1 1s      1 1s
                                   1 1s      1 1s      1 1s      1 1s      1 1s      1 1s      1 1s      1 1s      1 1s      1 1s
                                   1 1s      1 1s      1 1s      1 1s      1 1s      1 1s      1 1s      1 1s      1 1s      1 1s
                                   1 1s      1 3d0     1 3d2+    1 3d0     1 3d2+    1 3d0     1 3d2+    1 3d0     1 3d2+    1 3d0
                                   1 3d2+    1 3d0     1 3d2+    1 3d0     1 3d2+    1 3d0     1 3d2+    1 3d0     1 3d2+    1 3d0
                                   1 3d2+    1 3d0     1 3d2+    1 3d0     1 3d2+    1 3d0     1 3d2+    1 3d0     1 3d2+    1 3d0
                                   1 3d2+    1 3d0     1 3d2+    1 3d0     1 3d2+    1 3d0     1 3d2+    1 5g0     1 5g4+    1 5g2+
                                   1 5g0     1 5g4+    1 5g2+    1 5g0     1 5g4+    1 5g2+    1 5g0     1 5g4+    1 5g2+    1 5g0
                                   1 5g4+    1 5g2+    1 5g0     1 5g4+    1 5g2+

   1.1   2    -3.2043  -21.2018 -0.000000  0.000000 -0.000000  0.000000 -0.000000  0.000000 -0.000000  0.000000 -0.000000  0.000001
                                -0.000002  0.000005 -0.000011  0.000025 -0.000050  0.000088 -0.000111  0.000009  0.000358 -0.007082
                                -0.020522  0.399727 -1.006831  0.029896  1.011282  0.343840  0.046093 -0.030106  0.026163 -0.021657
                                 0.007215  0.000000 -0.000000 -0.000000  0.000000  0.000000 -0.000000 -0.000000  0.000000  0.000001
                                -0.000000 -0.000002  0.000000  0.000004 -0.000000 -0.000009  0.000000  0.000015 -0.000000 -0.000010
                                 0.000000 -0.000063  0.000001 -0.000574  0.000003  0.004041 -0.000035  0.002572 -0.000017 -0.000622
                                 0.000005  0.001777 -0.000016 -0.002048  0.000018  0.000678 -0.000006 -0.000002  0.000000  0.000000
                                 0.000014 -0.000001 -0.000001 -0.000134  0.000007  0.000007 -0.000058  0.000005  0.000004  0.000023
                                -0.000004 -0.000001 -0.000010  0.000001  0.000001

   2.1   0    -0.4258  -12.1962  0.000000 -0.000000  0.000000 -0.000000  0.000000 -0.000000  0.000000 -0.000000  0.000000 -0.000000
                                 0.000000 -0.000000  0.000000 -0.000000  0.000000 -0.000000 -0.000002  0.000010 -0.000026  0.000348
                                 0.000436 -0.015834  0.044517 -0.007734 -0.049972 -0.030012 -0.023958  0.095204  0.029186  0.006168
                                -0.001721 -0.000000  0.000000  0.000001 -0.000000 -0.000008  0.000000  0.000033 -0.000000 -0.000115
                                 0.000001  0.000344 -0.000003 -0.000903  0.000007  0.002101 -0.000016 -0.004348  0.000033  0.007662
                                -0.000058 -0.009687  0.000080 -0.066294  0.000330  0.362615 -0.001916  0.532843 -0.003320  0.320403
                                -0.001861 -0.110204  0.001959  0.166231 -0.002491 -0.053032  0.000782  0.000048  0.000000 -0.000000
                                -0.000168 -0.000002  0.000000  0.001839  0.000001 -0.000012  0.009694  0.000209 -0.000010  0.002227
                                -0.000196 -0.000071  0.000125  0.000072  0.000029

   3.1   0    -0.4129  -12.2169  0.000000 -0.000000  0.000000 -0.000000  0.000000 -0.000000  0.000000 -0.000000  0.000000 -0.000000
                                 0.000000 -0.000000  0.000000 -0.000000  0.000000 -0.000000  0.000000 -0.000000  0.000001 -0.000004
                                -0.000001  0.000134 -0.000382  0.000047  0.000420  0.000237  0.000714 -0.000957 -0.001026 -0.000246
                                 0.000382 -0.000000 -0.000000  0.000000  0.000002 -0.000000 -0.000009  0.000000  0.000036 -0.000001
                                -0.000126  0.000002  0.000375 -0.000004 -0.000982  0.000009  0.002282 -0.000020 -0.004712  0.000034
                                 0.008336 -0.000038 -0.010846 -0.000427 -0.064282  0.002249  0.356954  0.002906  0.545391  0.001872
                                 0.320452  0.000383 -0.166893 -0.000087  0.237890 -0.000183 -0.071195  0.000000 -0.000033  0.000029
                                -0.000002  0.000194 -0.000090  0.000007 -0.000417  0.001271  0.000141 -0.011941  0.004801 -0.000083
                                 0.016911  0.002687  0.000139 -0.002837 -0.001972

                                   1 2px     1 2px     1 2px     1 2px     1 2px     1 2px     1 2px     1 2px     1 2px     1 2px
                                   1 2px     1 2px     1 2px     1 2px     1 2px     1 2px     1 2px     1 2px     1 2px     1 2px
                                   1 2px     1 2px     1 2px     1 2px     1 2px     1 2px     1 2px     1 4f1+    1 4f3+    1 4f1+
                                   1 4f3+    1 4f1+    1 4f3+    1 4f1+    1 4f3+    1 4f1+    1 4f3+    1 4f1+    1 4f3+    1 4f1+
                                   1 4f3+    1 4f1+    1 4f3+    1 4f1+    1 4f3+    1 4f1+    1 4f3+    1 4f1+    1 4f3+    1 4f1+
                                   1 4f3+    1 4f1+    1 4f3+    1 6h1+    1 6h3+    1 6h5+    1 6h1+    1 6h3+    1 6h5+    1 6h1+
                                   1 6h3+    1 6h5+

   1.2   2    -2.0823  -18.1857 -0.000000  0.000000 -0.000000  0.000000 -0.000000  0.000001 -0.000002  0.000009 -0.000031  0.000097
                                -0.000282  0.000775 -0.002080  0.005959 -0.019612  0.127991 -0.258579  0.281083 -0.386729  0.053796
                                 0.806714 -0.153070  0.461233 -0.062028  0.015683  0.004926  0.059665  0.000000 -0.000000 -0.000001
                                 0.000000  0.000006 -0.000000 -0.000019  0.000000  0.000348 -0.000003  0.001264 -0.000012  0.001483
                                -0.000014  0.002299 -0.000020  0.004082 -0.000013  0.001810 -0.000006  0.000190 -0.000004 -0.000078
                                -0.000000  0.000009 -0.000001 -0.000002  0.000001 -0.000036 -0.000081 -0.000000  0.000281 -0.000056
                                 0.000009 -0.000567

   2.2   2    -0.6602  -18.0163 -0.000000  0.000000 -0.000000  0.000000 -0.000000  0.000000 -0.000000  0.000000 -0.000000  0.000000
                                -0.000000  0.000000 -0.000000  0.000000 -0.000001  0.000007 -0.000014  0.000018 -0.000019 -0.000033
                                 0.000115 -0.000121  0.000189 -0.000268 -0.000063 -0.000155  0.000338 -0.000000  0.000027  0.000000
                                -0.000179 -0.000001  0.000819  0.000003 -0.002868 -0.000068  0.061720 -0.000256  0.231856 -0.000281
                                 0.254812 -0.000397  0.359116 -0.000338  0.306365 -0.000164  0.160988 -0.000018  0.027889  0.000001
                                -0.004140 -0.000059  0.003362 -0.000001  0.000263 -0.000004 -0.000001  0.000341 -0.000006 -0.000006
                                 0.001309 -0.000015

   3.2   2    -0.6789  -18.0070 -0.000000  0.000000 -0.000000  0.000000 -0.000000  0.000000 -0.000000  0.000000 -0.000000  0.000001
                                -0.000003  0.000008 -0.000022  0.000063 -0.000210  0.001366 -0.002785  0.003125 -0.003990 -0.000743
                                 0.012135 -0.006536  0.008681  0.007015 -0.005029 -0.001469 -0.006661 -0.000026 -0.000000  0.000178
                                 0.000000 -0.000818 -0.000001  0.002864  0.000003 -0.061503 -0.000067 -0.231140 -0.000253 -0.254221
                                -0.000278 -0.357896 -0.000391 -0.306611 -0.000335 -0.164707 -0.000194 -0.029208 -0.000043  0.005650
                                 0.000029 -0.001479  0.000045 -0.000414  0.000001 -0.000040 -0.000594  0.000001  0.000123 -0.001984
                                -0.000003 -0.000203

   4.2   +    -0.1156   -3.8922 -0.000000  0.000000 -0.000000  0.000000 -0.000000  0.000000 -0.000000  0.000000 -0.000000  0.000000
                                -0.000001  0.000003 -0.000007  0.000021 -0.000076  0.000583 -0.001314  0.001778 -0.003236  0.000050
                                 0.012253 -0.008951  0.013975 -0.319265 -0.011527 -0.025860  0.331892  0.000000 -0.000003 -0.000000
                                 0.000018  0.000001 -0.000082 -0.000004  0.000287  0.000102 -0.005845  0.000384 -0.021436  0.000415
                                -0.023986  0.000592 -0.031825  0.000353 -0.020231  0.000087  0.009420 -0.004462  0.185367  0.001178
                                 0.218131 -0.019771  0.705563  0.000000 -0.000001 -0.000001  0.000005 -0.000216 -0.000003 -0.000015
                                 0.000469  0.000032

   5.2   0     1.0714   -7.1776 -0.000000  0.000000 -0.000000  0.000000 -0.000000  0.000000 -0.000001  0.000002 -0.000007  0.000021
                                -0.000060  0.000164 -0.000434  0.001209 -0.003746  0.021575 -0.039078  0.031931 -0.026905  0.047311
                                -0.211846  0.432296 -0.345163  1.482319  0.162633 -0.128119 -1.422755  0.000053  0.000000 -0.000352
                                -0.000001  0.001561  0.000004 -0.005400 -0.000013  0.044721  0.000105  0.098174  0.000232  0.195147
                                 0.000460  0.043410  0.000105  0.339719  0.000802 -1.609335 -0.003757  1.961356  0.004497 -1.553509
                                -0.003555  0.498034  0.001112 -0.000045 -0.000001 -0.000020  0.002301  0.000005  0.001101 -0.008584
                                -0.000016 -0.004480

   6.2   0    -0.1767   -5.9674  0.000000 -0.000000  0.000000 -0.000000  0.000000 -0.000000  0.000000 -0.000001  0.000005 -0.000016
                                 0.000045 -0.000125  0.000338 -0.000983  0.003327 -0.022845  0.048054 -0.057404  0.092642 -0.015758
                                -0.248858  0.095470 -0.234950  0.018970  0.151385  0.646423  0.344754 -0.000000 -0.000000  0.000003
                                 0.000000 -0.000014 -0.000001  0.000049  0.000003 -0.000693 -0.000078 -0.002261 -0.000303 -0.002906
                                -0.000316 -0.003135 -0.000473 -0.004469 -0.000214  0.002286 -0.000132  0.021492  0.002909  0.015330
                                 0.001268  0.006555  0.019019 -0.000007 -0.000000  0.000036  0.000003 -0.000006  0.000026  0.000072
                                 0.000017 -0.000676

                                   1 2py     1 2py     1 2py     1 2py     1 2py     1 2py     1 2py     1 2py     1 2py     1 2py
                                   1 2py     1 2py     1 2py     1 2py     1 2py     1 2py     1 2py     1 2py     1 2py     1 2py
                                   1 2py     1 2py     1 2py     1 2py     1 2py     1 2py     1 2py     1 4f1-    1 4f3-    1 4f1-
                                   1 4f3-    1 4f1-    1 4f3-    1 4f1-    1 4f3-    1 4f1-    1 4f3-    1 4f1-    1 4f3-    1 4f1-
                                   1 4f3-    1 4f1-    1 4f3-    1 4f1-    1 4f3-    1 4f1-    1 4f3-    1 4f1-    1 4f3-    1 4f1-
                                   1 4f3-    1 4f1-    1 4f3-    1 6h1-    1 6h3-    1 6h5-    1 6h1-    1 6h3-    1 6h5-    1 6h1-
                                   1 6h3-    1 6h5-

   1.3   2    -2.0825  -18.1859 -0.000000  0.000000 -0.000000  0.000000 -0.000000  0.000001 -0.000002  0.000009 -0.000031  0.000097
                                -0.000282  0.000775 -0.002080  0.005959 -0.019612  0.127987 -0.258573  0.281078 -0.386729  0.053810
                                 0.806622 -0.152907  0.461134 -0.062085  0.015696  0.004936  0.059720  0.000000 -0.000000 -0.000001
                                 0.000000  0.000006 -0.000000 -0.000019  0.000000  0.000347 -0.000002  0.001262 -0.000009  0.001480
                                -0.000011  0.002291 -0.000021  0.004048 -0.000043  0.001810 -0.000054  0.000175  0.000055 -0.000071
                                -0.000047  0.000007  0.000015 -0.000002 -0.000000  0.000037 -0.000076  0.000008 -0.000271 -0.000055
                                -0.000001  0.000580

   2.3   2    -0.6815  -18.0744 -0.000000  0.000000 -0.000000  0.000000 -0.000000  0.000000 -0.000000  0.000000 -0.000000  0.000000
                                -0.000000  0.000001 -0.000002  0.000007 -0.000024  0.000152 -0.000309  0.000342 -0.000424 -0.000084
                                 0.001258 -0.000655  0.000831  0.000243 -0.000363 -0.000037 -0.000226 -0.000003  0.000026  0.000019
                                -0.000178 -0.000086  0.000818  0.000300 -0.002865 -0.006439  0.061870 -0.024196  0.232440 -0.026606
                                 0.255056 -0.037434  0.358127 -0.031930  0.298004 -0.017213  0.168404 -0.002725  0.009853  0.000354
                                 0.007734 -0.000079 -0.002830 -0.000043  0.000217 -0.000000 -0.000066  0.000469 -0.000018 -0.000207
                                 0.001065  0.000007

   3.3   2    -0.6789  -18.0076 -0.000000  0.000000 -0.000000  0.000000 -0.000000  0.000000 -0.000000  0.000000 -0.000000  0.000001
                                -0.000003  0.000008 -0.000022  0.000062 -0.000206  0.001340 -0.002732  0.003062 -0.003895 -0.000748
                                 0.011804 -0.006306  0.008433  0.006800 -0.004778 -0.001325 -0.006459 -0.000026 -0.000003  0.000177
                                 0.000019 -0.000814 -0.000086  0.002848  0.000301 -0.061166 -0.006486 -0.229873 -0.024368 -0.252829
                                -0.026747 -0.355936 -0.037573 -0.304951 -0.031410 -0.163788 -0.017645 -0.029051 -0.001446  0.005613
                                -0.000483 -0.001467  0.000174 -0.000410 -0.000020  0.000040 -0.000587 -0.000047 -0.000116 -0.001962
                                -0.000103  0.000210

   4.3   +     0.8035   -7.0130  0.000000 -0.000000  0.000000 -0.000000  0.000000 -0.000000  0.000000 -0.000000  0.000000 -0.000000
                                 0.000000 -0.000000  0.000000 -0.000000  0.000002 -0.000016  0.000041 -0.000064  0.000130 -0.000012
                                -0.000467  0.000359 -0.000868  0.032667  0.002292 -0.002967 -0.031246 -0.000001  0.000049  0.000005
                                -0.000327 -0.000021  0.001448  0.000073 -0.005013 -0.000654  0.043232 -0.001544  0.098503 -0.002820
                                 0.187118 -0.000903  0.049076 -0.004190  0.288597  0.022611 -1.572302 -0.027765  2.197554  0.022579
                                -1.842898 -0.007463  0.612854  0.000000 -0.000013 -0.000001 -0.000010  0.000300  0.000009  0.000037
                                -0.001126 -0.000032

   5.3   0     1.0716   -7.1777  0.000000 -0.000000  0.000000 -0.000000  0.000000 -0.000000  0.000001 -0.000002  0.000007 -0.000021
                                 0.000062 -0.000169  0.000448 -0.001248  0.003865 -0.022261  0.040324 -0.032960  0.027804 -0.048838
                                 0.218651 -0.446847  0.357070 -1.516046 -0.167783  0.131543  1.455022 -0.000053 -0.000001  0.000352
                                 0.000005 -0.001561 -0.000023  0.005400  0.000078 -0.044717 -0.000650 -0.098165 -0.001439 -0.195131
                                -0.002836 -0.043402 -0.000663 -0.339682 -0.004885  1.609148  0.023251 -1.960953 -0.028377  1.553105
                                 0.022454 -0.497891 -0.007190  0.000046  0.000001 -0.000020 -0.002302  0.000002  0.001069  0.008587
                                -0.000016 -0.004347

   6.3   0    -0.1771   -5.9734  0.000000 -0.000000  0.000000 -0.000000  0.000000 -0.000000  0.000000 -0.000001  0.000005 -0.000016
                                 0.000046 -0.000125  0.000339 -0.000984  0.003331 -0.022870  0.048108 -0.057472  0.092754 -0.015762
                                -0.249297  0.095950 -0.235654  0.062905  0.151694  0.647812  0.299171 -0.000000  0.000000  0.000003
                                -0.000000 -0.000014  0.000000  0.000048 -0.000000 -0.000675 -0.000006 -0.002202 -0.000029 -0.002831
                                -0.000022 -0.003052 -0.000055 -0.004352 -0.000010  0.002317 -0.000125  0.021326  0.000245  0.015022
                                -0.000330  0.007517 -0.000609 -0.000006  0.000001 -0.000036  0.000003 -0.000002 -0.000022  0.000067
                                -0.000006  0.000657

                                   1 3d2-    1 3d2-    1 3d2-    1 3d2-    1 3d2-    1 3d2-    1 3d2-    1 3d2-    1 3d2-    1 3d2-
                                   1 3d2-    1 3d2-    1 3d2-    1 3d2-    1 3d2-    1 3d2-    1 3d2-    1 3d2-    1 5g2-    1 5g4-
                                   1 5g2-    1 5g4-    1 5g2-    1 5g4-    1 5g2-    1 5g4-    1 5g2-    1 5g4-    1 5g2-    1 5g4-


   1.4   0    -0.4133  -12.2133 -0.000000  0.000002 -0.000009  0.000036 -0.000126  0.000375 -0.000983  0.002285 -0.004717  0.008345
                                -0.010865 -0.064190  0.356573  0.545224  0.320829 -0.166987  0.238757 -0.071593  0.000029  0.000033
                                -0.000087 -0.000195  0.001266  0.000397  0.004545  0.011867  0.002966 -0.017374 -0.001985  0.002717

   2.4   0    -0.0722   -3.8204  0.000000 -0.000000  0.000001 -0.000005  0.000018 -0.000053  0.000139 -0.000327  0.000691 -0.001204
                                 0.001269  0.018095 -0.094690 -0.125536 -0.193605  1.693399 -2.908211  2.392982 -0.000006 -0.000008
                                 0.000027  0.000036 -0.000264 -0.000173  0.000478 -0.008625  0.002619 -0.005727  0.018101 -0.108536

                                   1 2pz     1 2pz     1 2pz     1 2pz     1 2pz     1 2pz     1 2pz     1 2pz     1 2pz     1 2pz
                                   1 2pz     1 2pz     1 2pz     1 2pz     1 2pz     1 2pz     1 2pz     1 2pz     1 2pz     1 2pz
                                   1 2pz     1 2pz     1 2pz     1 2pz     1 2pz     1 2pz     1 2pz     1 4f0     1 4f2+    1 4f0
                                   1 4f2+    1 4f0     1 4f2+    1 4f0     1 4f2+    1 4f0     1 4f2+    1 4f0     1 4f2+    1 4f0
                                   1 4f2+    1 4f0     1 4f2+    1 4f0     1 4f2+    1 4f0     1 4f2+    1 4f0     1 4f2+    1 4f0
                                   1 4f2+    1 4f0     1 4f2+    1 6h2+    1 6h4+    1 6h0     1 6h2+    1 6h4+    1 6h0     1 6h2+
                                   1 6h4+    1 6h0

   1.5   2    -2.1070  -18.2040 -0.000000  0.000000 -0.000000  0.000000 -0.000000  0.000001 -0.000002  0.000009 -0.000031  0.000097
                                -0.000281  0.000773 -0.002073  0.005940 -0.019549  0.127594 -0.257819  0.280389 -0.385994  0.054119
                                 0.798913 -0.142744  0.456748 -0.062497  0.017317  0.004751  0.060118  0.000000 -0.000000 -0.000001
                                 0.000000  0.000006 -0.000000 -0.000022  0.000000  0.000386 -0.000001  0.001409 -0.000003  0.001650
                                -0.000005  0.002543 -0.000006  0.004292 -0.000005  0.002349 -0.000008 -0.000090  0.000003  0.000136
                                -0.000004 -0.000051  0.000001  0.000001  0.000001 -0.000007  0.000003 -0.000000 -0.000077  0.000008
                                 0.000010 -0.000123

   2.5   2    -0.6728  -18.0085 -0.000000  0.000000 -0.000000  0.000000 -0.000000  0.000000 -0.000000  0.000000 -0.000000  0.000000
                                -0.000000  0.000000 -0.000000  0.000001 -0.000003  0.000018 -0.000037  0.000042 -0.000050 -0.000019
                                 0.000127 -0.000022  0.000094  0.000404 -0.000078 -0.000080 -0.000388 -0.000000  0.000026  0.000001
                                -0.000178 -0.000007  0.000819  0.000023 -0.002866 -0.000494  0.061562 -0.001856  0.231325 -0.002040
                                 0.254391 -0.002877  0.358177 -0.002465  0.306486 -0.001328  0.164053 -0.000239  0.028561  0.000052
                                -0.005398 -0.000014  0.001411  0.000354 -0.000042 -0.000005  0.000528  0.000116 -0.000008  0.001722
                                -0.000212 -0.000024

   3.5   2    -0.6805  -18.0064 -0.000000  0.000000 -0.000000  0.000000 -0.000000  0.000000 -0.000000  0.000000 -0.000000  0.000001
                                -0.000003  0.000010 -0.000026  0.000074 -0.000247  0.001601 -0.003254  0.003618 -0.004501 -0.000822
                                 0.011770 -0.003571  0.007429  0.006569 -0.005399 -0.001914 -0.006251 -0.000026 -0.000000  0.000178
                                 0.000001 -0.000818 -0.000007  0.002863  0.000023 -0.061480 -0.000495 -0.231066 -0.001860 -0.254141
                                -0.002047 -0.357812 -0.002877 -0.306691 -0.002462 -0.164818 -0.001318 -0.029449 -0.000230  0.005774
                                 0.000037 -0.001505 -0.000011 -0.000001  0.000002 -0.000431 -0.000002 -0.000000 -0.000614 -0.000007
                                 0.000012 -0.002051

   4.5   0    -0.0107   -3.0982  0.000000 -0.000000  0.000000 -0.000000  0.000000 -0.000000  0.000000 -0.000000  0.000000 -0.000000
                                 0.000001 -0.000002  0.000006 -0.000017  0.000054 -0.000309  0.000561 -0.000462  0.000395 -0.000608
                                 0.002487 -0.005069  0.004005 -0.432079 -0.003160  0.008901  0.429780  0.000000 -0.000000 -0.000000
                                 0.000001  0.000000 -0.000007 -0.000001  0.000026  0.000090 -0.002589  0.000396 -0.011519  0.000357
                                -0.010268  0.000677 -0.019780  0.000089 -0.002164  0.000737 -0.022398 -0.006851  0.205169  0.008683
                                -0.268224 -0.037933  1.117410  0.000004  0.000011 -0.000000 -0.000195 -0.000054  0.000009  0.000402
                                 0.000094 -0.000019

   5.5   0     2.9420   -7.5133  0.000000 -0.000000  0.000000 -0.000000  0.000000 -0.000000  0.000001 -0.000004  0.000015 -0.000046
                                 0.000133 -0.000364  0.000964 -0.002684  0.008310 -0.047607  0.085515 -0.066959  0.045950 -0.111799
                                 0.609821 -0.985220  0.565548 -0.779790 -0.140838  0.077118  0.747343 -0.000081 -0.000000  0.000539
                                 0.000003 -0.002313 -0.000012  0.007898  0.000041  0.031862  0.000165  0.295373  0.001525  0.068267
                                 0.000355  0.673929  0.003470 -1.833019 -0.009465  1.421863  0.007349 -1.035471 -0.005345  0.762457
                                 0.003930 -0.243237 -0.001253  0.000001 -0.000004  0.000812 -0.000009  0.000034 -0.006590  0.000004
                                -0.000109  0.013763

                                   1 3d1+    1 3d1+    1 3d1+    1 3d1+    1 3d1+    1 3d1+    1 3d1+    1 3d1+    1 3d1+    1 3d1+
                                   1 3d1+    1 3d1+    1 3d1+    1 3d1+    1 3d1+    1 3d1+    1 3d1+    1 3d1+    1 5g1+    1 5g3+
                                   1 5g1+    1 5g3+    1 5g1+    1 5g3+    1 5g1+    1 5g3+    1 5g1+    1 5g3+    1 5g1+    1 5g3+


   1.6   0    -0.4187  -12.2324 -0.000000  0.000001 -0.000008  0.000033 -0.000115  0.000343 -0.000899  0.002093 -0.004332  0.007633
                                -0.009604 -0.067116  0.366322  0.534914  0.319367 -0.108970  0.163958 -0.052226  0.000045  0.000000
                                -0.000158 -0.000001  0.001745  0.000000  0.009309 -0.000028  0.002206 -0.000230  0.000056 -0.000103

   2.6   0    -0.0673   -3.7796  0.000000 -0.000000  0.000001 -0.000004  0.000013 -0.000038  0.000102 -0.000243  0.000519 -0.000889
                                 0.000733  0.018663 -0.094983 -0.118973 -0.191233  1.715863 -2.993494  2.458206 -0.000009 -0.000000
                                 0.000039  0.000000 -0.000332 -0.000002  0.000970 -0.000111  0.007653 -0.000177  0.051228 -0.002057

                                   1 3d1-    1 3d1-    1 3d1-    1 3d1-    1 3d1-    1 3d1-    1 3d1-    1 3d1-    1 3d1-    1 3d1-
                                   1 3d1-    1 3d1-    1 3d1-    1 3d1-    1 3d1-    1 3d1-    1 3d1-    1 3d1-    1 5g1-    1 5g3-
                                   1 5g1-    1 5g3-    1 5g1-    1 5g3-    1 5g1-    1 5g3-    1 5g1-    1 5g3-    1 5g1-    1 5g3-


   1.7   0    -0.4188  -12.2322 -0.000000  0.000001 -0.000008  0.000033 -0.000115  0.000343 -0.000899  0.002094 -0.004334  0.007636
                                -0.009610 -0.067098  0.366274  0.534937  0.319314 -0.108822  0.163888 -0.052192  0.000045 -0.000000
                                -0.000157  0.000002  0.001735 -0.000010  0.009256 -0.000138  0.002142  0.000121  0.000063 -0.000078

   2.7   0    -0.0675   -3.7803  0.000000 -0.000000  0.000001 -0.000004  0.000013 -0.000039  0.000102 -0.000243  0.000521 -0.000892
                                 0.000738  0.018662 -0.095004 -0.119058 -0.191147  1.714638 -2.991177  2.457064 -0.000009  0.000000
                                 0.000038 -0.000000 -0.000331  0.000003  0.000935  0.000032  0.007613  0.000099  0.050484 -0.000558

                                   1 4f2-    1 4f2-    1 4f2-    1 4f2-    1 4f2-    1 4f2-    1 4f2-    1 4f2-    1 4f2-    1 4f2-
                                   1 4f2-    1 4f2-    1 4f2-    1 6h4-    1 6h2-    1 6h4-    1 6h2-    1 6h4-    1 6h2-

   1.8   2    -0.6727  -18.0085  0.000026 -0.000178  0.000819 -0.002866  0.061564  0.231334  0.254398  0.358198  0.306504  0.164024
                                 0.028570 -0.005392  0.001413  0.000036  0.000354 -0.000120  0.000531  0.000197  0.001725

   2.8   0    -0.0109   -3.1003 -0.000000  0.000001 -0.000007  0.000027 -0.002601 -0.011557 -0.010317 -0.019832 -0.002226 -0.022343
                                 0.205339 -0.266901  1.116929 -0.000011  0.000005  0.000057 -0.000196 -0.000101  0.000405

   3.8   0     0.1119   -3.8568  0.000007 -0.000050  0.000223 -0.000773  0.008467  0.024032  0.036134  0.026523  0.056465 -0.100818
                                 0.305537 -1.876324  1.298573  0.000022 -0.000018 -0.000070  0.000542  0.000052 -0.001204

 HOMO      4.3     0.803534 =      21.8653eV
 LUMO      2.1    -0.425829 =     -11.5874eV
 LUMO-HOMO        -1.229363 =     -33.4527eV

 No convergence



 **********************************************************************************************************************************
 DATASETS  * FILE   NREC   LENGTH (MB)   RECORD NAMES
              1      19       20.94       500      610      700      900      950      970     1000      129      960     1100
                                          VAR    BASINP    GEOM    SYMINP    ZMAT    AOBASIS   BASIS     P2S    ABASIS      S
                                         1400     1410     1420     1200     1210     1080     1600     1650     1700
                                           T        V       ECP      H0       H01     AOSYM     SMH    MOLCAS    OPER

              2       5        6.02       200      700     1000      520     4202
                                        OPTIONS   GEOM     BASIS   MCVARS     RHF

 PROGRAMS   *        TOTAL       RHF       INT
 CPU TIMES  *        77.15     11.17     65.60
 REAL TIME  *        83.93 SEC
 DISK USED  *         4.60 GB
 SF USED    *         0.09 MB
 GA USED    *         0.00 MB       (max)       0.00 MB       (current)
 **********************************************************************************************************************************
   -->
   <time start="12:16:14" end="12:17:37" cpu="77.15" system="5.7" real="83.93"/>
   <storage units="megabyte" memory="8001.84" sf="0.09" df="332.82" eaf="4268.32" ga="0.0"/>
  </jobstep><!--
  --><jobstep command="POP" commandset="POP">
   <!--


 PROGRAM * POP (Mulliken population analysis)


 Density matrix read from record         4202.2  Type=RHF/CHARGE (state 1.4)

 Population analysis by basis function type

 Unique atom        s        p        d        f        g    Total    Charge
   1  LU      1.99994  6.00086  0.00006 15.99907  0.00000 24.00000  + 1.00000


 **********************************************************************************************************************************
 DATASETS  * FILE   NREC   LENGTH (MB)   RECORD NAMES
              1      19       20.94       500      610      700      900      950      970     1000      129      960     1100
                                          VAR    BASINP    GEOM    SYMINP    ZMAT    AOBASIS   BASIS     P2S    ABASIS      S
                                         1400     1410     1420     1200     1210     1080     1600     1650     1700
                                           T        V       ECP      H0       H01     AOSYM     SMH    MOLCAS    OPER

              2       5        6.02       200      700     1000      520     4202
                                        OPTIONS   GEOM     BASIS   MCVARS     RHF

 PROGRAMS   *        TOTAL       POP       RHF       INT
 CPU TIMES  *        77.16      0.00     11.17     65.60
 REAL TIME  *        83.95 SEC
 DISK USED  *         4.60 GB
 SF USED    *         0.09 MB
 GA USED    *         0.00 MB       (max)       0.00 MB       (current)
 **********************************************************************************************************************************
   -->
   <time start="12:17:37" end="12:17:37" cpu="0.01" system="0.01" real="0.02"/>
   <storage units="megabyte" memory="8001.84" sf="0.09" df="332.82" eaf="4268.32" ga="0.0"/>
  </jobstep><!--
  --><jobstep command="RHF-SCF" commandset="SCFPRO">
   <!--


 PROGRAM * RHF-SCF (OPEN SHELL)       Authors: W. Meyer, H.-J. Werner


 NUMBER OF ELECTRONS:      13+   11-    SPACE SYMMETRY=4    SPIN SYMMETRY: Triplet
 CONVERGENCE THRESHOLDS:    1.00E-05 (Density)    1.00E-07 (Energy)
 MAX. NUMBER OF ITERATIONS:        0
 INTERPOLATION TYPE:            DIIS
 INTERPOLATION STEPS:              2 (START)      1 (STEP)
 LEVEL SHIFTS:                 -0.60 (CLOSED) -0.30 (OPEN)

 Number of closed-shell orbitals:   11 (   1   3   3   0   3   0   0   1 )
 Number of open-shell orbitals:      2 (   0   1   1   0   0   0   0   0 )


 Molecular orbitals read from record     4202.2  Type=RHF/CANONICAL (state 1.4)

 Molecular orbital dump at record        2114.2

 ITERATION    DDIFF          GRAD             ENERGY        2-EL.EN.            DIPOLE MOMENTS         DIIS   ORB.
    1      0.000D+00      0.000D+00      -208.41389860    357.176615    0.00000    0.00000    0.00000    0    start

 Final alpha occupancy:   1   4   4   0   3   0   0   1
 Final beta  occupancy:   1   3   3   0   3   0   0   1

 !RHF STATE 1.4 Energy               -208.413898601947
   --><property name="Energy" method="RHF" principal="true" stateSymmetry="4" stateNumber="1"
     value="-208.413898601947"/><!--
 Nuclear energy                         0.00000000
 One-electron energy                 -387.00220591
 Two-electron energy                  178.58830731
 Virial quotient                       -1.20043516
 !RHF STATE 1.4 Dipole moment           0.00000000     0.00000000     0.00000000
 Dipole moment /Debye                   0.00000000     0.00000000     0.00000000
   --><property name="Dipole moment" method="RHF" principal="true" stateSymmetry="4"
     stateNumber="1" value="0.0 0.0 0.0"/><!--

 Orbital energies:

         1.1          2.1          3.1
     -3.204250    -0.425829    -0.412912

         1.2          2.2          3.2          4.2          5.2          6.2
     -2.082310    -0.660170    -0.678878    -0.115610     1.071439    -0.176702

         1.3          2.3          3.3          4.3          5.3          6.3
     -2.082461    -0.681496    -0.678896     0.803534     1.071558    -0.177149

         1.4          2.4
     -0.413312    -0.072222

         1.5          2.5          3.5          4.5          5.5
     -2.107017    -0.672817    -0.680520    -0.010737     2.942007

         1.6          2.6
     -0.418682    -0.067297

         1.7          2.7
     -0.418774    -0.067491

         1.8          2.8          3.8
     -0.672727    -0.010864     0.111882

 HOMO      4.3     0.803534 =      21.8653eV
 LUMO      2.1    -0.425829 =     -11.5874eV
 LUMO-HOMO        -1.229363 =     -33.4527eV


 **********************************************************************************************************************************
 DATASETS  * FILE   NREC   LENGTH (MB)   RECORD NAMES
              1      19       20.94       500      610      700      900      950      970     1000      129      960     1100
                                          VAR    BASINP    GEOM    SYMINP    ZMAT    AOBASIS   BASIS     P2S    ABASIS      S
                                         1400     1410     1420     1200     1210     1080     1600     1650     1700
                                           T        V       ECP      H0       H01     AOSYM     SMH    MOLCAS    OPER

              2       6        9.40       200      700     1000      520     4202     2114
                                        OPTIONS   GEOM     BASIS   MCVARS     RHF      RHF

 PROGRAMS   *        TOTAL       RHF       POP       RHF       INT
 CPU TIMES  *        77.29      0.12      0.00     11.17     65.60
 REAL TIME  *        84.12 SEC
 DISK USED  *         4.60 GB
 SF USED    *         0.09 MB
 GA USED    *         0.00 MB       (max)       0.00 MB       (current)
 **********************************************************************************************************************************
   -->
   <time start="12:17:37" end="12:17:38" cpu="0.13" system="0.02" real="0.17"/>
   <storage units="megabyte" memory="8001.84" sf="0.09" df="332.82" eaf="4268.32" ga="0.0"/>
  </jobstep><!--
 SETTING SCF(17)        =      -208.41389860  AU
 SETTING _CC_NORM_MAX   =         2.00000000
  --><jobstep command="RCCSD(T)" commandset="CCSD">
   <!--


 PROGRAM * CCSD (Restricted open-shell coupled cluster)     Authors: C. Hampel, H.-J. Werner, 1991, M. Deegan, P.J. Knowles, 1992


 Convergence thresholds:  THRVAR = 1.00D-08  THRDEN = 1.00D-06

 CCSD(T)     terms to be evaluated (factor= 1.000)


 Number of closed-shell orbitals:  11 (   1   3   3   0   3   0   0   1 )
 Number of active  orbitals:        2 (   0   1   1   0   0   0   0   0 )
 Number of external orbitals:     367 (  84  58  58  30  59  30  30  18 )

 Memory could be reduced to 138.38 Mwords without degradation in triples

 Number of N-1 electron functions:              24
 Number of N-2 electron functions:             276
 Number of singly external CSFs:              1384
 Number of doubly external CSFs:           3605662
 Total number of CSFs:                     3607046

 Molecular orbitals read from record     2114.2  Type=RHF/CANONICAL (state 1.4)

 Integral transformation finished. Total CPU:   3.72 sec, npass=  1  Memory used:  26.77 MW

 Starting RMP2 calculation

 Wavefunction is spin-projected


 UNREASONABLE NORM: 69.190460 CALCULATION WILL BE STOPPED

 The threshold can be changed using option CC_NORM_MAX (see manual). The current value is CC_NORM_MAX=2.00

 Norm of t1 vector:      0.15475207      S-energy:    -0.01005044      T1 diagnostic:  0.02228931
 Norm of t2 vector:      8.25630136      P-energy:    -2.27835335
                                         Alpha-Beta:  -1.51724602
                                         Alpha-Alpha: -0.38130719
                                         Beta-Beta:   -0.37980015

 Singles amplitudes (print threshold =  0.500E-01):

         I         SYM. A    A   T(IA) [Alpha-Alpha]

         9         3         9      0.05198136
         9         3        11     -0.13237864

 Spin contamination <S**2-Sz**2-Sz>     0.00000000


 RESULTS
 =======

  Reference energy                   -208.413898601947
   --><property name="energy" method="Reference" stateSymmetry="1" stateNumber="1"
     value="-208.413898601947"/><!--
  RCCSD singles energy                 -0.010050438997
   --><property name="energy" method="RCCSD singles" stateSymmetry="1" stateNumber="1"
     value="-0.100504389974723E-01"/><!--
  RCCSD pair energy                    -2.278353351561
   --><property name="energy" method="RCCSD pair" stateSymmetry="1" stateNumber="1"
     value="-2.27835335156104"/><!--
  RCCSD correlation energy             -2.288403790559
   --><property name="energy" method="RCCSD correlation" stateSymmetry="1" stateNumber="1"
     value="-2.28840379055851"/><!--

 !RHF-RCCSD energy                   -210.702302392506
   --><property name="energy" method="RHF-RCCSD" principal="true" stateSymmetry="1"
     stateNumber="1" value="-210.702302392506"/><!--

 Program statistics:

 Available memory in ccsd:               999998418
 Min. memory needed in ccsd:              10069184
 Max. memory used in ccsd:                14563949
 Max. memory used in cckext:                     0 ( 0 integral passes)
 Max. memory used in cckint:              26769293 ( 1 integral passes)


 ? Error
 ? No convergence. This error exit can be avoided using the NOCHECK option
 ? The problem occurs in ccsd
   --><error type="Error" location="ccsd"
     message="No convergence. This error exit can be avoided using the NOCHECK option"/><!--
  --></jobstep><!--
  -->
  <input>
  <!--
 --></job><!--
--></molpro>
