JobID : 199585
Number of nodes requested: 4
List of nodes assigned to the job: andes[2,286-288]

     Program PWSCF v.7.0 starts on  5Apr2022 at 14:11:30 
        Git branch: develop-with-pw2qmcpack
        Last git commit: e9e05f589a4fdf74451ef95843589533ef75388f
        Last git commit date: Thu Jan 6 11:55:55 2022 -0600
        Last git commit subject: Merge branch develop into develop-with-pw2qmcp..

     This program is part of the open-source Quantum ESPRESSO suite
     for quantum simulation of materials; please cite
         "P. Giannozzi et al., J. Phys.:Condens. Matter 21 395502 (2009);
         "P. Giannozzi et al., J. Phys.:Condens. Matter 29 465901 (2017);
         "P. Giannozzi et al., J. Chem. Phys. 152 154105 (2020);
          URL http://www.quantum-espresso.org", 
     in publications or presentations arising from this work. More details at
     http://www.quantum-espresso.org/quote

     Parallel version (MPI), running on    32 processors

     MPI processes distributed on     4 nodes
     R & G space division:  proc/nbgrp/npool/nimage =      32
     227720 MiB available memory on the printing compute node when the environment starts
 
     Reading input from scf.in

     Current dimensions of program PWSCF are:
     Max number of different atomic species (ntypx) = 10
     Max number of k-points (npk) =  40000
     Max angular momentum in pseudopotentials (lmaxx) =  4
     Message from routine scan_end:
     No INFO block end statement, possibly corrupted file

     IMPORTANT: XC functional enforced from input :
     Exchange-correlation= PBE
                           (   1   4   3   4   0   0   0)
     Any further DFT definition will be discarded
     Please, verify this is what you really want


     gamma-point specific algorithms are used
     Message from routine setup:
     the system is metallic, specify occupations

     Subspace diagonalization in iterative solution of the eigenvalue problem:
     a serial algorithm will be used

 
     Parallelization info
     --------------------
     sticks:   dense  smooth     PW     G-vecs:    dense   smooth      PW
     Min        1775    1775    443               318568   318568   39816
     Max        1778    1778    446               318578   318578   39826
     Sum       56853   56853  14225             10194353 10194353 1274231
 
     Using Slab Decomposition
 


     bravais-lattice index     =            0
     lattice parameter (alat)  =      18.8973  a.u.
     unit-cell volume          =    6748.3346 (a.u.)^3
     number of atoms/cell      =            1
     number of atomic types    =            1
     number of electrons       =        19.00 (up:  13.00, down:   6.00)
     number of Kohn-Sham states=           20
     kinetic-energy cutoff     =     500.0000  Ry
     charge density cutoff     =    2000.0000  Ry
     scf convergence threshold =      1.0E-06
     mixing beta               =       0.2000
     number of iterations used =            8  plain     mixing
     Exchange-correlation= PBE
                           (   1   4   3   4   0   0   0)

     celldm(1)=  18.897261  celldm(2)=   0.000000  celldm(3)=   0.000000
     celldm(4)=   0.000000  celldm(5)=   0.000000  celldm(6)=   0.000000

     crystal axes: (cart. coord. in units of alat)
               a(1) = (   1.000000   0.000000   0.000000 )  
               a(2) = (   0.000000   1.000000   0.000000 )  
               a(3) = (   0.000000   0.000000   1.000000 )  

     reciprocal axes: (cart. coord. in units 2 pi/alat)
               b(1) = (  1.000000  0.000000  0.000000 )  
               b(2) = (  0.000000  1.000000  0.000000 )  
               b(3) = (  0.000000  0.000000  1.000000 )  


     PseudoPot. # 1 for Tb read from file:
     ./Tb.upf
     MD5 check sum: b33c2916c3a4d5697a1af0b816d76edb
     Pseudo is Norm-conserving, Zval = 19.0
     Generated by new atomic code, or converted to UPF format
     Using radial grid of 1183 points,  3 beta functions with: 
                l(1) =   1
                l(2) =   2
                l(3) =   3

     atomic species   valence    mass     pseudopotential
        Tb            19.00   158.92400     Tb( 1.00)

     Starting magnetic structure 
     atomic species   magnetization
        Tb           0.200

     No symmetry found



   Cartesian axes

     site n.     atom                  positions (alat units)
         1           Tb  tau(   1) = (   0.5000000   0.5000000   0.5000000  )

     number of k points=     1
                       cart. coord. in units 2pi/alat
        k(    1) = (   0.0000000   0.0000000   0.0000000), wk =   1.0000000

     Dense  grid:  5097177 G-vectors     FFT dimensions: ( 270, 270, 270)

     Estimated max dynamical RAM per process >     233.48 MB

     Estimated total dynamical RAM >       7.30 GB
     Generating pointlists ...
     new r_m :   0.4125 (alat units)  7.7951 (a.u.) for type    1

     The initial density is read from file :
     pwscf_output/pwscf.save/charge-density

     Starting wfcs from file

     total cpu time spent up to now is        3.6 secs

     per-process dynamical memory:   374.2 Mb

     Self-consistent Calculation

     iteration #  1     ecut=   500.00 Ry     beta= 0.20
     Davidson diagonalization with overlap
     ethr =  1.00E-05,  avg # of iterations =  1.5

     total cpu time spent up to now is        5.8 secs

     total energy              =    -258.87640440 Ry
     estimated scf accuracy    <       0.00056255 Ry

     total magnetization       =     7.00 Bohr mag/cell
     absolute magnetization    =     7.01 Bohr mag/cell

     iteration #  2     ecut=   500.00 Ry     beta= 0.20
     Davidson diagonalization with overlap
     ethr =  2.96E-06,  avg # of iterations =  1.0

     total cpu time spent up to now is        7.8 secs

     total energy              =    -258.87625619 Ry
     estimated scf accuracy    <       0.01981766 Ry

     total magnetization       =     7.00 Bohr mag/cell
     absolute magnetization    =     7.01 Bohr mag/cell

     iteration #  3     ecut=   500.00 Ry     beta= 0.20
     Davidson diagonalization with overlap
     ethr =  2.96E-06,  avg # of iterations =  1.0

     total cpu time spent up to now is        9.8 secs

     total energy              =    -258.87651616 Ry
     estimated scf accuracy    <       0.00009898 Ry

     total magnetization       =     7.00 Bohr mag/cell
     absolute magnetization    =     7.01 Bohr mag/cell

     iteration #  4     ecut=   500.00 Ry     beta= 0.20
     Davidson diagonalization with overlap
     ethr =  5.21E-07,  avg # of iterations =  1.0

     total cpu time spent up to now is       11.8 secs

     total energy              =    -258.87653776 Ry
     estimated scf accuracy    <       0.00008779 Ry

     total magnetization       =     7.00 Bohr mag/cell
     absolute magnetization    =     7.01 Bohr mag/cell

     iteration #  5     ecut=   500.00 Ry     beta= 0.20
     Davidson diagonalization with overlap
     ethr =  4.62E-07,  avg # of iterations =  1.0

     total cpu time spent up to now is       13.8 secs

     total energy              =    -258.87654207 Ry
     estimated scf accuracy    <       0.00004992 Ry

     total magnetization       =     7.00 Bohr mag/cell
     absolute magnetization    =     7.01 Bohr mag/cell

     iteration #  6     ecut=   500.00 Ry     beta= 0.20
     Davidson diagonalization with overlap
     ethr =  2.63E-07,  avg # of iterations =  1.0

     total cpu time spent up to now is       15.8 secs

     total energy              =    -258.87654275 Ry
     estimated scf accuracy    <       0.00000413 Ry

     total magnetization       =     7.00 Bohr mag/cell
     absolute magnetization    =     7.01 Bohr mag/cell

     iteration #  7     ecut=   500.00 Ry     beta= 0.20
     Davidson diagonalization with overlap
     ethr =  2.17E-08,  avg # of iterations =  4.0

     total cpu time spent up to now is       18.0 secs

     total energy              =    -258.87654318 Ry
     estimated scf accuracy    <       0.00000107 Ry

     total magnetization       =     7.00 Bohr mag/cell
     absolute magnetization    =     7.01 Bohr mag/cell

     iteration #  8     ecut=   500.00 Ry     beta= 0.20
     Davidson diagonalization with overlap
     ethr =  5.61E-09,  avg # of iterations =  7.0

     total cpu time spent up to now is       20.3 secs

     total energy              =    -258.87654489 Ry
     estimated scf accuracy    <       0.00000226 Ry

     total magnetization       =     7.00 Bohr mag/cell
     absolute magnetization    =     7.01 Bohr mag/cell

     iteration #  9     ecut=   500.00 Ry     beta= 0.20
     Davidson diagonalization with overlap
     ethr =  5.61E-09,  avg # of iterations =  1.0

     total cpu time spent up to now is       22.4 secs

     total energy              =    -258.87654487 Ry
     estimated scf accuracy    <       0.00000224 Ry

     total magnetization       =     7.00 Bohr mag/cell
     absolute magnetization    =     7.01 Bohr mag/cell

     iteration # 10     ecut=   500.00 Ry     beta= 0.20
     Davidson diagonalization with overlap
     ethr =  5.61E-09,  avg # of iterations =  1.0

     total cpu time spent up to now is       24.4 secs

     total energy              =    -258.87654384 Ry
     estimated scf accuracy    <       0.00000233 Ry

     total magnetization       =     7.00 Bohr mag/cell
     absolute magnetization    =     7.01 Bohr mag/cell

     iteration # 11     ecut=   500.00 Ry     beta= 0.20
     Davidson diagonalization with overlap
     ethr =  5.61E-09,  avg # of iterations =  1.5

     total cpu time spent up to now is       26.4 secs

     total energy              =    -258.87654342 Ry
     estimated scf accuracy    <       0.00000213 Ry

     total magnetization       =     7.00 Bohr mag/cell
     absolute magnetization    =     7.01 Bohr mag/cell

     iteration # 12     ecut=   500.00 Ry     beta= 0.20
     Davidson diagonalization with overlap
     ethr =  5.61E-09,  avg # of iterations =  1.5

     total cpu time spent up to now is       28.5 secs

     total energy              =    -258.87654361 Ry
     estimated scf accuracy    <       0.00000247 Ry

     total magnetization       =     7.00 Bohr mag/cell
     absolute magnetization    =     7.01 Bohr mag/cell

     iteration # 13     ecut=   500.00 Ry     beta= 0.20
     Davidson diagonalization with overlap
     ethr =  5.61E-09,  avg # of iterations =  1.0

     total cpu time spent up to now is       30.5 secs

     total energy              =    -258.87654360 Ry
     estimated scf accuracy    <       0.00000269 Ry

     total magnetization       =     7.00 Bohr mag/cell
     absolute magnetization    =     7.01 Bohr mag/cell

     iteration # 14     ecut=   500.00 Ry     beta= 0.20
     Davidson diagonalization with overlap
     ethr =  5.61E-09,  avg # of iterations =  1.0

     total cpu time spent up to now is       32.6 secs

     total energy              =    -258.87654349 Ry
     estimated scf accuracy    <       0.00000292 Ry

     total magnetization       =     7.00 Bohr mag/cell
     absolute magnetization    =     7.01 Bohr mag/cell

     iteration # 15     ecut=   500.00 Ry     beta= 0.20
     Davidson diagonalization with overlap
     ethr =  5.61E-09,  avg # of iterations =  1.0

     total cpu time spent up to now is       34.6 secs

     total energy              =    -258.87654398 Ry
     estimated scf accuracy    <       0.00000285 Ry

     total magnetization       =     7.00 Bohr mag/cell
     absolute magnetization    =     7.01 Bohr mag/cell

     iteration # 16     ecut=   500.00 Ry     beta= 0.20
     Davidson diagonalization with overlap
     ethr =  5.61E-09,  avg # of iterations =  1.0

     total cpu time spent up to now is       36.7 secs

     total energy              =    -258.87654571 Ry
     estimated scf accuracy    <       0.00000202 Ry

     total magnetization       =     7.00 Bohr mag/cell
     absolute magnetization    =     7.01 Bohr mag/cell

     iteration # 17     ecut=   500.00 Ry     beta= 0.20
     Davidson diagonalization with overlap
     ethr =  5.61E-09,  avg # of iterations =  6.5

     total cpu time spent up to now is       39.2 secs

     total energy              =    -258.87654392 Ry
     estimated scf accuracy    <       0.00000154 Ry

     total magnetization       =     7.00 Bohr mag/cell
     absolute magnetization    =     7.01 Bohr mag/cell

     iteration # 18     ecut=   500.00 Ry     beta= 0.20
     Davidson diagonalization with overlap
     ethr =  5.61E-09,  avg # of iterations =  6.5

     total cpu time spent up to now is       41.5 secs

     total energy              =    -258.87654504 Ry
     estimated scf accuracy    <       0.00000272 Ry

     total magnetization       =     7.00 Bohr mag/cell
     absolute magnetization    =     7.01 Bohr mag/cell

     iteration # 19     ecut=   500.00 Ry     beta= 0.20
     Davidson diagonalization with overlap
     ethr =  5.61E-09,  avg # of iterations =  1.0

     total cpu time spent up to now is       43.5 secs

     total energy              =    -258.87654594 Ry
     estimated scf accuracy    <       0.00000259 Ry

     total magnetization       =     7.00 Bohr mag/cell
     absolute magnetization    =     7.01 Bohr mag/cell

     iteration # 20     ecut=   500.00 Ry     beta= 0.20
     Davidson diagonalization with overlap
     ethr =  5.61E-09,  avg # of iterations =  1.5
 
     Magnetic moment per site  (integrated on atomic sphere of radius R)
     atom   1 (R=0.413)  charge= 18.9453  magn=  6.9600

     total cpu time spent up to now is       45.4 secs

     End of self-consistent calculation

 ------ SPIN UP ------------


          k = 0.0000 0.0000 0.0000 (637116 PWs)   bands (ev):

   -47.2364 -24.5448 -24.2887 -24.1625 -10.8595 -10.6638 -10.6216 -10.4674
   -10.1375  -9.2947  -8.3460  -3.3522  -1.2357  -0.8020  -0.7384  -0.6689
    -0.6574  -0.6354  -0.5838  -0.3864

 ------ SPIN DOWN ----------


          k = 0.0000 0.0000 0.0000 (637116 PWs)   bands (ev):

   -44.3020 -22.5994 -22.3922 -22.2454  -3.5169  -2.5300  -2.4119  -0.1351
    -0.1303   0.0434   0.0729   0.1726   0.1805   0.2164   0.2965   0.3070
     1.3438   1.4840   1.6423   1.7534

     highest occupied, lowest unoccupied level (ev):    -1.2357   -2.4119

!    total energy              =    -258.87654695 Ry
     estimated scf accuracy    <       0.00000081 Ry

     The total energy is the sum of the following terms:
     one-electron contribution =    -366.64409849 Ry
     hartree contribution      =     190.19453765 Ry
     xc contribution           =     -28.22524904 Ry
     ewald contribution        =     -54.20173708 Ry

     total magnetization       =     7.00 Bohr mag/cell
     absolute magnetization    =     7.01 Bohr mag/cell

     convergence has been achieved in  20 iterations

     Writing all to output data dir pwscf_output/pwscf.save/
 
     init_run     :      2.53s CPU      3.31s WALL (       1 calls)
     electrons    :     41.52s CPU     42.17s WALL (       1 calls)

     Called by init_run:
     wfcinit      :      0.20s CPU      0.64s WALL (       1 calls)
     potinit      :      0.66s CPU      0.92s WALL (       1 calls)
     hinit0       :      0.23s CPU      0.30s WALL (       1 calls)

     Called by electrons:
     c_bands      :     21.75s CPU     21.92s WALL (      20 calls)
     sum_band     :      6.03s CPU      6.08s WALL (      20 calls)
     v_of_rho     :     12.01s CPU     12.26s WALL (      21 calls)
     mix_rho      :      1.95s CPU      2.00s WALL (      20 calls)

     Called by c_bands:
     init_us_2    :      0.26s CPU      0.26s WALL (      80 calls)
     init_us_2:cp :      0.26s CPU      0.26s WALL (      80 calls)
     regterg      :     20.95s CPU     21.11s WALL (      40 calls)

     Called by *egterg:
     rdiaghg      :      0.04s CPU      0.07s WALL (     122 calls)
     h_psi        :     18.37s CPU     18.48s WALL (     124 calls)
     g_psi        :      0.06s CPU      0.06s WALL (      84 calls)

     Called by h_psi:
     h_psi:calbec :      0.67s CPU      0.68s WALL (     124 calls)
     vloc_psi     :     17.42s CPU     17.51s WALL (     124 calls)
     add_vuspsi   :      0.24s CPU      0.24s WALL (     124 calls)

     General routines
     calbec       :      0.67s CPU      0.68s WALL (     124 calls)
     fft          :      7.08s CPU      7.22s WALL (     311 calls)
     ffts         :      0.70s CPU      0.71s WALL (      40 calls)
     fftw         :     20.37s CPU     20.47s WALL (    2102 calls)
 
     Parallel routines
 
     PWSCF        :     44.41s CPU     46.50s WALL

 
   This run was terminated on:  14:12:17   5Apr2022            

=------------------------------------------------------------------------------=
   JOB DONE.
=------------------------------------------------------------------------------=
