 CRYSTAL
 PRIMVEC
    10.00000000    0.00000000    0.00000000
     0.00000000   10.00000000    0.00000000
     0.00000000    0.00000000   10.00000000
 PRIMCOORD
   1 1
    65   5.00000000    5.00000000    5.00000000
