<?xml version="1.0"?>
<molpro xmlns="http://www.molpro.net/schema/molpro-output"
  xmlns:xsd="http://www.w3.org/1999/XMLSchema"
  xmlns:cml="http://www.xml-cml.org/schema"
  xmlns:stm="http://www.xml-cml.org/schema"
  xmlns:xhtml="http://www.w3.org/1999/xhtml">
 <!--

 Nodes     nprocs
 nid12943    11
 Number of processes for MPI-2 version of Molpro:   nprocs(total)=   12   nprocs(compute)=   11   nprocs(helper)=    1

 Using customized tuning parameters: mindgm=7; mindgv=16; mindgc=1; mindgr=1; noblas=0; minvec=7
 default implementation of scratch files=sf

 --><job>
  <!--

 Variables initialized (889), CPU time= 0.02 sec
 Commands  initialized (702), CPU time= 0.01 sec, 572 directives.
 Default parameters read. Elapsed time= 0.14 sec

 Checking input...
 Passed
1


                                         ***  PROGRAM SYSTEM MOLPRO  ***
                                       Copyright, TTI GmbH Stuttgart, 2015
                                    Version 2015.1 linked Dec 29 2018 15:55:43


 **********************************************************************************************************************************
 LABEL *   Calculation for GdO, singlet and triplet
  64 bit mpp version                                                                     DATE: 06-Jan-23          TIME: 08:42:59
 **********************************************************************************************************************************

 SHA1:             19cd028119e0e09f93f0674bd8af7968d9b3eff6
 **********************************************************************************************************************************
  -->
  <!--

 THRESHOLDS:

 ZERO    =  1.00D-12  ONEINT  =  1.00D-12  TWOINT  =  1.00D-15  PREFAC  =  1.00D-14  LOCALI  =  1.00D-09  EORDER  =  1.00D-04
 ENERGY  =  0.00D+00  ETEST   =  0.00D+00  EDENS   =  0.00D+00  THRDEDEF=  1.00D-06  GRADIENT=  1.00D-02  STEP    =  1.00D-03
 ORBITAL =  1.00D-05  CIVEC   =  1.00D-05  COEFF   =  1.00D-04  PRINTCI =  5.00D-02  PUNCHCI =  9.90D+01  OPTGRAD =  3.00D-04
 OPTENERG=  1.00D-06  OPTSTEP =  3.00D-04  THRGRAD =  1.00D-10  COMPRESS=  1.00D-11  VARMIN  =  1.00D-07  VARMAX  =  1.00D-03
 THRDOUB =  0.00D+00  THRDIV  =  1.00D-05  THRRED  =  1.00D-07  THRPSP  =  1.00D+00  THRDC   =  1.00D-10  THRCS   =  1.00D-10
 THRNRM  =  1.00D-08  THREQ   =  0.00D+00  THRDE   =  1.00D+00  THRREF  =  1.00D-05  SPARFAC =  1.00D+00  THRDLP  =  1.00D-07
 THRDIA  =  1.00D-10  THRDLS  =  1.00D-07  THRGPS  =  0.00D+00  THRKEX  =  0.00D+00  THRDIS  =  2.00D-01  THRVAR  =  1.00D-10
 THRLOC  =  1.00D-06  THRGAP  =  1.00D-06  THRLOCT = -1.00D+00  THRGAPT = -1.00D+00  THRORB  =  1.00D-06  THRMLTP =  0.00D+00
 THRCPQCI=  1.00D-10  KEXTA   =  0.00D+00  THRCOARS=  0.00D+00  SYMTOL  =  1.00D-06  GRADTOL =  1.00D-06  THROVL  =  1.00D-08
 THRORTH =  1.00D-08  GRID    =  1.00D-06  GRIDMAX =  1.00D-03  DTMAX   =  0.00D+00  THROCCDE=  1.00D-01  THROCCDE=  1.00D-01



 THRESHOLDS:

 ZERO    =  1.00D-12  ONEINT  =  1.00D-12  TWOINT  =  1.00D-15  PREFAC  =  1.00D-14  LOCALI  =  1.00D-09  EORDER  =  1.00D-04
 ENERGY  =  0.00D+00  ETEST   =  0.00D+00  EDENS   =  0.00D+00  THRDEDEF=  1.00D-06  GRADIENT=  1.00D-02  STEP    =  1.00D-03
 ORBITAL =  1.00D-05  CIVEC   =  1.00D-05  COEFF   =  1.00D-04  PRINTCI =  5.00D-02  PUNCHCI =  9.90D+01  OPTGRAD =  3.00D-04
 OPTENERG=  1.00D-06  OPTSTEP =  3.00D-04  THRGRAD =  1.00D-10  COMPRESS=  1.00D-11  VARMIN  =  1.00D-07  VARMAX  =  1.00D-03
 THRDOUB =  0.00D+00  THRDIV  =  1.00D-05  THRRED  =  1.00D-07  THRPSP  =  1.00D+00  THRDC   =  1.00D-10  THRCS   =  1.00D-10
 THRNRM  =  1.00D-08  THREQ   =  0.00D+00  THRDE   =  1.00D+00  THRREF  =  1.00D-05  SPARFAC =  1.00D+00  THRDLP  =  1.00D-07
 THRDIA  =  1.00D-10  THRDLS  =  1.00D-07  THRGPS  =  0.00D+00  THRKEX  =  0.00D+00  THRDIS  =  2.00D-01  THRVAR  =  1.00D-10
 THRLOC  =  1.00D-06  THRGAP  =  1.00D-06  THRLOCT = -1.00D+00  THRGAPT = -1.00D+00  THRORB  =  1.00D-06  THRMLTP =  0.00D+00
 THRCPQCI=  1.00D-10  KEXTA   =  0.00D+00  THRCOARS=  0.00D+00  SYMTOL  =  1.00D-06  GRADTOL =  1.00D-06  THROVL  =  1.00D-15
 THRORTH =  1.00D-08  GRID    =  1.00D-06  GRIDMAX =  1.00D-03  DTMAX   =  0.00D+00  THROCCDE=  1.00D-01  THROCCDE=  1.00D-01



 Variable memory set to 1000000000 words,  buffer space   230000 words

 SETTING BASIS          =    USERDEF
 SETTING GD_CCSD        =      -109.00593063
 SETTING O_CCSD         =       -15.86622096
 SETTING NE             =        24.00000000
 SETTING SYMM           =         4.00000000
 SETTING SS             =         8.00000000
 SETTING A1             =         7.00000000
 SETTING B1             =         4.00000000
 SETTING B2             =         4.00000000
 SETTING A2             =         1.00000000

Geometry recognized as XYZ

  --><jobstep command="RKS-SCF" commandset="SCFPRO">
   <!--


 Recomputing integrals since basis changed


 Using spherical harmonics



 PROGRAM * SEWARD (Integral evaluation for generally contracted gaussian basis sets)     Author: Roland Lindh, 1990

 Geometry written to block  1 of record 700


 Point group  C2v


   --><cml:molecule>
    <cml:symmetry pointGroup="C2v"/>
    <cml:atomArray>
     <cml:atom id="a1" elementType="Gd" x3="0.0" y3="0.0" z3="0.0"/>
     <cml:atom id="a2" elementType="O" x3="0.0" y3="0.0" z3="2.6"/>
    </cml:atomArray>
    <cml:bondArray>
     <cml:bond atomRefs2="a1 a2"/>
    </cml:bondArray>
   </cml:molecule><!--

 ATOMIC COORDINATES

 NR  ATOM    CHARGE       X              Y              Z

   1  GD     18.00    0.000000000    0.000000000    0.000000000
   2  O       6.00    0.000000000    0.000000000    4.913287924

 Bond lengths in Bohr (Angstrom)

 1-2  4.913287924
     ( 2.600000000)

 NUCLEAR CHARGE:                   24
 NUMBER OF PRIMITIVE AOS:         673
 NUMBER OF SYMMETRY AOS:          515
 NUMBER OF CONTRACTIONS:          515   ( 203A1  + 123B1  + 123B2  +  66A2  )
 NUMBER OF CORE ORBITALS:           0   (   0A1  +   0B1  +   0B2  +   0A2  )
 NUMBER OF VALENCE ORBITALS:       21   (   9A1  +   5B1  +   5B2  +   2A2  )


 NUCLEAR REPULSION ENERGY   21.98120722

 EXTRA SYMMETRY OF AOS IN SYMMETRY 1:   1 1 1 1 1 1 1 1 1 1   1 1 1 1 1 1 1 1 1 1   1 1 1 1 1 1 1 1 1 1   1 1 1 1 1 1 1 1 1 1
                                        1 1 1 1 1 1 1 1 1 1   1 1 1 1 1 1 1 1 1 1   1 1 1 2 1 2 1 2 1 2   1 2 1 2 1 2 1 2 1 2
                                        1 2 1 2 1 2 1 2 1 2   1 2 1 2 1 2 1 2 1 2   1 2 1 2 1 2 1 2 1 2   1 2 1 2 1 2 1 2 1 2
                                        1 2 1 2 1 2 1 2 1 2   1 2 1 2 1 3 2 1 3 2   1 3 2 1 3 2 1 3 2 1   3 2 1 3 2 1 3 2 1 3
                                        2 2 3 1 2 3 1 2 3 1   1 1 1 1 1 1 1 1 1 1   1 1 1 1 1 1 1 1 1 1   1 1 2 1 2 1 2 1 2 1
                                        2 1 2
 EXTRA SYMMETRY OF AOS IN SYMMETRY 2:   1 1 1 1 1 1 1 1 1 1   1 1 1 1 1 1 1 1 1 1   1 1 1 1 1 1 1 1 1 1   1 1 1 1 1 1 1 1 1 1
                                        1 1 1 1 1 1 1 1 1 1   1 1 1 2 1 2 1 2 1 2   1 2 1 2 1 2 1 2 1 2   1 2 1 2 1 2 1 2 1 2
                                        1 2 1 2 1 2 1 2 1 2   1 2 1 2 1 2 1 2 1 2   3 1 2 3 1 2 3 1 1 1   1 1 1 1 1 1 1 1 1 1
                                        2 1 2
 EXTRA SYMMETRY OF AOS IN SYMMETRY 3:   1 1 1 1 1 1 1 1 1 1   1 1 1 1 1 1 1 1 1 1   1 1 1 1 1 1 1 1 1 1   1 1 1 1 1 1 1 1 1 1
                                        1 1 1 1 1 1 1 1 1 1   1 1 1 2 1 2 1 2 1 2   1 2 1 2 1 2 1 2 1 2   1 2 1 2 1 2 1 2 1 2
                                        1 2 1 2 1 2 1 2 1 2   1 2 1 2 1 2 1 2 1 2   3 1 2 3 1 2 3 1 1 1   1 1 1 1 1 1 1 1 1 1
                                        2 1 2
 EXTRA SYMMETRY OF AOS IN SYMMETRY 4:   1 1 1 1 1 1 1 1 1 1   1 1 1 1 1 1 1 1 1 1   1 1 1 1 1 1 1 1 1 1   1 1 1 1 1 1 1 2 1 2
                                        1 2 1 2 1 2 1 2 1 2   1 2 1 2 2 1 2 1 2 1   1 1 1 1 1 1

 Eigenvalues of metric

         1 0.115E-06 0.305E-06 0.611E-06 0.723E-06 0.727E-06 0.741E-06 0.134E-05 0.433E-05
         2 0.616E-06 0.727E-06 0.439E-05 0.139E-04 0.238E-04 0.448E-04 0.885E-04 0.148E-03
         3 0.616E-06 0.727E-06 0.439E-05 0.139E-04 0.238E-04 0.448E-04 0.885E-04 0.148E-03
         4 0.727E-06 0.238E-04 0.149E-03 0.540E-03 0.826E-03 0.926E-03 0.420E-02 0.882E-02


 Contracted 2-electron integrals neglected if value below      1.0D-15
 AO integral compression algorithm  1   Integral accuracy      1.0D-15

     7124.812 MB (compressed) written to integral file ( 38.4%)

     Node minimum: 470.024 MB, node maximum: 901.513 MB


 NUMBER OF SORTED TWO-ELECTRON INTEGRALS:  204070495.     BUFFER LENGTH:  32768
 NUMBER OF SEGMENTS:   7  SEGMENT LENGTH:   31999176      RECORD LENGTH: 524288

 Memory used in sort:      32.56 MW

 SORT1 READ  2319806290. AND WROTE    77248377. INTEGRALS IN    225 RECORDS. CPU TIME:    43.79 SEC, REAL TIME:    64.34 SEC
 SORT2 READ   859890459. AND WROTE  2243484243. INTEGRALS IN  27170 RECORDS. CPU TIME:     4.30 SEC, REAL TIME:    15.71 SEC

 Node minimum:   203897834.  Node maximum:   204073967. integrals

 OPERATOR DM      FOR CENTER  0  COORDINATES:    0.000000    0.000000    0.000000


 **********************************************************************************************************************************
 DATASETS  * FILE   NREC   LENGTH (MB)   RECORD NAMES
              1      19       23.11       500      610      700      900      950      970     1000      129      960     1100
                                          VAR    BASINP    GEOM    SYMINP    ZMAT    AOBASIS   BASIS     P2S    ABASIS      S
                                         1400     1410     1420     1200     1210     1080     1600     1650     1700
                                           T        V       ECP      H0       H01     AOSYM     SMH    MOLCAS    OPER

 PROGRAMS   *        TOTAL       INT
 CPU TIMES  *       157.16    156.83
 REAL TIME  *       191.56 SEC
 DISK USED  *        17.35 GB
 GA USED    *         0.00 MB       (max)       0.00 MB       (current)
 **********************************************************************************************************************************

 Density functional group PBE0=PBEX+PBEC
 Functional: PBEX(Automatically generated (new) PBEX)                          Gradient terms: 1
 Functional: PBEC(Automatically generated (new) PBEC)                          Gradient terms: 1
 Use grid at  1800.2


 Exact exchange will be calculated, factor:  0.2500

 Functional: PBEX                      Factor:  0.7500
 Functional: PBEC                      Factor:  1.0000

 Generated new metagrid on record  1800.2 with target accuracy 1.0D-06 and 5140 points in CPU time    0.1
 Computed new grid on record 1800.1 in CPU time    0.1
  410982 words reserved for DFT integration

 PROGRAM * RKS-SCF (Restricted open shell Kohn-Sham)     Authors: W. Meyer, H.-J. Werner, P.J. Knowles, 1993

 NUMBER OF ELECTRONS:      15+    8-    SPACE SYMMETRY=4    SPIN SYMMETRY: Octet
 CONVERGENCE THRESHOLDS:    1.00E-05 (Density)    1.00E-06 (Energy)
 MAX. NUMBER OF ITERATIONS:      200
 INTERPOLATION TYPE:            DIIS
 INTERPOLATION STEPS:              2 (START)      1 (STEP)
 LEVEL SHIFTS:                 -0.60 (CLOSED) -0.30 (OPEN)

 Number of closed-shell orbitals:    8 (   4   2   2   0 )
 Number of open-shell orbitals:      7 (   2   2   2   1 )


 Use fine grid record 1800.2 for energy threshold  1.0D-06
 Guess basis ATOMIC-GUESS,GD=ECP46_GUESS,O=ECP2_GUESS not found. No density guess!


 Molecular orbital dump at record        2202.2

 ITERATION    DDIFF          GRAD             ENERGY        2-EL.EN.            DIPOLE MOMENTS         DIIS   ORB.
    1      0.000D+00      0.000D+00       -55.47292683    531.062304    0.00000    0.00000   28.81377    0    start
    2      0.000D+00      0.224D+00         9.96338478    283.926810    0.00000    0.00000  -93.74653    0    diag,B
    3      0.187D+00      0.139D+00       -55.05450386    530.284124    0.00000    0.00000   30.80288    1    diag,B
    4      0.187D+00      0.224D+00       -79.28299300    468.426297    0.00000    0.00000   30.68222    2    diag,B
    5      0.444D-01      0.147D+00      -103.08621086    371.238332    0.00000    0.00000   30.22927    3    diag,B
    6      0.348D-01      0.631D-01       -73.62049910    214.604764    0.00000    0.00000  -50.54791    4    diag,B
    7      0.625D-01      0.115D+00       -82.99402823    203.965588    0.00000    0.00000  -46.97075    5    diag,B
    8      0.247D-01      0.966D-01      -117.50966463    238.966313    0.00000    0.00000  -18.10306    6    diag,B
    9      0.468D-01      0.563D-01      -117.52384497    226.438214    0.00000    0.00000  -19.47525    7    diag,B
   10      0.909D-02      0.541D-01      -119.36377293    232.305906    0.00000    0.00000  -17.41127    8    orth
   11      0.934D-02      0.466D-01      -124.33975681    260.062076    0.00000    0.00000  -10.42416    9    diag,B
   12      0.799D-02      0.268D-01      -125.22442154    257.410544    0.00000    0.00000   -9.39375   10    diag,B
   13      0.560D-02      0.169D-01      -125.81221886    254.139578    0.00000    0.00000   -7.92916   11    diag,B
   14      0.559D-02      0.892D-02      -125.91300372    255.556278    0.00000    0.00000   -6.89393   12    diag,B
   15      0.389D-02      0.828D-02      -125.98524445    255.812313    0.00000    0.00000   -6.26928   13    diag,B
   16      0.848D-03      0.647D-02      -126.09038163    257.091823    0.00000    0.00000   -3.62978   14    diag,B
   17      0.240D-02      0.102D-02      -126.09407065    256.723668    0.00000    0.00000   -3.87980   15    diag,B
   18      0.135D-02      0.395D-03      -126.09582045    256.723554    0.00000    0.00000   -3.66722   16    diag,B
   19      0.566D-03      0.352D-03      -126.09695620    256.743487    0.00000    0.00000   -3.63004   17    diag,B
   20      0.449D-03      0.262D-03      -126.09772061    256.745795    0.00000    0.00000   -3.51489   18    orth
   21      0.426D-03      0.180D-03      -126.09855659    256.686369    0.00000    0.00000   -3.40499   19    diag,B
   22      0.757D-03      0.969D-04      -126.09901920    256.595892    0.00000    0.00000   -3.35235   20    diag,B
   23      0.725D-03      0.806D-04      -126.09911991    256.565676    0.00000    0.00000   -3.37329   21    diag,B
   24      0.291D-03      0.312D-04      -126.09915294    256.535328    0.00000    0.00000   -3.34524   22    diag,B
   25      0.344D-03      0.267D-04      -126.09915828    256.539637    0.00000    0.00000   -3.36952   23    diag,B
   26      0.464D-04      0.244D-04      -126.09916541    256.524927    0.00000    0.00000   -3.35242   24    diag,B
   27      0.112D-03      0.105D-04      -126.09916811    256.520464    0.00000    0.00000   -3.35407   25    diag,B
   28      0.457D-04      0.612D-05      -126.09916978    256.513324    0.00000    0.00000   -3.35275   26    diag,B
   29      0.267D-04      0.349D-05      -126.09917029    256.508633    0.00000    0.00000   -3.34864   27    diag,B
   30      0.607D-04      0.218D-05      -126.09917038    256.507455    0.00000    0.00000   -3.34884   28    orth
   31      0.126D-04      0.976D-06      -126.09917039    256.507639    0.00000    0.00000   -3.34868   29    diag,B
   32      0.164D-04      0.540D-06      -126.09917039    256.507709    0.00000    0.00000   -3.34856   29    diag,B
   33      0.436D-05      0.125D-06      -126.09917039    256.507680    0.00000    0.00000   -3.34859    0    orth

 Final alpha occupancy:   6   4   4   1
 Final beta  occupancy:   4   2   2   0

 !RKS STATE 1.4 Energy               -126.099170392480
   --><property name="Energy" method="RKS" principal="true" stateSymmetry="4" stateNumber="1"
     value="-126.09917039248"/><!--
 Nuclear energy                        21.98120722
 One-electron energy                 -264.37751678
 Two-electron energy                  128.25384009
 Density functional                   -11.95670092     PBEX=-14.88178071 PBEC= -0.79536539
 Virial quotient                       -0.86145129
 !RKS STATE 1.4 Dipole moment           0.00000000     0.00000000    -3.34858553
 Dipole moment /Debye                   0.00000000     0.00000000    -8.51069802
   --><property name="Dipole moment" method="RKS" principal="true" stateSymmetry="4"
     stateNumber="1" value="0.0 0.0 -3.348585531842"/><!--

 ELECTRON ORBITALS
 =================


   Orb  Occ    Energy  Couls-En    Coefficients

                                   1 1s      1 1s      1 1s      1 1s      1 1s      1 1s      1 1s      1 1s      1 1s      1 1s
                                   1 1s      1 1s      1 1s      1 1s      1 1s      1 1s      1 1s      1 1s      1 1s      1 1s
                                   1 1s      1 1s      1 1s      1 1s      1 1s      1 1s      1 1s      1 1s      1 1s      1 1s
                                   1 1s      1 1s      1 2pz     1 2pz     1 2pz     1 2pz     1 2pz     1 2pz     1 2pz     1 2pz
                                   1 2pz     1 2pz     1 2pz     1 2pz     1 2pz     1 2pz     1 2pz     1 2pz     1 2pz     1 2pz
                                   1 2pz     1 2pz     1 2pz     1 2pz     1 2pz     1 2pz     1 2pz     1 2pz     1 2pz     1 2pz
                                   1 2pz     1 2pz     1 3d0     1 3d2+    1 3d0     1 3d2+    1 3d0     1 3d2+    1 3d0     1 3d2+
                                   1 3d0     1 3d2+    1 3d0     1 3d2+    1 3d0     1 3d2+    1 3d0     1 3d2+    1 3d0     1 3d2+
                                   1 3d0     1 3d2+    1 3d0     1 3d2+    1 3d0     1 3d2+    1 3d0     1 3d2+    1 3d0     1 3d2+
                                   1 3d0     1 3d2+    1 3d0     1 3d2+    1 3d0     1 3d2+    1 3d0     1 3d2+    1 3d0     1 3d2+
                                   1 3d0     1 3d2+    1 3d0     1 3d2+    1 3d0     1 3d2+    1 4f0     1 4f2+    1 4f0     1 4f2+
                                   1 4f0     1 4f2+    1 4f0     1 4f2+    1 4f0     1 4f2+    1 4f0     1 4f2+    1 4f0     1 4f2+
                                   1 4f0     1 4f2+    1 4f0     1 4f2+    1 4f0     1 4f2+    1 4f0     1 4f2+    1 4f0     1 4f2+
                                   1 4f0     1 4f2+    1 4f0     1 4f2+    1 5g0     1 5g4+    1 5g2+    1 5g0     1 5g4+    1 5g2+
                                   1 5g0     1 5g4+    1 5g2+    1 5g0     1 5g4+    1 5g2+    1 5g0     1 5g4+    1 5g2+    1 5g0
                                   1 5g4+    1 5g2+    1 5g0     1 5g4+    1 5g2+    1 5g0     1 5g4+    1 5g2+    1 5g0     1 5g4+
                                   1 5g2+    1 6h2+    1 6h4+    1 6h0     1 6h2+    1 6h4+    1 6h0     1 6h2+    1 6h4+    1 6h0
                                   2 1s      2 1s      2 1s      2 1s      2 1s      2 1s      2 1s      2 1s      2 1s      2 1s
                                   2 1s      2 1s      2 1s      2 2pz     2 2pz     2 2pz     2 2pz     2 2pz     2 2pz     2 2pz
                                   2 2pz     2 3d0     2 3d2+    2 3d0     2 3d2+    2 3d0     2 3d2+    2 3d0     2 3d2+    2 4f0
                                   2 4f2+    2 4f0     2 4f2+

   1.1   2    -2.1948  -15.6680 -0.000000  0.000002 -0.000008  0.000148  0.000648  0.002014  0.004262  0.009513 -0.003816  0.008441
                                -0.006478  0.792702 -0.049179  0.032388  0.740099  0.456025  0.508369  0.343589  0.136402 -0.000258
                                -0.001166 -0.003445 -0.009808 -0.023021 -1.254835  0.181928 -0.240643 -0.607497 -0.203205 -0.006360
                                 0.002265 -0.000492 -0.000000  0.000000 -0.000000  0.000000 -0.000000  0.000000 -0.000000  0.000000
                                -0.000002  0.000017  0.000184  0.000117 -0.003619  0.000211  0.007269 -0.007681 -0.001854  0.000089
                                 0.000816 -0.000070 -0.000238  0.002061  0.003963 -0.002116 -0.017039  0.000121 -0.000103 -0.000198
                                -0.000038  0.000007  0.000000 -0.000000 -0.000000  0.000000  0.000001 -0.000000 -0.000003  0.000000
                                 0.000057 -0.000000  0.000793 -0.000000 -0.002301  0.000000  0.001057 -0.000000  0.001732 -0.000000
                                -0.002753 -0.000000 -0.000150  0.000000 -0.001744  0.000000  0.003005 -0.000000 -0.000467  0.000000
                                -0.008709  0.000000  0.000569  0.000000 -0.000659 -0.000000  0.000892  0.000000 -0.000308 -0.000000
                                 0.000048  0.000000 -0.000017 -0.000000  0.000005  0.000000 -0.000000 -0.000000  0.000000  0.000000
                                -0.000007 -0.000000 -0.000171 -0.000000 -0.000311 -0.000000 -0.000258 -0.000000 -0.000821  0.000000
                                -0.000020 -0.000000 -0.000030  0.000000  0.000367 -0.000000 -0.000322  0.000000  0.000355  0.000000
                                -0.000110 -0.000000  0.000020  0.000000 -0.000002 -0.000000  0.000000  0.000011  0.000000 -0.000000
                                -0.000051 -0.000000  0.000000  0.000183  0.000000  0.000000 -0.000310  0.000000 -0.000000  0.000146
                                -0.000000  0.000000 -0.000188  0.000000 -0.000000  0.000107 -0.000000  0.000000 -0.000012  0.000000
                                -0.000000  0.000000  0.000000  0.000000 -0.000000 -0.000000 -0.000001  0.000000  0.000000 -0.000004
                                -0.000000  0.000000 -0.000000  0.000000 -0.000003  0.000112 -0.000239  0.000334  0.000949  0.001011
                                -0.000884 -0.000087 -0.000174 -0.000018 -0.000163 -0.000401 -0.000806 -0.000516  0.000306  0.000009
                                 0.000005  0.000044  0.000000  0.000271  0.000000  0.000089 -0.000000  0.000004 -0.000000 -0.000030
                                 0.000000 -0.000056 -0.000000

   2.1   2    -1.3266  -13.1535 -0.000000  0.000000 -0.000000  0.000004  0.000018  0.000057  0.000120  0.000270 -0.000110  0.000261
                                -0.000531  0.024561  0.004947 -0.021951 -0.014030 -0.001391  0.026802  0.033382  0.013903 -0.000007
                                -0.000033 -0.000097 -0.000277 -0.000071 -0.042002  0.075421 -0.021888 -0.046025 -0.021161 -0.000616
                                 0.000217 -0.000047  0.000000 -0.000000  0.000001 -0.000002  0.000003 -0.000004  0.000009 -0.000026
                                 0.000109 -0.001046 -0.011505 -0.011324  0.158582 -0.099068  0.215431  0.336069  0.070680  0.003197
                                 0.001544  0.004277  0.015842 -0.073712 -0.201941  0.185438  0.374909  0.000945  0.000797 -0.001731
                                -0.000299  0.000058  0.000000  0.000000 -0.000001 -0.000000  0.000003  0.000000 -0.000018 -0.000000
                                 0.000335  0.000000  0.003077  0.000000 -0.007173 -0.000000  0.003774  0.000000  0.011060  0.000000
                                -0.012853  0.000000 -0.000801 -0.000000 -0.005937 -0.000000  0.009409  0.000000 -0.007038 -0.000000
                                -0.014043 -0.000000 -0.002116 -0.000000 -0.003792  0.000000  0.003412 -0.000000 -0.001663  0.000000
                                 0.000409 -0.000000 -0.000160  0.000000  0.000044 -0.000000 -0.000000 -0.000000  0.000004  0.000000
                                -0.000064 -0.000000 -0.001645 -0.000000 -0.003299 -0.000000 -0.003591 -0.000000 -0.009010 -0.000000
                                -0.000279 -0.000000  0.000498 -0.000000  0.000240 -0.000000 -0.002284 -0.000000  0.001529  0.000000
                                -0.000650  0.000000  0.000161 -0.000000 -0.000000  0.000000  0.000000  0.000003  0.000000 -0.000000
                                -0.000049 -0.000000  0.000000  0.000166  0.000000 -0.000000 -0.000858 -0.000000 -0.000000  0.000923
                                -0.000000  0.000000 -0.000665  0.000000 -0.000000  0.000225 -0.000000  0.000000 -0.000011  0.000000
                                -0.000000  0.000000  0.000000 -0.000003 -0.000000  0.000000  0.000010  0.000000 -0.000000  0.000005
                                -0.000000  0.000000 -0.000001  0.000008 -0.000061  0.002247 -0.004841  0.007904  0.023090  0.015968
                                -0.000420 -0.002021 -0.003555 -0.000187 -0.001647 -0.005136 -0.008183 -0.006069  0.000541 -0.000082
                                 0.000051  0.000342  0.000000  0.001417  0.000000  0.001003 -0.000000  0.000024 -0.000000 -0.000161
                                 0.000000 -0.000295 -0.000000

   3.1   2    -0.9901   -9.4982  0.000000 -0.000000  0.000000 -0.000006 -0.000026 -0.000080 -0.000169 -0.000379  0.000153 -0.000407
                                 0.002006 -0.016701  0.012090 -0.022767 -0.081242 -0.021224 -0.103242  0.073368  0.011333  0.000010
                                 0.000046  0.000137  0.000390 -0.002258  0.028145  0.054821  0.080948  0.014971 -0.024775  0.000004
                                -0.000039  0.000012 -0.000000  0.000000 -0.000000  0.000000 -0.000000  0.000001 -0.000001  0.000004
                                -0.000015  0.000140  0.001549  0.001790 -0.007653  0.015598  0.009808 -0.014679  0.004684 -0.030804
                                 0.071564 -0.000572 -0.002180  0.001662  0.010634 -0.028155 -0.063679 -0.009212 -0.052082  0.028451
                                 0.002246 -0.000383  0.000000 -0.000000 -0.000000  0.000000  0.000002 -0.000000 -0.000011  0.000000
                                 0.000204 -0.000000  0.001914 -0.000000 -0.003322  0.000000  0.000160  0.000000  0.007599  0.000000
                                 0.018738  0.000000 -0.000491  0.000000 -0.003682  0.000000  0.005222 -0.000000 -0.004653 -0.000000
                                 0.002959  0.000000  0.008311 -0.000000 -0.018623  0.000000  0.033329 -0.000000 -0.009828  0.000000
                                 0.001477 -0.000000 -0.000503 -0.000000  0.000133  0.000000  0.000000  0.000000 -0.000003 -0.000000
                                 0.000046  0.000000  0.001138  0.000000  0.002303 -0.000000  0.002752 -0.000000  0.002711 -0.000000
                                 0.000229  0.000000 -0.000436  0.000000  0.004453 -0.000000 -0.009479 -0.000000  0.011874  0.000000
                                -0.001604 -0.000000  0.000036  0.000000 -0.000002  0.000000  0.000000  0.000018 -0.000000 -0.000000
                                -0.000040  0.000000  0.000000  0.000247 -0.000000 -0.000000 -0.000345 -0.000000 -0.000000  0.002445
                                 0.000000  0.000000 -0.004805 -0.000000 -0.000000  0.002149  0.000000  0.000000  0.001114 -0.000000
                                -0.000000  0.000000 -0.000000  0.000004 -0.000000  0.000000 -0.000014  0.000000 -0.000000  0.000082
                                -0.000000  0.000005 -0.000035  0.000208 -0.001498  0.053593 -0.103283  0.196554  0.551861  0.400459
                                -0.008745 -0.056804 -0.086371 -0.000287 -0.002273 -0.011020 -0.012212 -0.035962  0.007008 -0.000714
                                 0.000071  0.000592  0.000000  0.002620  0.000000  0.010212  0.000000 -0.000005 -0.000000  0.000075
                                 0.000000 -0.001543 -0.000000

   4.1   2    -0.4206   -8.2486 -0.000000  0.000000 -0.000002  0.000033  0.000143  0.000446  0.000946  0.002123 -0.000863  0.002204
                                -0.008778  0.130675 -0.027565  0.058130  0.332624  0.241467  0.295482  0.218780 -0.061927 -0.000057
                                -0.000258 -0.000763 -0.002185  0.008313 -0.227869 -0.102565 -0.356310 -0.658207  0.025804  0.007193
                                -0.002875  0.000659  0.000000 -0.000000  0.000000 -0.000000  0.000000 -0.000000  0.000001 -0.000002
                                 0.000007 -0.000067 -0.000761 -0.000927  0.004263 -0.012550 -0.042130  0.001522 -0.021517  0.048679
                                 0.013323  0.000276  0.001092 -0.000898 -0.004869  0.031565  0.074761  0.038865  0.085982 -0.090404
                                -0.010863  0.001987  0.000000  0.000000 -0.000000 -0.000000  0.000001  0.000000 -0.000004 -0.000000
                                 0.000037  0.000000 -0.000086 -0.000000 -0.006345  0.000000  0.014594 -0.000000 -0.025750  0.000000
                                -0.136399  0.000000 -0.000052  0.000000  0.000337  0.000000  0.002827 -0.000000  0.007170 -0.000000
                                -0.070461  0.000000 -0.098403  0.000000 -0.018090  0.000000 -0.011893  0.000000  0.019227 -0.000000
                                -0.014602  0.000000  0.006573 -0.000000 -0.001914  0.000000 -0.000002 -0.000000  0.000017  0.000000
                                -0.000258 -0.000000 -0.005849 -0.000000 -0.010820 -0.000000 -0.012629 -0.000000 -0.006974 -0.000000
                                -0.001679 -0.000000  0.000836 -0.000000 -0.008270 -0.000000  0.011208 -0.000000  0.008003 -0.000000
                                 0.001916 -0.000000 -0.002480 -0.000000 -0.000007 -0.000000  0.000000  0.000017  0.000000 -0.000000
                                -0.000023  0.000000  0.000000 -0.000255 -0.000000 -0.000000  0.001908  0.000000 -0.000000 -0.004403
                                -0.000001 -0.000000  0.005960  0.000001  0.000000  0.003132 -0.000000 -0.000000  0.000288  0.000000
                                 0.000000  0.000000  0.000000 -0.000009 -0.000000  0.000000  0.000037  0.000000 -0.000000 -0.000159
                                -0.000000  0.000000 -0.000002  0.000014 -0.000118  0.005649 -0.017446  0.020554  0.088178  0.063618
                                -0.052202 -0.002199 -0.008632  0.008111  0.071651  0.239248  0.357606  0.292611  0.063530  0.005359
                                -0.002194 -0.002268 -0.000000 -0.007413 -0.000000 -0.018748 -0.000000 -0.000207  0.000000  0.000744
                                -0.000000  0.002671  0.000000

   5.1   +    -0.9441  -15.7041  0.000000 -0.000000  0.000000 -0.000000 -0.000000 -0.000000 -0.000000 -0.000000  0.000000 -0.000000
                                 0.000000  0.000000  0.000000 -0.000000 -0.000000  0.000000  0.000000  0.000000  0.000000  0.000000
                                 0.000000  0.000000  0.000000 -0.000000 -0.000000  0.000000 -0.000000 -0.000000 -0.000000 -0.000000
                                 0.000000 -0.000000  0.000000 -0.000000  0.000000 -0.000000  0.000000 -0.000000  0.000000 -0.000000
                                 0.000000 -0.000000 -0.000000 -0.000000 -0.000000 -0.000000 -0.000000  0.000000 -0.000000 -0.000000
                                 0.000000  0.000000  0.000000  0.000000  0.000000  0.000000  0.000000 -0.000000 -0.000000  0.000000
                                 0.000000 -0.000000 -0.000000  0.000000 -0.000000 -0.000000  0.000000  0.000001 -0.000000 -0.000003
                                -0.000000  0.000062 -0.000000  0.000557  0.000000 -0.001357  0.000000  0.000995  0.000000  0.000658
                                 0.000000 -0.005894  0.000000 -0.000148  0.000000 -0.001051 -0.000000  0.001685  0.000000 -0.000928
                                -0.000000 -0.004051 -0.000000 -0.000684  0.000000 -0.001499  0.000000  0.001074  0.000000 -0.000585
                                -0.000000  0.000163  0.000000 -0.000051 -0.000000  0.000015  0.000000  0.000097 -0.000000 -0.000782
                                 0.000000  0.011148  0.000000  0.228040  0.000000  0.363274  0.000000  0.378140  0.000000  0.196929
                                 0.000000  0.099604  0.000000  0.055705 -0.000000 -0.021419  0.000000  0.042034  0.000000 -0.028186
                                 0.000000  0.015783 -0.000000 -0.005480  0.000000 -0.000000 -0.000006 -0.000000 -0.000000  0.000007
                                 0.000000  0.000000 -0.000093 -0.000000 -0.000000 -0.000172  0.000000  0.000000 -0.001545 -0.000000
                                -0.000000 -0.001147 -0.000000  0.000000 -0.000263  0.000000 -0.000000  0.000122  0.000000  0.000000
                                 0.000011 -0.000014 -0.000000 -0.000000  0.000038 -0.000000  0.000000 -0.000965 -0.000000 -0.000000
                                -0.000000  0.000000 -0.000000  0.000000 -0.000000  0.000000  0.000000  0.000000 -0.000000  0.000000
                                -0.000000 -0.000000 -0.000000  0.000000  0.000000  0.000000  0.000000 -0.000000  0.000000 -0.000000
                                -0.000000 -0.000000  0.000028  0.000000  0.000049  0.000000 -0.000307  0.000000  0.000001  0.000000
                                -0.000003 -0.000000 -0.000004

   6.1   +    -0.9409  -15.7089  0.000000 -0.000000  0.000000 -0.000002 -0.000007 -0.000022 -0.000047 -0.000105  0.000041 -0.000196
                                 0.002823  0.021950  0.031669 -0.073480 -0.247228  0.109020 -0.059370 -0.233814 -0.017797  0.000003
                                 0.000013  0.000038  0.000108 -0.004618 -0.039118  0.276126 -0.107685  0.235175  0.049820 -0.000658
                                 0.000337 -0.000083 -0.000000  0.000000 -0.000000  0.000000 -0.000000  0.000000 -0.000000  0.000000
                                -0.000000  0.000001 -0.000008  0.000082  0.004028  0.003439  0.044307  0.073799 -0.093247  0.058604
                                -0.090053  0.000001 -0.000003 -0.002432 -0.006561 -0.007383 -0.055524  0.002706  0.044518 -0.014176
                                -0.000412  0.000050  0.000000 -0.000000 -0.000001  0.000000  0.000002 -0.000000 -0.000013  0.000000
                                 0.000230 -0.000000  0.002128 -0.000000 -0.005473  0.000000  0.003771 -0.000000  0.008595 -0.000000
                                 0.007739  0.000000 -0.000550  0.000000 -0.004140  0.000000  0.006836 -0.000000 -0.005906  0.000000
                                -0.020072  0.000000 -0.069071  0.000000  0.051237  0.000000 -0.050236 -0.000000  0.013166 -0.000000
                                -0.000418  0.000000  0.000029 -0.000000  0.000003  0.000000  0.000098 -0.000000 -0.000789  0.000000
                                 0.011201 -0.000000  0.227672 -0.000000  0.359578 -0.000000  0.375071 -0.000000  0.201031 -0.000000
                                 0.101347 -0.000000  0.060297 -0.000000 -0.034642  0.000000  0.042155 -0.000000 -0.030440  0.000000
                                 0.011598 -0.000000 -0.002918  0.000000  0.000060  0.000000 -0.000000 -0.000243 -0.000000  0.000000
                                 0.000614  0.000000 -0.000000 -0.001969  0.000000  0.000000  0.002031 -0.000000  0.000000 -0.008163
                                 0.000000  0.000000 -0.000616 -0.000000 -0.000000  0.003393  0.000000  0.000000 -0.002771 -0.000000
                                -0.000000  0.000000 -0.000000 -0.000023 -0.000000  0.000001  0.000076  0.000000  0.000009 -0.001271
                                 0.000000 -0.000000  0.000000 -0.000000  0.000003 -0.000261  0.001744  0.000834 -0.012194 -0.006596
                                 0.073392 -0.000942  0.000311  0.000209  0.001858  0.006469  0.012931 -0.011664 -0.022424  0.000218
                                -0.000055 -0.000554  0.000000  0.002875  0.000000  0.015604  0.000000  0.000068 -0.000000  0.000411
                                 0.000000 -0.004981 -0.000000

   7.1   0    -0.3320   -7.0646  0.000000 -0.000001  0.000003 -0.000057 -0.000249 -0.000774 -0.001638 -0.003661  0.001489 -0.003764
                                 0.016232 -0.217327  0.036851 -0.064902 -0.449566 -0.381957 -0.073449 -0.086708 -0.253315  0.000099
                                 0.000448  0.001324  0.003771 -0.019431  0.405286 -0.018575  0.380565  0.814337  0.420579  0.014045
                                -0.005225  0.001171  0.000000 -0.000000  0.000000 -0.000000  0.000000 -0.000001  0.000001 -0.000003
                                 0.000014 -0.000139 -0.001519 -0.001690  0.010281 -0.011962 -0.008693  0.041032 -0.026091 -0.114004
                                -0.119335  0.000567  0.002115 -0.003014 -0.018762  0.034046  0.084167  0.022352  0.067773 -0.057354
                                -0.006100  0.001112  0.000000 -0.000000 -0.000001  0.000000  0.000005 -0.000000 -0.000025  0.000000
                                 0.000396 -0.000000  0.003353 -0.000000 -0.016540  0.000000  0.022043 -0.000000 -0.017301 -0.000000
                                -0.171092  0.000000 -0.000905  0.000000 -0.006577  0.000000  0.015030 -0.000000 -0.003801  0.000000
                                -0.100373  0.000000 -0.125094  0.000000 -0.057507  0.000000 -0.046465  0.000000  0.010669 -0.000000
                                -0.006096  0.000000  0.002725 -0.000000 -0.000798  0.000000 -0.000000  0.000000  0.000002 -0.000000
                                -0.000035  0.000000 -0.000778  0.000000 -0.001446  0.000000 -0.001494  0.000000  0.000582  0.000000
                                -0.000226  0.000000  0.000170  0.000000  0.004284 -0.000000  0.015634 -0.000000 -0.003034 -0.000000
                                 0.002841 -0.000000 -0.001087 -0.000000 -0.000009 -0.000000 -0.000000  0.000040  0.000000  0.000000
                                -0.000080 -0.000000 -0.000000  0.000069  0.000000  0.000000  0.001550 -0.000000 -0.000000  0.000288
                                 0.000000 -0.000000  0.002054 -0.000000 -0.000000 -0.002825  0.000000  0.000000 -0.000480 -0.000000
                                 0.000000 -0.000000  0.000000  0.000000  0.000000 -0.000000 -0.000002 -0.000000  0.000000  0.000010
                                 0.000000 -0.000000  0.000001 -0.000005  0.000034 -0.000850 -0.000366 -0.003551 -0.003050 -0.008080
                                 0.007523  0.002113  0.001561  0.002400  0.021221  0.071051  0.106206  0.090282  0.016310  0.001587
                                -0.000649 -0.000629 -0.000000 -0.002407 -0.000000 -0.006292  0.000000 -0.000061  0.000000  0.000271
                                -0.000000  0.001305 -0.000000

   8.1   0    -0.3146   -8.5600 -0.000000  0.000000 -0.000000  0.000000  0.000000  0.000000  0.000000  0.000000 -0.000000  0.000000
                                -0.000000 -0.000000 -0.000000 -0.000000 -0.000000  0.000000  0.000000  0.000000  0.000000 -0.000000
                                -0.000000 -0.000000 -0.000000  0.000000  0.000000  0.000000 -0.000000 -0.000000 -0.000000 -0.000000
                                 0.000000 -0.000000  0.000000 -0.000000  0.000000 -0.000000  0.000000 -0.000000  0.000000 -0.000000
                                 0.000000 -0.000000 -0.000000 -0.000000 -0.000000 -0.000000 -0.000000 -0.000000  0.000000  0.000000
                                -0.000000  0.000000  0.000000  0.000000  0.000000  0.000000  0.000000  0.000000  0.000000 -0.000000
                                -0.000000  0.000000  0.000000 -0.000001 -0.000000  0.000005  0.000000 -0.000021 -0.000000  0.000108
                                 0.000000 -0.001856  0.000000 -0.016426 -0.000000  0.057057  0.000000 -0.059328  0.000000  0.015344
                                -0.000000  0.387340 -0.000000  0.004346 -0.000000  0.031868  0.000000 -0.060340 -0.000000  0.025538
                                 0.000000  0.265077  0.000000  0.286872  0.000000  0.154841 -0.000000  0.089302  0.000000 -0.002910
                                 0.000000  0.005132 -0.000000 -0.002069  0.000000  0.000599 -0.000000  0.000002  0.000000 -0.000015
                                -0.000000  0.000211  0.000000  0.004207  0.000000  0.006421  0.000000  0.006169 -0.000000 -0.000395
                                -0.000000  0.001927 -0.000000  0.001335  0.000000 -0.016431  0.000000 -0.022064 -0.000000 -0.007926
                                 0.000000 -0.001438  0.000000  0.000154 -0.000000  0.000000  0.000005  0.000000 -0.000000 -0.000046
                                -0.000000  0.000000  0.000073  0.000000 -0.000000 -0.000322 -0.000000  0.000000 -0.002302  0.000000
                                -0.000000 -0.003420  0.000000  0.000000 -0.000964 -0.000000 -0.000000 -0.000187 -0.000000  0.000000
                                 0.000170 -0.000006 -0.000000  0.000000  0.000025  0.000000 -0.000000 -0.000138  0.000000  0.000000
                                 0.000000 -0.000000  0.000000 -0.000000  0.000000 -0.000000 -0.000000 -0.000000  0.000000 -0.000000
                                 0.000000  0.000000  0.000000 -0.000000 -0.000000 -0.000000 -0.000000  0.000000 -0.000000  0.000000
                                 0.000000  0.000000  0.000206  0.000000  0.001141 -0.000000  0.001309 -0.000000  0.000021 -0.000000
                                -0.000077  0.000000 -0.000605

                                   1 2px     1 2px     1 2px     1 2px     1 2px     1 2px     1 2px     1 2px     1 2px     1 2px
                                   1 2px     1 2px     1 2px     1 2px     1 2px     1 2px     1 2px     1 2px     1 2px     1 2px
                                   1 2px     1 2px     1 2px     1 2px     1 2px     1 2px     1 2px     1 2px     1 2px     1 2px
                                   1 3d1+    1 3d1+    1 3d1+    1 3d1+    1 3d1+    1 3d1+    1 3d1+    1 3d1+    1 3d1+    1 3d1+
                                   1 3d1+    1 3d1+    1 3d1+    1 3d1+    1 3d1+    1 3d1+    1 3d1+    1 3d1+    1 3d1+    1 3d1+
                                   1 3d1+    1 3d1+    1 4f1+    1 4f3+    1 4f1+    1 4f3+    1 4f1+    1 4f3+    1 4f1+    1 4f3+
                                   1 4f1+    1 4f3+    1 4f1+    1 4f3+    1 4f1+    1 4f3+    1 4f1+    1 4f3+    1 4f1+    1 4f3+
                                   1 4f1+    1 4f3+    1 4f1+    1 4f3+    1 4f1+    1 4f3+    1 4f1+    1 4f3+    1 4f1+    1 4f3+
                                   1 5g1+    1 5g3+    1 5g1+    1 5g3+    1 5g1+    1 5g3+    1 5g1+    1 5g3+    1 5g1+    1 5g3+
                                   1 5g1+    1 5g3+    1 5g1+    1 5g3+    1 5g1+    1 5g3+    1 5g1+    1 5g3+    1 6h1+    1 6h3+
                                   1 6h5+    1 6h1+    1 6h3+    1 6h5+    1 6h1+    1 6h3+    1 6h5+    2 2px     2 2px     2 2px
                                   2 2px     2 2px     2 2px     2 2px     2 2px     2 3d1+    2 3d1+    2 3d1+    2 3d1+    2 4f1+
                                   2 4f3+    2 4f1+    2 4f3+

   1.2   2    -1.3494  -13.1083  0.000000 -0.000000  0.000001 -0.000002  0.000003 -0.000004  0.000009 -0.000025  0.000105 -0.001009
                                -0.011104 -0.010873  0.159846 -0.096975  0.205656  0.337628  0.064682  0.006517 -0.004936  0.004128
                                 0.015289 -0.074893 -0.203338  0.181938  0.392883  0.002143  0.006926 -0.005335 -0.000592  0.000108
                                 0.000000 -0.000000  0.000001 -0.000007  0.000122  0.001014 -0.002390  0.001644  0.004393 -0.010991
                                -0.000287 -0.001860  0.002953 -0.002492 -0.007265 -0.002737 -0.000506  0.000289 -0.000028  0.000031
                                -0.000016  0.000005 -0.000000  0.000000  0.000002 -0.000000 -0.000040 -0.000000 -0.001253  0.000000
                                -0.002951  0.000000 -0.003061  0.000000 -0.006354  0.000000  0.000041 -0.000000  0.001050 -0.000000
                                -0.000075 -0.000000 -0.000548  0.000000  0.000457 -0.000000 -0.000137  0.000000  0.000057 -0.000000
                                -0.000002  0.000000  0.000008  0.000000 -0.000045 -0.000000  0.000121  0.000000 -0.000555  0.000000
                                 0.000237 -0.000000  0.000036  0.000000 -0.000085 -0.000000  0.000087  0.000000 -0.000004  0.000000
                                -0.000000  0.000015  0.000000 -0.000000 -0.000026 -0.000000  0.000000  0.000042  0.000372  0.001115
                                 0.001791  0.001256 -0.000192  0.000007 -0.000012 -0.000074 -0.000415 -0.000296 -0.000008  0.000055
                                 0.000000  0.000131 -0.000000

   2.2   2    -0.3954   -8.0866  0.000000 -0.000000  0.000000 -0.000000  0.000000 -0.000000  0.000000 -0.000001  0.000004 -0.000039
                                -0.000434 -0.000480  0.003742 -0.003143  0.005398  0.022752 -0.013665 -0.016336 -0.035049  0.000160
                                 0.000608 -0.001361 -0.005912  0.007710  0.011672  0.003323  0.029123 -0.013889 -0.000616  0.000086
                                 0.000000 -0.000002  0.000007 -0.000034  0.000603  0.005179 -0.018470  0.021007 -0.005762 -0.133670
                                -0.001411 -0.009854  0.018900 -0.006886 -0.091993 -0.122856 -0.050858 -0.054058  0.017834 -0.003537
                                 0.001051 -0.000262 -0.000001 -0.000000  0.000012  0.000000 -0.000192 -0.000000 -0.004650 -0.000001
                                -0.009124 -0.000002 -0.010262 -0.000002 -0.004942 -0.000001 -0.000990 -0.000001  0.001435 -0.000000
                                -0.005817 -0.000000 -0.006205 -0.000000 -0.006300 -0.000001  0.003292 -0.000000  0.000498  0.000000
                                 0.000021 -0.000000 -0.000086  0.000000  0.000251 -0.000000 -0.000779  0.000000  0.002395  0.000001
                                -0.003172 -0.000001 -0.000181  0.000001 -0.001032 -0.000001 -0.000377  0.000000 -0.000003 -0.000000
                                -0.000000  0.000014  0.000000 -0.000000 -0.000074  0.000000 -0.000000 -0.008991 -0.078969 -0.262793
                                -0.392157 -0.315934 -0.063897 -0.005709  0.002445  0.002023  0.006308  0.020074  0.000186 -0.000273
                                 0.000000 -0.004393  0.000000

   3.2   +    -0.9474  -15.6884  0.000000 -0.000000  0.000000 -0.000000  0.000000 -0.000000  0.000000 -0.000000  0.000000 -0.000000
                                -0.000000 -0.000001 -0.000004 -0.000004 -0.000010 -0.000006  0.000004 -0.000003  0.000003  0.000000
                                 0.000001  0.000003  0.000004  0.000005  0.000010 -0.000001 -0.000003  0.000002  0.000000 -0.000000
                                -0.000000  0.000000 -0.000000  0.000000 -0.000000 -0.000002  0.000004 -0.000002 -0.000004 -0.000002
                                 0.000000  0.000003 -0.000005  0.000003  0.000003  0.000004 -0.000003  0.000002 -0.000001  0.000000
                                -0.000000  0.000000 -0.000000  0.000097  0.000000 -0.000780 -0.000001  0.011123 -0.000023  0.227803
                                -0.000037  0.363530 -0.000038  0.378633 -0.000020  0.198864 -0.000010  0.099154 -0.000006  0.054693
                                 0.000003 -0.021458 -0.000004  0.041967  0.000002 -0.028446 -0.000001  0.015896  0.000000 -0.005516
                                 0.000000 -0.000004 -0.000000 -0.000000  0.000000 -0.000072  0.000000 -0.000128 -0.000000 -0.001028
                                 0.000000 -0.000864  0.000001 -0.000285 -0.000001 -0.000042  0.000000  0.000022 -0.000000 -0.000007
                                 0.000000  0.000001  0.000013 -0.000000  0.000007 -0.000654 -0.000005 -0.000000 -0.000000 -0.000001
                                -0.000001 -0.000001 -0.000001 -0.000000  0.000000 -0.000000  0.000000  0.000001  0.000000  0.000000
                                 0.000017 -0.000002 -0.000066

   4.2   +    -0.9418  -15.7091 -0.000000  0.000000 -0.000000  0.000000 -0.000000  0.000000 -0.000000  0.000001 -0.000002  0.000020
                                 0.000204  0.000319  0.003897  0.002530  0.009439  0.009160 -0.005053  0.007333 -0.008158 -0.000078
                                -0.000294 -0.002696 -0.004888 -0.001017 -0.007116  0.000536  0.001400 -0.001303 -0.000144  0.000026
                                 0.000000 -0.000001  0.000003 -0.000015  0.000282  0.002542 -0.005863  0.003378  0.004801 -0.008824
                                -0.000670 -0.004853  0.007629 -0.004463 -0.012123 -0.012048  0.005761 -0.007154 -0.001786  0.000085
                                 0.000006 -0.000004  0.000098  0.000000 -0.000784 -0.000000  0.011165  0.000001  0.228081  0.000023
                                 0.362673  0.000037  0.377519  0.000038  0.196208  0.000020  0.100014  0.000010  0.056721  0.000005
                                -0.023080 -0.000002  0.043444  0.000004 -0.029682 -0.000003  0.012620  0.000002 -0.004698 -0.000001
                                 0.000006  0.000000 -0.000037 -0.000000  0.000038  0.000000 -0.000526  0.000000 -0.001183 -0.000000
                                -0.002132 -0.000000 -0.000301  0.000000  0.001637 -0.000000 -0.002889  0.000000 -0.000017 -0.000000
                                 0.000000  0.000054  0.000001 -0.000000 -0.001162  0.000012 -0.000002 -0.000205 -0.001787 -0.006259
                                -0.009276 -0.010249  0.006664 -0.000190  0.000055  0.000122 -0.000631  0.001095 -0.000019 -0.000407
                                 0.000000  0.002199 -0.000000

   5.2   0    -0.2925   -8.2539 -0.000000  0.000000 -0.000000  0.000000 -0.000001  0.000001 -0.000001  0.000004 -0.000018  0.000175
                                 0.001905  0.002113 -0.013331  0.013120 -0.027669 -0.053863  0.044756  0.138294  0.117366 -0.000711
                                -0.002651  0.004011  0.025103 -0.032655 -0.070291 -0.010699 -0.038931  0.033398  0.002709 -0.000475
                                 0.000001 -0.000005  0.000020 -0.000105  0.001810  0.016041 -0.053666  0.053973 -0.015526 -0.340928
                                -0.004245 -0.031052  0.057710 -0.023897 -0.234120 -0.255481 -0.154572 -0.084143 -0.010256 -0.003542
                                 0.001637 -0.000501 -0.000003  0.000000  0.000026 -0.000000 -0.000370  0.000000 -0.007292 -0.000000
                                -0.010917 -0.000000 -0.010445 -0.000000  0.001744  0.000000 -0.003445  0.000000 -0.002641  0.000000
                                 0.024337 -0.000000  0.034181  0.000000  0.020494 -0.000000 -0.001627  0.000000  0.000474 -0.000000
                                 0.000005 -0.000000  0.000024  0.000000  0.000024 -0.000000  0.000228  0.000000  0.003676  0.000000
                                 0.005647 -0.000000  0.003758  0.000000  0.003941  0.000000 -0.000658 -0.000000  0.000011  0.000000
                                -0.000000 -0.000045 -0.000000  0.000000  0.000264 -0.000000  0.000000  0.004110  0.036105  0.121103
                                 0.180178  0.150802  0.046773  0.002726 -0.001116  0.000082  0.001986 -0.003587  0.000005 -0.000213
                                -0.000000  0.000479  0.000000

   6.2   0    -0.1925   -5.6281 -0.000000  0.000000 -0.000000  0.000001 -0.000001  0.000002 -0.000004  0.000011 -0.000048  0.000459
                                 0.005010  0.005706 -0.026986  0.036123 -0.038667 -0.142494  0.048048  0.399936  0.540489 -0.001868
                                -0.006999  0.005799  0.055010 -0.090753 -0.182439 -0.030159  0.024880  0.134574  0.009822 -0.001850
                                -0.000000  0.000002 -0.000009  0.000045 -0.000793 -0.007046  0.021635 -0.020124  0.000252  0.122491
                                 0.001865  0.013578 -0.024207  0.011789  0.087756  0.088590  0.001371 -0.040603 -0.023628 -0.013722
                                 0.002671 -0.000738  0.000001  0.000000 -0.000010 -0.000000  0.000137  0.000000  0.002784  0.000000
                                 0.004356  0.000000  0.004016  0.000000  0.000569 -0.000000  0.001201 -0.000000  0.000707 -0.000000
                                -0.015113  0.000000 -0.022382 -0.000000 -0.013958  0.000001  0.004013 -0.000000 -0.002162  0.000000
                                -0.000003 -0.000000 -0.000007  0.000000 -0.000020 -0.000000 -0.000109  0.000000 -0.001117 -0.000000
                                -0.003099  0.000001  0.001323 -0.000001 -0.004588  0.000001  0.003405 -0.000000 -0.000004 -0.000000
                                 0.000000  0.000016  0.000000 -0.000000 -0.000119  0.000000 -0.000000 -0.002311 -0.020288 -0.068973
                                -0.102036 -0.092092 -0.055224 -0.001655  0.000626 -0.000457 -0.003261  0.001448 -0.000042  0.000223
                                 0.000000 -0.000477 -0.000000

                                   1 2py     1 2py     1 2py     1 2py     1 2py     1 2py     1 2py     1 2py     1 2py     1 2py
                                   1 2py     1 2py     1 2py     1 2py     1 2py     1 2py     1 2py     1 2py     1 2py     1 2py
                                   1 2py     1 2py     1 2py     1 2py     1 2py     1 2py     1 2py     1 2py     1 2py     1 2py
                                   1 3d1-    1 3d1-    1 3d1-    1 3d1-    1 3d1-    1 3d1-    1 3d1-    1 3d1-    1 3d1-    1 3d1-
                                   1 3d1-    1 3d1-    1 3d1-    1 3d1-    1 3d1-    1 3d1-    1 3d1-    1 3d1-    1 3d1-    1 3d1-
                                   1 3d1-    1 3d1-    1 4f1-    1 4f3-    1 4f1-    1 4f3-    1 4f1-    1 4f3-    1 4f1-    1 4f3-
                                   1 4f1-    1 4f3-    1 4f1-    1 4f3-    1 4f1-    1 4f3-    1 4f1-    1 4f3-    1 4f1-    1 4f3-
                                   1 4f1-    1 4f3-    1 4f1-    1 4f3-    1 4f1-    1 4f3-    1 4f1-    1 4f3-    1 4f1-    1 4f3-
                                   1 5g1-    1 5g3-    1 5g1-    1 5g3-    1 5g1-    1 5g3-    1 5g1-    1 5g3-    1 5g1-    1 5g3-
                                   1 5g1-    1 5g3-    1 5g1-    1 5g3-    1 5g1-    1 5g3-    1 5g1-    1 5g3-    1 6h1-    1 6h3-
                                   1 6h5-    1 6h1-    1 6h3-    1 6h5-    1 6h1-    1 6h3-    1 6h5-    2 2py     2 2py     2 2py
                                   2 2py     2 2py     2 2py     2 2py     2 2py     2 3d1-    2 3d1-    2 3d1-    2 3d1-    2 4f1-
                                   2 4f3-    2 4f1-    2 4f3-

   1.3   2    -1.3494  -13.1083  0.000000 -0.000000  0.000001 -0.000002  0.000003 -0.000004  0.000009 -0.000025  0.000105 -0.001009
                                -0.011104 -0.010873  0.159846 -0.096975  0.205656  0.337628  0.064682  0.006517 -0.004936  0.004128
                                 0.015289 -0.074893 -0.203338  0.181938  0.392883  0.002143  0.006926 -0.005335 -0.000592  0.000108
                                 0.000000 -0.000000  0.000001 -0.000007  0.000122  0.001014 -0.002390  0.001644  0.004393 -0.010991
                                -0.000287 -0.001860  0.002953 -0.002492 -0.007265 -0.002737 -0.000506  0.000289 -0.000028  0.000031
                                -0.000016  0.000005 -0.000000 -0.000000  0.000002  0.000000 -0.000040  0.000000 -0.001253 -0.000000
                                -0.002951 -0.000000 -0.003061 -0.000000 -0.006354 -0.000000  0.000041  0.000000  0.001050  0.000000
                                -0.000075  0.000000 -0.000548 -0.000000  0.000457  0.000000 -0.000137 -0.000000  0.000057  0.000000
                                -0.000002 -0.000000  0.000008 -0.000000 -0.000045  0.000000  0.000121 -0.000000 -0.000555 -0.000000
                                 0.000237  0.000000  0.000036 -0.000000 -0.000085  0.000000  0.000087 -0.000000 -0.000004 -0.000000
                                -0.000000  0.000015 -0.000000 -0.000000 -0.000026  0.000000  0.000000  0.000042  0.000372  0.001115
                                 0.001791  0.001256 -0.000192  0.000007 -0.000012 -0.000074 -0.000415 -0.000296 -0.000008  0.000055
                                -0.000000  0.000131  0.000000

   2.3   2    -0.3954   -8.0866  0.000000 -0.000000  0.000000 -0.000000  0.000000 -0.000000  0.000000 -0.000001  0.000004 -0.000039
                                -0.000434 -0.000480  0.003742 -0.003143  0.005398  0.022752 -0.013665 -0.016336 -0.035049  0.000160
                                 0.000608 -0.001361 -0.005912  0.007710  0.011672  0.003323  0.029123 -0.013889 -0.000616  0.000086
                                 0.000000 -0.000002  0.000007 -0.000034  0.000603  0.005179 -0.018470  0.021007 -0.005762 -0.133670
                                -0.001411 -0.009854  0.018900 -0.006886 -0.091993 -0.122856 -0.050858 -0.054058  0.017834 -0.003537
                                 0.001051 -0.000262 -0.000001  0.000000  0.000012 -0.000000 -0.000192  0.000000 -0.004650  0.000001
                                -0.009124  0.000002 -0.010262  0.000002 -0.004942  0.000001 -0.000990  0.000001  0.001435  0.000000
                                -0.005817  0.000000 -0.006205  0.000000 -0.006300  0.000001  0.003292  0.000000  0.000498 -0.000000
                                 0.000021  0.000000 -0.000086 -0.000000  0.000251  0.000000 -0.000779 -0.000000  0.002395 -0.000001
                                -0.003172  0.000001 -0.000181 -0.000001 -0.001032  0.000001 -0.000377 -0.000000 -0.000003  0.000000
                                -0.000000  0.000014 -0.000000 -0.000000 -0.000074 -0.000000 -0.000000 -0.008991 -0.078969 -0.262793
                                -0.392157 -0.315934 -0.063897 -0.005709  0.002445  0.002023  0.006308  0.020074  0.000186 -0.000273
                                -0.000000 -0.004393 -0.000000

   3.3   +    -0.9474  -15.6884 -0.000000  0.000000 -0.000000  0.000000 -0.000000  0.000000 -0.000000  0.000000 -0.000000  0.000000
                                 0.000000  0.000001  0.000004  0.000004  0.000010  0.000006 -0.000004  0.000003 -0.000003 -0.000000
                                -0.000001 -0.000003 -0.000004 -0.000004 -0.000010  0.000001  0.000003 -0.000002 -0.000000  0.000000
                                 0.000000 -0.000000  0.000000 -0.000000  0.000000  0.000002 -0.000004  0.000002  0.000004  0.000002
                                -0.000000 -0.000003  0.000005 -0.000003 -0.000003 -0.000004  0.000003 -0.000002  0.000001 -0.000000
                                 0.000000 -0.000000  0.000000  0.000097 -0.000000 -0.000780  0.000001  0.011123  0.000023  0.227803
                                 0.000037  0.363530  0.000038  0.378633  0.000020  0.198864  0.000010  0.099154  0.000006  0.054693
                                -0.000003 -0.021458  0.000004  0.041967 -0.000002 -0.028446  0.000001  0.015896 -0.000000 -0.005516
                                -0.000000 -0.000004  0.000000 -0.000000 -0.000000 -0.000072 -0.000000 -0.000128  0.000000 -0.001028
                                -0.000000 -0.000864 -0.000001 -0.000285  0.000001 -0.000042 -0.000000  0.000022  0.000000 -0.000007
                                -0.000000 -0.000001  0.000013  0.000000 -0.000007 -0.000654  0.000005  0.000000  0.000000  0.000001
                                 0.000001  0.000001  0.000001  0.000000 -0.000000  0.000000 -0.000000 -0.000001 -0.000000 -0.000000
                                 0.000017  0.000002 -0.000066

   4.3   +    -0.9418  -15.7091 -0.000000  0.000000 -0.000000  0.000000 -0.000000  0.000000 -0.000000  0.000001 -0.000002  0.000020
                                 0.000204  0.000319  0.003897  0.002530  0.009439  0.009160 -0.005053  0.007333 -0.008158 -0.000078
                                -0.000294 -0.002696 -0.004888 -0.001017 -0.007116  0.000536  0.001400 -0.001303 -0.000144  0.000026
                                 0.000000 -0.000001  0.000003 -0.000015  0.000282  0.002542 -0.005863  0.003378  0.004801 -0.008824
                                -0.000670 -0.004853  0.007629 -0.004463 -0.012123 -0.012048  0.005761 -0.007154 -0.001786  0.000085
                                 0.000006 -0.000004  0.000098 -0.000000 -0.000784  0.000000  0.011165 -0.000001  0.228081 -0.000023
                                 0.362673 -0.000037  0.377519 -0.000038  0.196208 -0.000020  0.100014 -0.000010  0.056721 -0.000005
                                -0.023080  0.000002  0.043444 -0.000004 -0.029682  0.000003  0.012620 -0.000002 -0.004698  0.000001
                                 0.000006 -0.000000 -0.000037  0.000000  0.000038 -0.000000 -0.000526 -0.000000 -0.001183  0.000000
                                -0.002132  0.000000 -0.000301 -0.000000  0.001637  0.000000 -0.002889 -0.000000 -0.000017  0.000000
                                 0.000000  0.000054 -0.000001 -0.000000 -0.001162 -0.000012 -0.000002 -0.000205 -0.001787 -0.006259
                                -0.009276 -0.010249  0.006664 -0.000190  0.000055  0.000122 -0.000631  0.001095 -0.000019 -0.000407
                                -0.000000  0.002199  0.000000

   5.3   0    -0.2925   -8.2539 -0.000000  0.000000 -0.000000  0.000000 -0.000001  0.000001 -0.000001  0.000004 -0.000018  0.000175
                                 0.001905  0.002113 -0.013331  0.013120 -0.027669 -0.053863  0.044756  0.138294  0.117366 -0.000711
                                -0.002651  0.004012  0.025103 -0.032655 -0.070291 -0.010699 -0.038931  0.033398  0.002709 -0.000475
                                 0.000001 -0.000005  0.000020 -0.000105  0.001810  0.016041 -0.053666  0.053973 -0.015526 -0.340928
                                -0.004245 -0.031052  0.057710 -0.023897 -0.234120 -0.255481 -0.154572 -0.084143 -0.010256 -0.003542
                                 0.001637 -0.000501 -0.000003 -0.000000  0.000026  0.000000 -0.000370 -0.000000 -0.007292  0.000000
                                -0.010917  0.000000 -0.010445  0.000000  0.001744 -0.000000 -0.003445 -0.000000 -0.002641 -0.000000
                                 0.024337  0.000000  0.034181 -0.000000  0.020494  0.000000 -0.001627 -0.000000  0.000474  0.000000
                                 0.000005  0.000000  0.000024 -0.000000  0.000024  0.000000  0.000228 -0.000000  0.003676 -0.000000
                                 0.005647  0.000000  0.003758 -0.000000  0.003941 -0.000000 -0.000658  0.000000  0.000011 -0.000000
                                -0.000000 -0.000045  0.000000  0.000000  0.000264  0.000000  0.000000  0.004110  0.036105  0.121103
                                 0.180178  0.150802  0.046773  0.002726 -0.001116  0.000082  0.001986 -0.003587  0.000005 -0.000213
                                 0.000000  0.000479 -0.000000

   6.3   0    -0.1925   -5.6281 -0.000000  0.000000 -0.000000  0.000001 -0.000001  0.000002 -0.000004  0.000011 -0.000048  0.000459
                                 0.005010  0.005706 -0.026986  0.036123 -0.038667 -0.142494  0.048048  0.399936  0.540489 -0.001868
                                -0.006999  0.005799  0.055010 -0.090753 -0.182439 -0.030159  0.024880  0.134574  0.009822 -0.001850
                                -0.000000  0.000002 -0.000009  0.000045 -0.000793 -0.007046  0.021635 -0.020124  0.000252  0.122491
                                 0.001865  0.013578 -0.024207  0.011789  0.087756  0.088590  0.001371 -0.040603 -0.023628 -0.013722
                                 0.002671 -0.000738  0.000001 -0.000000 -0.000010  0.000000  0.000137 -0.000000  0.002784 -0.000000
                                 0.004356 -0.000000  0.004016 -0.000000  0.000569  0.000000  0.001201  0.000000  0.000707  0.000000
                                -0.015113 -0.000000 -0.022382  0.000000 -0.013958 -0.000001  0.004013  0.000000 -0.002162 -0.000000
                                -0.000003  0.000000 -0.000007 -0.000000 -0.000020  0.000000 -0.000109 -0.000000 -0.001117  0.000000
                                -0.003099 -0.000001  0.001323  0.000001 -0.004588 -0.000001  0.003405  0.000000 -0.000004  0.000000
                                 0.000000  0.000016 -0.000000 -0.000000 -0.000119 -0.000000 -0.000000 -0.002311 -0.020288 -0.068973
                                -0.102036 -0.092092 -0.055224 -0.001655  0.000626 -0.000457 -0.003261  0.001448 -0.000042  0.000223
                                -0.000000 -0.000477  0.000000

                                   1 3d2-    1 3d2-    1 3d2-    1 3d2-    1 3d2-    1 3d2-    1 3d2-    1 3d2-    1 3d2-    1 3d2-
                                   1 3d2-    1 3d2-    1 3d2-    1 3d2-    1 3d2-    1 3d2-    1 3d2-    1 3d2-    1 3d2-    1 3d2-
                                   1 3d2-    1 3d2-    1 4f2-    1 4f2-    1 4f2-    1 4f2-    1 4f2-    1 4f2-    1 4f2-    1 4f2-
                                   1 4f2-    1 4f2-    1 4f2-    1 4f2-    1 4f2-    1 4f2-    1 5g2-    1 5g4-    1 5g2-    1 5g4-
                                   1 5g2-    1 5g4-    1 5g2-    1 5g4-    1 5g2-    1 5g4-    1 5g2-    1 5g4-    1 5g2-    1 5g4-
                                   1 5g2-    1 5g4-    1 5g2-    1 5g4-    1 6h4-    1 6h2-    1 6h4-    1 6h2-    1 6h4-    1 6h2-
                                   2 3d2-    2 3d2-    2 3d2-    2 3d2-    2 4f2-    2 4f2-

   1.4   +    -0.9441  -15.7041  0.000000 -0.000000  0.000001 -0.000003  0.000062  0.000559 -0.001364  0.000998  0.000664 -0.005892
                                -0.000148 -0.001056  0.001694 -0.000933 -0.004055 -0.000686 -0.001499  0.001074 -0.000585  0.000163
                                -0.000051  0.000015  0.000097 -0.000782  0.011148  0.228040  0.363274  0.378140  0.196930  0.099604
                                 0.055706 -0.021418  0.042033 -0.028185  0.015782 -0.005480 -0.000006 -0.000000  0.000008  0.000000
                                -0.000093 -0.000000 -0.000172  0.000000 -0.001545  0.000000 -0.001146 -0.000000 -0.000265  0.000000
                                 0.000123  0.000000  0.000011 -0.000000 -0.000000 -0.000013 -0.000000  0.000036  0.000000 -0.000989
                                 0.000028  0.000050 -0.000306  0.000001 -0.000002 -0.000007

   2.4   0    -0.3146   -8.5600 -0.000001  0.000005 -0.000021  0.000108 -0.001856 -0.016428  0.057059 -0.059329  0.015342  0.387340
                                 0.004347  0.031870 -0.060343  0.025540  0.265077  0.286871  0.154842  0.089301 -0.002909  0.005131
                                -0.002069  0.000599  0.000002 -0.000015  0.000211  0.004208  0.006421  0.006169 -0.000395  0.001927
                                 0.001335 -0.016431 -0.022064 -0.007926 -0.001438  0.000154  0.000005 -0.000000 -0.000045  0.000000
                                 0.000073 -0.000000 -0.000321 -0.000000 -0.002301 -0.000000 -0.003420  0.000000 -0.000964 -0.000000
                                -0.000187 -0.000000  0.000170 -0.000000 -0.000000 -0.000006  0.000000  0.000025 -0.000000 -0.000138
                                 0.000206  0.001141  0.001309  0.000021 -0.000077 -0.000606

   3.4   0    -0.0768   -3.1743  0.000000 -0.000002  0.000009 -0.000049  0.000863  0.007672 -0.023108  0.021238  0.000080 -0.129773
                                -0.002031 -0.014763  0.026071 -0.013071 -0.092152 -0.108105  0.008331  0.127577  0.384757  0.433900
                                 0.132364  0.003555  0.000001 -0.000004  0.000052  0.000855  0.000870  0.000759  0.000147  0.000630
                                 0.000931 -0.000892 -0.011383 -0.074416 -0.101398 -0.116808  0.000004  0.000000 -0.000004 -0.000000
                                 0.000031  0.000000 -0.000003 -0.000000  0.001123  0.000000  0.000557 -0.000000  0.002190  0.000000
                                 0.001440 -0.000000  0.016672 -0.000000  0.000000  0.000003 -0.000000 -0.000012  0.000000  0.000061
                                 0.000117  0.000680  0.000941  0.000013  0.000000  0.000062

 HOMO      6.1    -0.940933 =     -25.6041eV
 LUMO      7.1    -0.331956 =      -9.0330eV
 LUMO-HOMO         0.608977 =      16.5711eV


 **********************************************************************************************************************************
 DATASETS  * FILE   NREC   LENGTH (MB)   RECORD NAMES
              1      20       23.19       500      610      700      900      950      970     1000      129      960     1100
                                          VAR    BASINP    GEOM    SYMINP    ZMAT    AOBASIS   BASIS     P2S    ABASIS      S
                                         1400     1410     1420     1200     1210     1080     1600     1650     1700     1800
                                           T        V       ECP      H0       H01     AOSYM     SMH    MOLCAS    OPER     GRID

              2       5        4.99       700     1000      520     1800     2202
                                         GEOM     BASIS   MCVARS    GRID      RKS

 PROGRAMS   *        TOTAL       RKS       INT
 CPU TIMES  *       199.73     42.55    156.83
 REAL TIME  *       241.72 SEC
 DISK USED  *        18.05 GB
 SF USED    *         0.31 MB
 GA USED    *         0.23 MB       (max)       0.23 MB       (current)
 **********************************************************************************************************************************
   -->
   <time start="08:42:59" end="08:47:01" cpu="199.73" system="27.14" real="241.72"/>
   <storage units="megabyte" memory="8001.84" sf="0.31" df="700.93" eaf="17350.28"
     ga="0.23"/>
  </jobstep><!--
  --><jobstep command="RHF-SCF" commandset="SCFPRO">
   <!--


 PROGRAM * RHF-SCF (OPEN SHELL)       Authors: W. Meyer, H.-J. Werner


 NUMBER OF ELECTRONS:      15+    8-    SPACE SYMMETRY=4    SPIN SYMMETRY: Octet
 CONVERGENCE THRESHOLDS:    1.00E-05 (Density)    1.00E-07 (Energy)
 MAX. NUMBER OF ITERATIONS:      200
 INTERPOLATION TYPE:            DIIS
 INTERPOLATION STEPS:              2 (START)      1 (STEP)
 LEVEL SHIFTS:                 -0.60 (CLOSED) -0.30 (OPEN)

 Number of closed-shell orbitals:    8 (   4   2   2   0 )
 Number of open-shell orbitals:      7 (   2   2   2   1 )


 Molecular orbitals read from record     2202.2  Type=RKS/CANONICAL (state 1.4)

 Molecular orbital dump at record        3202.2

 ITERATION    DDIFF          GRAD             ENERGY        2-EL.EN.            DIPOLE MOMENTS         DIIS   ORB.
    1      0.000D+00      0.000D+00      -123.56757831    237.657463    0.00000    0.00000   -3.34859    0    start
    2      0.000D+00      0.455D-02      -123.59575077    235.678597    0.00000    0.00000   -4.18903    1    diag,B
    3      0.617D-02      0.148D-02      -123.60015267    235.963486    0.00000    0.00000   -4.26905    2    diag,B
    4      0.586D-03      0.547D-03      -123.60197097    235.857888    0.00000    0.00000   -4.47048    3    diag,B
    5      0.321D-03      0.383D-03      -123.60331206    235.784892    0.00000    0.00000   -4.55237    4    diag,B
    6      0.362D-03      0.261D-03      -123.60416838    235.777216    0.00000    0.00000   -4.60739    5    diag,B
    7      0.243D-03      0.224D-03      -123.60520546    235.763052    0.00000    0.00000   -4.60186    6    diag,B
    8      0.265D-03      0.209D-03      -123.60622134    235.760936    0.00000    0.00000   -4.55896    7    orth
    9      0.250D-03      0.204D-03      -123.60716976    235.757008    0.00000    0.00000   -4.49766    8    diag,B
   10      0.245D-03      0.203D-03      -123.60838196    235.746964    0.00000    0.00000   -4.40283    9    diag,B
   11      0.333D-03      0.200D-03      -123.61258282    235.675838    0.00000    0.00000   -3.90646    9    diag,B
   12      0.130D-02      0.185D-03      -123.61231306    235.652527    0.00000    0.00000   -3.98787    9    diag,B
   13      0.368D-03      0.292D-03      -123.61478752    235.545015    0.00000    0.00000   -3.42854    9    diag,B
   14      0.114D-02      0.946D-04      -123.61298562    235.597565    0.00000    0.00000   -3.93064    9    diag,B
   15      0.893D-03      0.325D-03      -123.61273891    235.645286    0.00000    0.00000   -3.95581    9    diag,B
   16      0.408D-03      0.311D-03      -123.61510256    235.406215    0.00000    0.00000   -3.45884    9    diag,B
   17      0.164D-02      0.136D-03      -123.61563408    235.279958    0.00000    0.00000   -3.20327    9    diag,B
   18      0.763D-03      0.499D-04      -123.61538883    235.273877    0.00000    0.00000   -3.36250    9    orth
   19      0.350D-03      0.131D-03      -123.61575568    235.155869    0.00000    0.00000   -3.13366    9    diag,B
   20      0.596D-03      0.478D-04      -123.61580473    235.091878    0.00000    0.00000   -3.00097    9    diag,B
   21      0.347D-03      0.130D-04      -123.61579948    235.125048    0.00000    0.00000   -3.07131    9    diag,B
   22      0.163D-03      0.229D-04      -123.61579645    235.119028    0.00000    0.00000   -3.07825    9    diag,B
   23      0.335D-04      0.250D-04      -123.61580739    235.095147    0.00000    0.00000   -3.02167    9    diag,B
   24      0.137D-03      0.221D-05      -123.61580748    235.099823    0.00000    0.00000   -3.03063    9    diag,B
   25      0.194D-04      0.167D-05      -123.61580752    235.098318    0.00000    0.00000   -3.02758    9    diag,B
   26      0.118D-04      0.391D-06      -123.61580752    235.099128    0.00000    0.00000   -3.02849    9    diag,B
   27      0.413D-05      0.103D-06      -123.61580752    235.099130    0.00000    0.00000   -3.02846    0    orth

 Final alpha occupancy:   6   4   4   1
 Final beta  occupancy:   4   2   2   0

 !RHF STATE 1.4 Energy               -123.615807523419
   --><property name="Energy" method="RHF" principal="true" stateSymmetry="4" stateNumber="1"
     value="-123.615807523419"/><!--
 Nuclear energy                        21.98120722
 One-electron energy                 -263.14657976
 Two-electron energy                  117.54956502
 Virial quotient                       -0.86432546
 !RHF STATE 1.4 Dipole moment           0.00000000     0.00000000    -3.02845940
 Dipole moment /Debye                   0.00000000     0.00000000    -7.69707184
   --><property name="Dipole moment" method="RHF" principal="true" stateSymmetry="4"
     stateNumber="1" value="0.0 0.0 -3.0284593998116"/><!--

 ELECTRON ORBITALS
 =================


   Orb  Occ    Energy  Couls-En    Coefficients

                                   1 1s      1 1s      1 1s      1 1s      1 1s      1 1s      1 1s      1 1s      1 1s      1 1s
                                   1 1s      1 1s      1 1s      1 1s      1 1s      1 1s      1 1s      1 1s      1 1s      1 1s
                                   1 1s      1 1s      1 1s      1 1s      1 1s      1 1s      1 1s      1 1s      1 1s      1 1s
                                   1 1s      1 1s      1 2pz     1 2pz     1 2pz     1 2pz     1 2pz     1 2pz     1 2pz     1 2pz
                                   1 2pz     1 2pz     1 2pz     1 2pz     1 2pz     1 2pz     1 2pz     1 2pz     1 2pz     1 2pz
                                   1 2pz     1 2pz     1 2pz     1 2pz     1 2pz     1 2pz     1 2pz     1 2pz     1 2pz     1 2pz
                                   1 2pz     1 2pz     1 3d0     1 3d2+    1 3d0     1 3d2+    1 3d0     1 3d2+    1 3d0     1 3d2+
                                   1 3d0     1 3d2+    1 3d0     1 3d2+    1 3d0     1 3d2+    1 3d0     1 3d2+    1 3d0     1 3d2+
                                   1 3d0     1 3d2+    1 3d0     1 3d2+    1 3d0     1 3d2+    1 3d0     1 3d2+    1 3d0     1 3d2+
                                   1 3d0     1 3d2+    1 3d0     1 3d2+    1 3d0     1 3d2+    1 3d0     1 3d2+    1 3d0     1 3d2+
                                   1 3d0     1 3d2+    1 3d0     1 3d2+    1 3d0     1 3d2+    1 4f0     1 4f2+    1 4f0     1 4f2+
                                   1 4f0     1 4f2+    1 4f0     1 4f2+    1 4f0     1 4f2+    1 4f0     1 4f2+    1 4f0     1 4f2+
                                   1 4f0     1 4f2+    1 4f0     1 4f2+    1 4f0     1 4f2+    1 4f0     1 4f2+    1 4f0     1 4f2+
                                   1 4f0     1 4f2+    1 4f0     1 4f2+    1 5g0     1 5g4+    1 5g2+    1 5g0     1 5g4+    1 5g2+
                                   1 5g0     1 5g4+    1 5g2+    1 5g0     1 5g4+    1 5g2+    1 5g0     1 5g4+    1 5g2+    1 5g0
                                   1 5g4+    1 5g2+    1 5g0     1 5g4+    1 5g2+    1 5g0     1 5g4+    1 5g2+    1 5g0     1 5g4+
                                   1 5g2+    1 6h2+    1 6h4+    1 6h0     1 6h2+    1 6h4+    1 6h0     1 6h2+    1 6h4+    1 6h0
                                   2 1s      2 1s      2 1s      2 1s      2 1s      2 1s      2 1s      2 1s      2 1s      2 1s
                                   2 1s      2 1s      2 1s      2 2pz     2 2pz     2 2pz     2 2pz     2 2pz     2 2pz     2 2pz
                                   2 2pz     2 3d0     2 3d2+    2 3d0     2 3d2+    2 3d0     2 3d2+    2 3d0     2 3d2+    2 4f0
                                   2 4f2+    2 4f0     2 4f2+

   1.1   2    -2.5533  -16.0078 -0.000000  0.000001 -0.000007  0.000123  0.000541  0.001687  0.003590  0.008102 -0.003292  0.007151
                                -0.005388  0.733285 -0.084343  0.078744  0.879048  0.458551  0.487356  0.326632  0.129019 -0.000216
                                -0.000975 -0.002891 -0.008324 -0.016811 -1.171289  0.000047 -0.235060 -0.579592 -0.192415 -0.005974
                                 0.002120 -0.000460 -0.000000  0.000000 -0.000000  0.000000 -0.000000  0.000000 -0.000000  0.000000
                                -0.000001  0.000010  0.000104  0.000106 -0.000911  0.001937  0.005333 -0.006900 -0.002035 -0.000668
                                 0.001475 -0.000039 -0.000143  0.000399  0.000364 -0.001492 -0.010334 -0.000165 -0.001110  0.000561
                                 0.000037 -0.000006  0.000000 -0.000000 -0.000000  0.000000  0.000002 -0.000000 -0.000009  0.000000
                                 0.000163 -0.000000  0.001506 -0.000000 -0.003627  0.000000  0.002049 -0.000000  0.003279 -0.000000
                                -0.004667  0.000000 -0.000390  0.000000 -0.002905  0.000000  0.004656 -0.000000 -0.002380  0.000000
                                -0.010280  0.000000  0.001412 -0.000000 -0.001321  0.000000  0.001447 -0.000000 -0.000672  0.000000
                                 0.000187 -0.000000 -0.000076  0.000000  0.000021 -0.000000 -0.000000  0.000000  0.000001 -0.000000
                                -0.000011  0.000000 -0.000257  0.000000 -0.000525  0.000000 -0.000549  0.000000 -0.000823  0.000000
                                -0.000044  0.000000  0.000096  0.000000  0.000183  0.000000 -0.000562  0.000000  0.000465 -0.000000
                                -0.000167  0.000000  0.000040 -0.000000  0.000000 -0.000000  0.000000 -0.000003  0.000000  0.000000
                                 0.000016 -0.000000 -0.000000 -0.000053  0.000000  0.000000  0.000133 -0.000000 -0.000000  0.000504
                                 0.000000 -0.000000 -0.000209 -0.000000 -0.000000  0.000141  0.000000 -0.000000 -0.000013 -0.000000
                                -0.000000 -0.000000  0.000000  0.000002 -0.000000 -0.000000 -0.000004 -0.000000  0.000000  0.000028
                                -0.000000  0.000000 -0.000000  0.000001 -0.000006  0.000191 -0.000233  0.000613  0.001187  0.001849
                                -0.000445 -0.000250 -0.000316 -0.000025 -0.000217 -0.000559 -0.001097 -0.001330  0.000191  0.000010
                                 0.000007  0.000040  0.000000  0.000378  0.000000  0.000344  0.000000  0.000005  0.000000 -0.000033
                                -0.000000 -0.000152  0.000000

   2.1   2    -1.5540  -13.3666 -0.000000  0.000000 -0.000000  0.000002  0.000010  0.000030  0.000064  0.000146 -0.000060  0.000124
                                 0.000102  0.017771  0.003736 -0.009550  0.005311 -0.001694 -0.013569  0.012313  0.011942 -0.000004
                                -0.000017 -0.000051 -0.000149 -0.000633 -0.030408  0.033085 -0.006415 -0.003255 -0.016771 -0.000614
                                 0.000221 -0.000048  0.000000 -0.000000  0.000000 -0.000001  0.000002 -0.000003  0.000006 -0.000016
                                 0.000066 -0.000609 -0.006605 -0.005549  0.166659 -0.085000  0.194102  0.335271  0.062146  0.003894
                                 0.004515  0.002462  0.009013 -0.084537 -0.210718  0.189900  0.388592 -0.000678 -0.004364  0.002477
[...]
                                 0.000000 -0.000026 -0.000000 -0.000000  0.000172  0.000000 -0.000000  0.000345  0.002937  0.010217
                                 0.015254  0.016257  0.013594  0.000289 -0.000090  0.000130  0.001031 -0.001021  0.000015 -0.000125
                                -0.000000  0.000002  0.000000

   6.2   0     0.0032   -1.1621  0.000000 -0.000000  0.000000 -0.000001  0.000001 -0.000001  0.000003 -0.000008  0.000034 -0.000310
                                -0.003381 -0.004779 -0.039411 -0.038904 -0.117323 -0.095656  0.115146 -0.165544  0.682736  0.001251
                                 0.004863  0.029224  0.049462  0.038102  0.093382 -2.195914 -1.663328  2.449450  1.894230 -1.734836
                                -0.000000  0.000001 -0.000005  0.000025 -0.000452 -0.004068  0.006281  0.001151 -0.015118 -0.044361
                                 0.001079  0.007709 -0.010505  0.006446 -0.012327  0.007878 -0.090068  0.090899 -0.182956  0.200529
                                -0.312590  0.621243 -0.000000  0.000000  0.000002 -0.000000 -0.000029  0.000000 -0.000627  0.000000
                                -0.001169  0.000000 -0.001135  0.000000  0.000210  0.000000 -0.000155  0.000000  0.000095  0.000000
                                 0.000122 -0.000000  0.006363  0.000000 -0.007832 -0.000000  0.026167  0.000000 -0.037219 -0.000000
                                -0.000000  0.000000  0.000004 -0.000000 -0.000005  0.000000  0.000047 -0.000000  0.000160 -0.000000
                                 0.000947 -0.000000  0.001002  0.000000  0.001081 -0.000000  0.000746  0.000000  0.000002  0.000000
                                 0.000000 -0.000006 -0.000000 -0.000000  0.000039  0.000000 -0.000000  0.000168  0.001437  0.004873
                                 0.007458  0.007455  0.004044  0.000118 -0.000044  0.000026  0.000344 -0.000458  0.000005 -0.000008
                                -0.000000 -0.000129  0.000000

                                   1 2py     1 2py     1 2py     1 2py     1 2py     1 2py     1 2py     1 2py     1 2py     1 2py
                                   1 2py     1 2py     1 2py     1 2py     1 2py     1 2py     1 2py     1 2py     1 2py     1 2py
                                   1 2py     1 2py     1 2py     1 2py     1 2py     1 2py     1 2py     1 2py     1 2py     1 2py
                                   1 3d1-    1 3d1-    1 3d1-    1 3d1-    1 3d1-    1 3d1-    1 3d1-    1 3d1-    1 3d1-    1 3d1-
                                   1 3d1-    1 3d1-    1 3d1-    1 3d1-    1 3d1-    1 3d1-    1 3d1-    1 3d1-    1 3d1-    1 3d1-
                                   1 3d1-    1 3d1-    1 4f1-    1 4f3-    1 4f1-    1 4f3-    1 4f1-    1 4f3-    1 4f1-    1 4f3-
                                   1 4f1-    1 4f3-    1 4f1-    1 4f3-    1 4f1-    1 4f3-    1 4f1-    1 4f3-    1 4f1-    1 4f3-
                                   1 4f1-    1 4f3-    1 4f1-    1 4f3-    1 4f1-    1 4f3-    1 4f1-    1 4f3-    1 4f1-    1 4f3-
                                   1 5g1-    1 5g3-    1 5g1-    1 5g3-    1 5g1-    1 5g3-    1 5g1-    1 5g3-    1 5g1-    1 5g3-
                                   1 5g1-    1 5g3-    1 5g1-    1 5g3-    1 5g1-    1 5g3-    1 5g1-    1 5g3-    1 6h1-    1 6h3-
                                   1 6h5-    1 6h1-    1 6h3-    1 6h5-    1 6h1-    1 6h3-    1 6h5-    2 2py     2 2py     2 2py
                                   2 2py     2 2py     2 2py     2 2py     2 2py     2 3d1-    2 3d1-    2 3d1-    2 3d1-    2 4f1-
                                   2 4f3-    2 4f1-    2 4f3-

   1.3   2    -1.3264  -13.0917  0.000000 -0.000000  0.000001 -0.000002  0.000002 -0.000003  0.000006 -0.000017  0.000070 -0.000645
                                -0.007003 -0.006082  0.164121 -0.089615  0.175166  0.334196  0.063102  0.009821 -0.005002  0.002609
                                 0.009582 -0.082303 -0.207657  0.196588  0.411109  0.002375  0.007546 -0.005867 -0.000659  0.000120
                                 0.000000 -0.000000  0.000001 -0.000003  0.000061  0.000582 -0.001549  0.000766  0.001939 -0.010737
                                -0.000147 -0.001142  0.001916 -0.000738 -0.003467 -0.004966 -0.000714 -0.000279  0.000048 -0.000038
                                 0.000018 -0.000005 -0.000000  0.000000  0.000004 -0.000000 -0.000057  0.000000 -0.001283  0.000000
                                -0.002619  0.000000 -0.003251  0.000000 -0.005642  0.000000 -0.000272  0.000000  0.000513 -0.000000
                                -0.003280  0.000000 -0.001306 -0.000000  0.000410 -0.000000 -0.000190  0.000000  0.000057 -0.000000
                                -0.000003 -0.000000  0.000002 -0.000000 -0.000032 -0.000000  0.000106  0.000000 -0.000616 -0.000000
                                -0.000389 -0.000000  0.000003  0.000000 -0.000033  0.000000  0.000050  0.000000 -0.000004 -0.000000
                                -0.000000  0.000014  0.000000 -0.000000 -0.000167 -0.000000  0.000000  0.000067  0.000575  0.001833
                                 0.002927  0.002613  0.000234  0.000028 -0.000018 -0.000089 -0.000493 -0.000662 -0.000010  0.000038
                                -0.000000  0.000261  0.000000

   2.3   2    -0.2916   -7.7684  0.000000 -0.000000  0.000000 -0.000000  0.000000 -0.000000  0.000000 -0.000001  0.000005 -0.000044
                                -0.000484 -0.000520  0.006386 -0.004386  0.005814  0.027076 -0.011003 -0.027598 -0.052726  0.000178
                                 0.000681 -0.002674 -0.009868  0.011985  0.025071  0.006392  0.039649 -0.025710 -0.001436  0.000231
                                 0.000000 -0.000000  0.000001 -0.000007  0.000139  0.001357 -0.006653  0.008497 -0.004838 -0.057231
                                -0.000335 -0.002758  0.006214 -0.002268 -0.036355 -0.059552 -0.027042 -0.047502  0.019029 -0.005816
                                 0.001630 -0.000412 -0.000001  0.000000  0.000011 -0.000000 -0.000165  0.000000 -0.003713  0.000000
                                -0.007388  0.000000 -0.008382  0.000000 -0.005711  0.000000 -0.000781  0.000000  0.001179  0.000000
                                -0.010722 -0.000000 -0.010824  0.000000 -0.011763  0.000000  0.006701  0.000000 -0.000770 -0.000000
                                 0.000016  0.000000 -0.000083 -0.000000  0.000194  0.000000 -0.000714 -0.000000  0.001117 -0.000000
                                -0.004606 -0.000000  0.000709 -0.000000 -0.003692 -0.000000  0.001129  0.000000 -0.000007 -0.000000
                                -0.000000  0.000030  0.000000 -0.000000 -0.000189 -0.000000 -0.000000 -0.009214 -0.079079 -0.261839
                                -0.406895 -0.355112 -0.109706 -0.005442  0.002421  0.002140  0.007163  0.018106  0.000214 -0.000711
                                -0.000000 -0.005055 -0.000000

   3.3   +    -0.8680  -15.5375 -0.000000  0.000000 -0.000000 -0.000000  0.000000 -0.000000  0.000000 -0.000000  0.000000 -0.000000
                                -0.000000 -0.000000  0.000000  0.000000  0.000000 -0.000000 -0.000000  0.000000 -0.000000  0.000000
                                 0.000000 -0.000000 -0.000000  0.000000  0.000000 -0.000000 -0.000000  0.000000 -0.000000  0.000000
                                 0.000000 -0.000000  0.000000 -0.000000  0.000000  0.000000 -0.000000  0.000000  0.000000  0.000000
                                -0.000000 -0.000000  0.000000 -0.000000 -0.000000  0.000000  0.000000  0.000000 -0.000000  0.000000
                                -0.000000  0.000000  0.000000  0.000105 -0.000000 -0.000844  0.000000  0.011715  0.000000  0.223644
                                 0.000000  0.361045  0.000000  0.385311  0.000000  0.208616  0.000000  0.093082  0.000000  0.053400
                                -0.000000 -0.019444  0.000000  0.044695 -0.000000 -0.029972  0.000000  0.016924 -0.000000 -0.005909
                                 0.000000  0.000021  0.000000  0.000065  0.000000  0.000061 -0.000000  0.000023 -0.000000 -0.000759
                                -0.000000 -0.001057 -0.000000 -0.000571  0.000000 -0.000082 -0.000000  0.000034 -0.000000 -0.000017
                                -0.000000 -0.000000  0.000021 -0.000000 -0.000000 -0.000485  0.000000  0.000000  0.000000  0.000000
                                 0.000000  0.000000  0.000000  0.000000 -0.000000 -0.000000 -0.000000 -0.000000 -0.000000 -0.000000
                                 0.000025  0.000000 -0.000090

   4.3   +    -0.8650  -15.5510 -0.000000  0.000000 -0.000000  0.000000 -0.000000  0.000000 -0.000000  0.000001 -0.000002  0.000019
                                 0.000207  0.000340  0.005750  0.003220  0.012475  0.007242 -0.009726  0.003690 -0.008652 -0.000077
                                -0.000303 -0.003682 -0.008127  0.000408 -0.001359  0.000458  0.001077 -0.001230 -0.000122  0.000022
                                 0.000000 -0.000001  0.000003 -0.000014  0.000266  0.002415 -0.005820  0.003907  0.003161 -0.011075
                                -0.000635 -0.004637  0.007431 -0.004170 -0.012812 -0.009670  0.006025 -0.005989 -0.002255  0.000177
                                -0.000034  0.000009  0.000105 -0.000000 -0.000845  0.000000  0.011722 -0.000000  0.223650 -0.000000
                                 0.360741 -0.000000  0.385075 -0.000000  0.208282 -0.000000  0.093244 -0.000000  0.053766 -0.000000
                                -0.021794  0.000000  0.047416 -0.000000 -0.031760  0.000000  0.013962 -0.000000 -0.005196  0.000000
                                 0.000036 -0.000000  0.000060 -0.000000  0.000254 -0.000000 -0.000415 -0.000000 -0.001134  0.000000
                                -0.002863  0.000000 -0.000158  0.000000  0.001582 -0.000000 -0.002931  0.000000 -0.000030  0.000000
                                -0.000000 -0.000021 -0.000000 -0.000000 -0.000943  0.000000 -0.000000 -0.000214 -0.001815 -0.006516
                                -0.009802 -0.012332  0.004946 -0.000223  0.000055  0.000107 -0.000791  0.001577 -0.000022 -0.000374
                                -0.000000  0.002068  0.000000

   5.3   0    -0.0267   -4.7337 -0.000000  0.000000 -0.000000  0.000000 -0.000000  0.000001 -0.000001  0.000004 -0.000016  0.000154
                                 0.001726  0.001818 -0.029423  0.009537 -0.032136 -0.101785  0.011893  0.199548  0.295917 -0.000630
                                -0.002449  0.013167  0.049519 -0.049719 -0.104784  0.103394  0.106858  0.186688  0.056397  0.004859
                                 0.000000 -0.000001  0.000005 -0.000029  0.000536  0.005091 -0.018940  0.021439 -0.009167 -0.126927
                                -0.001287 -0.009930  0.019310 -0.011889 -0.089545 -0.095330 -0.119902 -0.121055 -0.118311 -0.098511
                                -0.029005 -0.006598 -0.000001  0.000000  0.000006 -0.000000 -0.000089  0.000000 -0.001682  0.000000
                                -0.002667  0.000000 -0.002787  0.000000 -0.000832 -0.000000 -0.000715  0.000000 -0.000449  0.000000
                                 0.003636 -0.000000  0.002582 -0.000000  0.008234  0.000000  0.006514  0.000000  0.014835  0.000000
                                 0.000004 -0.000000 -0.000002  0.000000  0.000027 -0.000000  0.000067 -0.000000  0.000943 -0.000000
                                 0.003373 -0.000000  0.005029 -0.000000  0.004582 -0.000000  0.003420 -0.000000  0.000007  0.000000
                                 0.000000 -0.000026 -0.000000 -0.000000  0.000172  0.000000 -0.000000  0.000345  0.002937  0.010217
                                 0.015254  0.016257  0.013594  0.000289 -0.000090  0.000130  0.001031 -0.001021  0.000015 -0.000125
                                -0.000000  0.000002  0.000000

   6.3   0     0.0032   -1.1621  0.000000 -0.000000  0.000000 -0.000001  0.000001 -0.000001  0.000003 -0.000008  0.000034 -0.000310
                                -0.003381 -0.004779 -0.039411 -0.038904 -0.117323 -0.095656  0.115146 -0.165544  0.682736  0.001251
                                 0.004863  0.029224  0.049462  0.038102  0.093382 -2.195914 -1.663328  2.449450  1.894230 -1.734836
                                -0.000000  0.000001 -0.000005  0.000025 -0.000452 -0.004068  0.006281  0.001151 -0.015118 -0.044361
                                 0.001079  0.007709 -0.010505  0.006446 -0.012327  0.007878 -0.090068  0.090899 -0.182956  0.200529
                                -0.312590  0.621243 -0.000000  0.000000  0.000002 -0.000000 -0.000029  0.000000 -0.000627  0.000000
                                -0.001169  0.000000 -0.001135  0.000000  0.000210 -0.000000 -0.000155  0.000000  0.000095  0.000000
                                 0.000122 -0.000000  0.006363  0.000000 -0.007832 -0.000000  0.026167  0.000000 -0.037219 -0.000000
                                -0.000000  0.000000  0.000004 -0.000000 -0.000005  0.000000  0.000047 -0.000000  0.000160 -0.000000
                                 0.000947 -0.000000  0.001002  0.000000  0.001081 -0.000000  0.000746  0.000000  0.000002  0.000000
                                -0.000000 -0.000006 -0.000000  0.000000  0.000039  0.000000 -0.000000  0.000168  0.001437  0.004873
                                 0.007458  0.007455  0.004044  0.000118 -0.000044  0.000026  0.000344 -0.000458  0.000005 -0.000008
                                -0.000000 -0.000129  0.000000

                                   1 3d2-    1 3d2-    1 3d2-    1 3d2-    1 3d2-    1 3d2-    1 3d2-    1 3d2-    1 3d2-    1 3d2-
                                   1 3d2-    1 3d2-    1 3d2-    1 3d2-    1 3d2-    1 3d2-    1 3d2-    1 3d2-    1 3d2-    1 3d2-
                                   1 3d2-    1 3d2-    1 4f2-    1 4f2-    1 4f2-    1 4f2-    1 4f2-    1 4f2-    1 4f2-    1 4f2-
                                   1 4f2-    1 4f2-    1 4f2-    1 4f2-    1 4f2-    1 4f2-    1 5g2-    1 5g4-    1 5g2-    1 5g4-
                                   1 5g2-    1 5g4-    1 5g2-    1 5g4-    1 5g2-    1 5g4-    1 5g2-    1 5g4-    1 5g2-    1 5g4-
                                   1 5g2-    1 5g4-    1 5g2-    1 5g4-    1 6h4-    1 6h2-    1 6h4-    1 6h2-    1 6h4-    1 6h2-
                                   2 3d2-    2 3d2-    2 3d2-    2 3d2-    2 4f2-    2 4f2-

   1.4   +    -0.8660  -15.5560  0.000000 -0.000000  0.000001 -0.000003  0.000053  0.000469 -0.001278  0.001201 -0.000179 -0.007047
                                -0.000127 -0.000906  0.001541 -0.000555 -0.003750 -0.000982 -0.002375  0.001622 -0.000861  0.000227
                                -0.000066  0.000019  0.000105 -0.000845  0.011733  0.223940  0.361378  0.385519  0.207218  0.093242
                                 0.053612 -0.020949  0.044567 -0.029717  0.016880 -0.005903  0.000023 -0.000000  0.000092  0.000000
                                 0.000101  0.000000 -0.000043 -0.000000 -0.001351 -0.000000 -0.001598 -0.000000 -0.000483  0.000000
                                 0.000167  0.000000  0.000044  0.000000 -0.000000 -0.000025 -0.000000  0.000001  0.000000 -0.000764
                                 0.000036  0.000126 -0.000394  0.000003 -0.000037  0.000097

   2.4   0    -0.0096   -6.9790 -0.000001  0.000003 -0.000012  0.000065 -0.001214 -0.011523  0.042267 -0.047206  0.018523  0.294027
                                 0.002916  0.022463 -0.043380  0.026694  0.196003  0.229892  0.191873  0.168789  0.109957  0.103331
                                 0.032419  0.020116  0.000002 -0.000018  0.000239  0.004305  0.006341  0.006541  0.003064  0.002098
                                 0.001872 -0.013393 -0.032080 -0.040196 -0.025924 -0.034025 -0.000005  0.000000 -0.000005 -0.000000
                                -0.000031  0.000000 -0.000259 -0.000000 -0.001439  0.000000 -0.005103  0.000000 -0.007536  0.000000
                                -0.006774  0.000000 -0.001689  0.000000 -0.000000 -0.000006  0.000000  0.000023 -0.000000 -0.000129
                                 0.000282  0.001312  0.002030  0.000025 -0.000102 -0.000460

   3.4   0     0.0106   -1.1145  0.000001 -0.000004  0.000015 -0.000079  0.001461  0.013264 -0.025479  0.006599  0.036742  0.062776
                                -0.003489 -0.025266  0.037037 -0.022870 -0.007483 -0.064214  0.193169 -0.312841  0.462359 -0.619964
                                 1.034594 -1.564188  0.000000 -0.000000  0.000013  0.000497  0.001333  0.001178 -0.001108 -0.000129
                                -0.000689  0.002397 -0.014177  0.025596 -0.059197  0.102229 -0.000002 -0.000000  0.000003  0.000000
                                -0.000014 -0.000000 -0.000000  0.000000 -0.000205 -0.000000 -0.000403  0.000000 -0.000993 -0.000000
                                -0.000174  0.000000 -0.000682 -0.000000 -0.000000 -0.000001  0.000000  0.000003 -0.000000 -0.000014
                                 0.000019  0.000127 -0.000025  0.000002 -0.000010 -0.000054

 HOMO      7.1    -0.278622 =      -7.5817eV
 LUMO      5.3    -0.026678 =      -0.7259eV
 LUMO-HOMO         0.251944 =       6.8557eV

 No convergence



 **********************************************************************************************************************************
 DATASETS  * FILE   NREC   LENGTH (MB)   RECORD NAMES
              1      20       23.19       500      610      700      900      950      970     1000      129      960     1100
                                          VAR    BASINP    GEOM    SYMINP    ZMAT    AOBASIS   BASIS     P2S    ABASIS      S
                                         1400     1410     1420     1200     1210     1080     1600     1650     1700     1800
                                           T        V       ECP      H0       H01     AOSYM     SMH    MOLCAS    OPER     GRID

              2       8       21.65       700     1000      520     1800     2202     3202     4202     5202
                                         GEOM     BASIS   MCVARS    GRID      RKS      RHF      RKS      RHF

 PROGRAMS   *        TOTAL       RHF       RKS       RHF       RKS       INT
 CPU TIMES  *       456.00    196.11     33.66     26.45     42.55    156.83
 REAL TIME  *       514.25 SEC
 DISK USED  *        18.17 GB
 SF USED    *         0.31 MB
 GA USED    *         0.23 MB       (max)       0.23 MB       (current)
 **********************************************************************************************************************************
   -->
   <time start="08:48:05" end="08:51:33" cpu="196.12" system="12.31" real="208.56"/>
   <storage units="megabyte" memory="8001.84" sf="0.31" df="823.12" eaf="17350.28"
     ga="0.23"/>
  </jobstep><!--
 SETTING SCF            =      -123.87126790  AU
 SETTING _CC_NORM_MAX   =         2.00000000
  --><jobstep command="RCCSD(T)" commandset="CCSD">
   <!--


 PROGRAM * CCSD (Restricted open-shell coupled cluster)     Authors: C. Hampel, H.-J. Werner, 1991, M. Deegan, P.J. Knowles, 1992


 Convergence thresholds:  THRVAR = 1.00D-08  THRDEN = 1.00D-06

 CCSD(T)     terms to be evaluated (factor= 1.000)


 Number of closed-shell orbitals:   8 (   4   2   2   0 )
 Number of active  orbitals:        8 (   3   2   2   1 )
 Number of external orbitals:     499 ( 196 119 119  65 )

 Memory could be reduced to 771.69 Mwords without degradation in triples

 Number of N-1 electron functions:              24
 Number of N-2 electron functions:             276
 Number of singly external CSFs:              3707
 Number of doubly external CSFs:          13243967
 Total number of CSFs:                    13247674

 Molecular orbitals read from record     5202.2  Type=RHF/CANONICAL (state 1.4)

 ?Error: RHF not converged. This error exit can be avoided using the IGNORE_ERROR option on the ORBITAL directive
   --><error/><!--
  --></jobstep><!--
  -->
  <input>
  <!--
 --></job><!--
--></molpro>
