<?xml version="1.0"?>
<molpro xmlns="http://www.molpro.net/schema/molpro-output"
  xmlns:xsd="http://www.w3.org/1999/XMLSchema"
  xmlns:cml="http://www.xml-cml.org/schema"
  xmlns:stm="http://www.xml-cml.org/schema"
  xmlns:xhtml="http://www.w3.org/1999/xhtml">
 <!--

 Nodes     nprocs
 nid12844    11
 Number of processes for MPI-2 version of Molpro:   nprocs(total)=   12   nprocs(compute)=   11   nprocs(helper)=    1

 Using customized tuning parameters: mindgm=7; mindgv=16; mindgc=1; mindgr=1; noblas=0; minvec=7
 default implementation of scratch files=sf

 --><job>
  <!--

 Variables initialized (889), CPU time= 0.02 sec
 Commands  initialized (702), CPU time= 0.01 sec, 572 directives.
 Default parameters read. Elapsed time= 0.17 sec

 Checking input...
 Passed
1


                                         ***  PROGRAM SYSTEM MOLPRO  ***
                                       Copyright, TTI GmbH Stuttgart, 2015
                                    Version 2015.1 linked Dec 29 2018 15:55:43


 **********************************************************************************************************************************
 LABEL *   Calculation for GdO, singlet and triplet
  64 bit mpp version                                                                     DATE: 06-Jan-23          TIME: 03:03:59
 **********************************************************************************************************************************

 SHA1:             19cd028119e0e09f93f0674bd8af7968d9b3eff6
 **********************************************************************************************************************************
  -->
  <!--

 THRESHOLDS:

 ZERO    =  1.00D-12  ONEINT  =  1.00D-12  TWOINT  =  1.00D-15  PREFAC  =  1.00D-14  LOCALI  =  1.00D-09  EORDER  =  1.00D-04
 ENERGY  =  0.00D+00  ETEST   =  0.00D+00  EDENS   =  0.00D+00  THRDEDEF=  1.00D-06  GRADIENT=  1.00D-02  STEP    =  1.00D-03
 ORBITAL =  1.00D-05  CIVEC   =  1.00D-05  COEFF   =  1.00D-04  PRINTCI =  5.00D-02  PUNCHCI =  9.90D+01  OPTGRAD =  3.00D-04
 OPTENERG=  1.00D-06  OPTSTEP =  3.00D-04  THRGRAD =  1.00D-10  COMPRESS=  1.00D-11  VARMIN  =  1.00D-07  VARMAX  =  1.00D-03
 THRDOUB =  0.00D+00  THRDIV  =  1.00D-05  THRRED  =  1.00D-07  THRPSP  =  1.00D+00  THRDC   =  1.00D-10  THRCS   =  1.00D-10
 THRNRM  =  1.00D-08  THREQ   =  0.00D+00  THRDE   =  1.00D+00  THRREF  =  1.00D-05  SPARFAC =  1.00D+00  THRDLP  =  1.00D-07
 THRDIA  =  1.00D-10  THRDLS  =  1.00D-07  THRGPS  =  0.00D+00  THRKEX  =  0.00D+00  THRDIS  =  2.00D-01  THRVAR  =  1.00D-10
 THRLOC  =  1.00D-06  THRGAP  =  1.00D-06  THRLOCT = -1.00D+00  THRGAPT = -1.00D+00  THRORB  =  1.00D-06  THRMLTP =  0.00D+00
 THRCPQCI=  1.00D-10  KEXTA   =  0.00D+00  THRCOARS=  0.00D+00  SYMTOL  =  1.00D-06  GRADTOL =  1.00D-06  THROVL  =  1.00D-08
 THRORTH =  1.00D-08  GRID    =  1.00D-06  GRIDMAX =  1.00D-03  DTMAX   =  0.00D+00  THROCCDE=  1.00D-01  THROCCDE=  1.00D-01



 THRESHOLDS:

 ZERO    =  1.00D-12  ONEINT  =  1.00D-12  TWOINT  =  1.00D-15  PREFAC  =  1.00D-14  LOCALI  =  1.00D-09  EORDER  =  1.00D-04
 ENERGY  =  0.00D+00  ETEST   =  0.00D+00  EDENS   =  0.00D+00  THRDEDEF=  1.00D-06  GRADIENT=  1.00D-02  STEP    =  1.00D-03
 ORBITAL =  1.00D-05  CIVEC   =  1.00D-05  COEFF   =  1.00D-04  PRINTCI =  5.00D-02  PUNCHCI =  9.90D+01  OPTGRAD =  3.00D-04
 OPTENERG=  1.00D-06  OPTSTEP =  3.00D-04  THRGRAD =  1.00D-10  COMPRESS=  1.00D-11  VARMIN  =  1.00D-07  VARMAX  =  1.00D-03
 THRDOUB =  0.00D+00  THRDIV  =  1.00D-05  THRRED  =  1.00D-07  THRPSP  =  1.00D+00  THRDC   =  1.00D-10  THRCS   =  1.00D-10
 THRNRM  =  1.00D-08  THREQ   =  0.00D+00  THRDE   =  1.00D+00  THRREF  =  1.00D-05  SPARFAC =  1.00D+00  THRDLP  =  1.00D-07
 THRDIA  =  1.00D-10  THRDLS  =  1.00D-07  THRGPS  =  0.00D+00  THRKEX  =  0.00D+00  THRDIS  =  2.00D-01  THRVAR  =  1.00D-10
 THRLOC  =  1.00D-06  THRGAP  =  1.00D-06  THRLOCT = -1.00D+00  THRGAPT = -1.00D+00  THRORB  =  1.00D-06  THRMLTP =  0.00D+00
 THRCPQCI=  1.00D-10  KEXTA   =  0.00D+00  THRCOARS=  0.00D+00  SYMTOL  =  1.00D-06  GRADTOL =  1.00D-06  THROVL  =  1.00D-15
 THRORTH =  1.00D-08  GRID    =  1.00D-06  GRIDMAX =  1.00D-03  DTMAX   =  0.00D+00  THROCCDE=  1.00D-01  THROCCDE=  1.00D-01



 Variable memory set to 1000000000 words,  buffer space   230000 words

 SETTING BASIS          =    USERDEF
 SETTING GD_CCSD        =      -109.00718878
 SETTING O_CCSD         =       -15.86622096
 SETTING NE             =        24.00000000
 SETTING SYMM           =         4.00000000
 SETTING SS             =         8.00000000
 SETTING A1             =         7.00000000
 SETTING B1             =         4.00000000
 SETTING B2             =         4.00000000
 SETTING A2             =         1.00000000

Geometry recognized as XYZ

  --><jobstep command="RKS-SCF" commandset="SCFPRO">
   <!--


 Recomputing integrals since basis changed


 Using spherical harmonics



 PROGRAM * SEWARD (Integral evaluation for generally contracted gaussian basis sets)     Author: Roland Lindh, 1990

 Geometry written to block  1 of record 700


 Point group  C2v


   --><cml:molecule>
    <cml:symmetry pointGroup="C2v"/>
    <cml:atomArray>
     <cml:atom id="a1" elementType="Gd" x3="0.0" y3="0.0" z3="0.0"/>
     <cml:atom id="a2" elementType="O" x3="0.0" y3="0.0" z3="2.6"/>
    </cml:atomArray>
    <cml:bondArray>
     <cml:bond atomRefs2="a1 a2"/>
    </cml:bondArray>
   </cml:molecule><!--

 ATOMIC COORDINATES

 NR  ATOM    CHARGE       X              Y              Z

   1  GD     18.00    0.000000000    0.000000000    0.000000000
   2  O       6.00    0.000000000    0.000000000    4.913287924

 Bond lengths in Bohr (Angstrom)

 1-2  4.913287924
     ( 2.600000000)

 NUCLEAR CHARGE:                   24
 NUMBER OF PRIMITIVE AOS:         673
 NUMBER OF SYMMETRY AOS:          515
 NUMBER OF CONTRACTIONS:          515   ( 203A1  + 123B1  + 123B2  +  66A2  )
 NUMBER OF CORE ORBITALS:           0   (   0A1  +   0B1  +   0B2  +   0A2  )
 NUMBER OF VALENCE ORBITALS:       21   (   9A1  +   5B1  +   5B2  +   2A2  )


 NUCLEAR REPULSION ENERGY   21.98120722

 EXTRA SYMMETRY OF AOS IN SYMMETRY 1:   1 1 1 1 1 1 1 1 1 1   1 1 1 1 1 1 1 1 1 1   1 1 1 1 1 1 1 1 1 1   1 1 1 1 1 1 1 1 1 1
                                        1 1 1 1 1 1 1 1 1 1   1 1 1 1 1 1 1 1 1 1   1 1 1 2 1 2 1 2 1 2   1 2 1 2 1 2 1 2 1 2
                                        1 2 1 2 1 2 1 2 1 2   1 2 1 2 1 2 1 2 1 2   1 2 1 2 1 2 1 2 1 2   1 2 1 2 1 2 1 2 1 2
                                        1 2 1 2 1 2 1 2 1 2   1 2 1 2 1 3 2 1 3 2   1 3 2 1 3 2 1 3 2 1   3 2 1 3 2 1 3 2 1 3
                                        2 2 3 1 2 3 1 2 3 1   1 1 1 1 1 1 1 1 1 1   1 1 1 1 1 1 1 1 1 1   1 1 2 1 2 1 2 1 2 1
                                        2 1 2
 EXTRA SYMMETRY OF AOS IN SYMMETRY 2:   1 1 1 1 1 1 1 1 1 1   1 1 1 1 1 1 1 1 1 1   1 1 1 1 1 1 1 1 1 1   1 1 1 1 1 1 1 1 1 1
                                        1 1 1 1 1 1 1 1 1 1   1 1 1 2 1 2 1 2 1 2   1 2 1 2 1 2 1 2 1 2   1 2 1 2 1 2 1 2 1 2
                                        1 2 1 2 1 2 1 2 1 2   1 2 1 2 1 2 1 2 1 2   3 1 2 3 1 2 3 1 1 1   1 1 1 1 1 1 1 1 1 1
                                        2 1 2
 EXTRA SYMMETRY OF AOS IN SYMMETRY 3:   1 1 1 1 1 1 1 1 1 1   1 1 1 1 1 1 1 1 1 1   1 1 1 1 1 1 1 1 1 1   1 1 1 1 1 1 1 1 1 1
                                        1 1 1 1 1 1 1 1 1 1   1 1 1 2 1 2 1 2 1 2   1 2 1 2 1 2 1 2 1 2   1 2 1 2 1 2 1 2 1 2
                                        1 2 1 2 1 2 1 2 1 2   1 2 1 2 1 2 1 2 1 2   3 1 2 3 1 2 3 1 1 1   1 1 1 1 1 1 1 1 1 1
                                        2 1 2
 EXTRA SYMMETRY OF AOS IN SYMMETRY 4:   1 1 1 1 1 1 1 1 1 1   1 1 1 1 1 1 1 1 1 1   1 1 1 1 1 1 1 1 1 1   1 1 1 1 1 1 1 2 1 2
                                        1 2 1 2 1 2 1 2 1 2   1 2 1 2 2 1 2 1 2 1   1 1 1 1 1 1

 Eigenvalues of metric

         1 0.115E-06 0.305E-06 0.611E-06 0.723E-06 0.727E-06 0.741E-06 0.134E-05 0.433E-05
         2 0.616E-06 0.727E-06 0.439E-05 0.139E-04 0.238E-04 0.448E-04 0.885E-04 0.148E-03
         3 0.616E-06 0.727E-06 0.439E-05 0.139E-04 0.238E-04 0.448E-04 0.885E-04 0.148E-03
         4 0.727E-06 0.238E-04 0.149E-03 0.540E-03 0.826E-03 0.926E-03 0.420E-02 0.882E-02


 Contracted 2-electron integrals neglected if value below      1.0D-15
 AO integral compression algorithm  1   Integral accuracy      1.0D-15

     7124.812 MB (compressed) written to integral file ( 38.4%)

     Node minimum: 450.101 MB, node maximum: 903.348 MB


 NUMBER OF SORTED TWO-ELECTRON INTEGRALS:  203915071.     BUFFER LENGTH:  32768
 NUMBER OF SEGMENTS:   7  SEGMENT LENGTH:   31990770      RECORD LENGTH: 524288

 Memory used in sort:      32.55 MW

 SORT1 READ  2319806290. AND WROTE    77568141. INTEGRALS IN    225 RECORDS. CPU TIME:    43.03 SEC, REAL TIME:    64.04 SEC
 SORT2 READ   859890459. AND WROTE  2243484243. INTEGRALS IN  23342 RECORDS. CPU TIME:     8.67 SEC, REAL TIME:    17.40 SEC

 Node minimum:   203897834.  Node maximum:   204073967. integrals

 OPERATOR DM      FOR CENTER  0  COORDINATES:    0.000000    0.000000    0.000000


 **********************************************************************************************************************************
 DATASETS  * FILE   NREC   LENGTH (MB)   RECORD NAMES
              1      19       23.11       500      610      700      900      950      970     1000      129      960     1100
                                          VAR    BASINP    GEOM    SYMINP    ZMAT    AOBASIS   BASIS     P2S    ABASIS      S
                                         1400     1410     1420     1200     1210     1080     1600     1650     1700
                                           T        V       ECP      H0       H01     AOSYM     SMH    MOLCAS    OPER

 PROGRAMS   *        TOTAL       INT
 CPU TIMES  *       159.20    158.82
 REAL TIME  *       191.30 SEC
 DISK USED  *        17.40 GB
 GA USED    *         0.00 MB       (max)       0.00 MB       (current)
 **********************************************************************************************************************************

 Density functional group PBE0=PBEX+PBEC
 Functional: PBEX(Automatically generated (new) PBEX)                          Gradient terms: 1
 Functional: PBEC(Automatically generated (new) PBEC)                          Gradient terms: 1
 Use grid at  1800.2


 Exact exchange will be calculated, factor:  0.2500

 Functional: PBEX                      Factor:  0.7500
 Functional: PBEC                      Factor:  1.0000

 Generated new metagrid on record  1800.2 with target accuracy 1.0D-06 and 5140 points in CPU time    0.1
 Computed new grid on record 1800.1 in CPU time    0.1
  410982 words reserved for DFT integration

 PROGRAM * RKS-SCF (Restricted open shell Kohn-Sham)     Authors: W. Meyer, H.-J. Werner, P.J. Knowles, 1993

 NUMBER OF ELECTRONS:      15+    8-    SPACE SYMMETRY=4    SPIN SYMMETRY: Octet
 CONVERGENCE THRESHOLDS:    1.00E-05 (Density)    1.00E-06 (Energy)
 MAX. NUMBER OF ITERATIONS:      200
 INTERPOLATION TYPE:            DIIS
 INTERPOLATION STEPS:              2 (START)      1 (STEP)
 LEVEL SHIFTS:                 -0.60 (CLOSED) -0.30 (OPEN)

 Number of closed-shell orbitals:    8 (   4   2   2   0 )
 Number of open-shell orbitals:      7 (   2   2   2   1 )


 Use fine grid record 1800.2 for energy threshold  1.0D-06
 Guess basis ATOMIC-GUESS,GD=ECP46_GUESS,O=ECP2_GUESS not found. No density guess!


 Molecular orbital dump at record        2202.2

 ITERATION    DDIFF          GRAD             ENERGY        2-EL.EN.            DIPOLE MOMENTS         DIIS   ORB.
    1      0.000D+00      0.000D+00       -55.47178528    531.071085    0.00000    0.00000   28.81374    0    start
    2      0.000D+00      0.224D+00         9.96338346    283.926784    0.00000    0.00000  -93.74654    0    diag,B
    3      0.187D+00      0.139D+00       -55.05334673    530.292901    0.00000    0.00000   30.80291    1    diag,B
    4      0.187D+00      0.224D+00       -79.28193701    468.435353    0.00000    0.00000   30.68226    2    diag,B
    5      0.443D-01      0.147D+00      -103.08554320    371.249125    0.00000    0.00000   30.22955    3    diag,B
    6      0.348D-01      0.631D-01       -73.62997915    214.600525    0.00000    0.00000  -50.54370    4    diag,B
    7      0.625D-01      0.115D+00       -82.99992604    203.961215    0.00000    0.00000  -46.96979    5    diag,B
    8      0.247D-01      0.966D-01      -117.51765607    238.987847    0.00000    0.00000  -18.09392    6    diag,B
    9      0.469D-01      0.563D-01      -117.53820887    226.472423    0.00000    0.00000  -19.45720    7    diag,B
   10      0.906D-02      0.541D-01      -119.37733802    232.327761    0.00000    0.00000  -17.39574    8    orth
   11      0.931D-02      0.465D-01      -124.34165210    260.069639    0.00000    0.00000  -10.42320    9    diag,B
   12      0.796D-02      0.268D-01      -125.22529752    257.416569    0.00000    0.00000   -9.39421   10    diag,B
   13      0.560D-02      0.169D-01      -125.81305914    254.144317    0.00000    0.00000   -7.93022   11    diag,B
   14      0.559D-02      0.893D-02      -125.91406782    255.560593    0.00000    0.00000   -6.89431   12    diag,B
   15      0.389D-02      0.829D-02      -125.98630580    255.816758    0.00000    0.00000   -6.26996   13    diag,B
   16      0.847D-03      0.647D-02      -126.09152898    257.095429    0.00000    0.00000   -3.62963   14    diag,B
   17      0.240D-02      0.102D-02      -126.09523357    256.726343    0.00000    0.00000   -3.87906   15    diag,B
   18      0.135D-02      0.395D-03      -126.09698572    256.725189    0.00000    0.00000   -3.66671   16    diag,B
   19      0.568D-03      0.353D-03      -126.09812247    256.744872    0.00000    0.00000   -3.62999   17    diag,B
   20      0.449D-03      0.262D-03      -126.09888688    256.747065    0.00000    0.00000   -3.51501   18    orth
   21      0.426D-03      0.181D-03      -126.09972615    256.687622    0.00000    0.00000   -3.40450   19    diag,B
   22      0.760D-03      0.970D-04      -126.10019037    256.596790    0.00000    0.00000   -3.35182   20    diag,B
   23      0.726D-03      0.807D-04      -126.10029194    256.566254    0.00000    0.00000   -3.37236   21    diag,B
   24      0.293D-03      0.311D-04      -126.10032508    256.535791    0.00000    0.00000   -3.34458   22    diag,B
   25      0.344D-03      0.267D-04      -126.10033042    256.540085    0.00000    0.00000   -3.36885   23    diag,B
   26      0.466D-04      0.245D-04      -126.10033761    256.525279    0.00000    0.00000   -3.35160   24    diag,B
   27      0.113D-03      0.106D-04      -126.10034033    256.520833    0.00000    0.00000   -3.35329   25    diag,B
   28      0.461D-04      0.614D-05      -126.10034201    256.513632    0.00000    0.00000   -3.35192   26    diag,B
   29      0.269D-04      0.349D-05      -126.10034253    256.508958    0.00000    0.00000   -3.34784   27    diag,B
   30      0.611D-04      0.216D-05      -126.10034261    256.507771    0.00000    0.00000   -3.34803   28    orth
   31      0.125D-04      0.978D-06      -126.10034262    256.507961    0.00000    0.00000   -3.34786   29    diag,B
   32      0.165D-04      0.533D-06      -126.10034263    256.508033    0.00000    0.00000   -3.34775   29    diag,B
   33      0.435D-05      0.124D-06      -126.10034263    256.508003    0.00000    0.00000   -3.34778    0    orth

 Final alpha occupancy:   6   4   4   1
 Final beta  occupancy:   4   2   2   0

 !RKS STATE 1.4 Energy               -126.100342625478
   --><property name="Energy" method="RKS" principal="true" stateSymmetry="4" stateNumber="1"
     value="-126.100342625478"/><!--
 Nuclear energy                        21.98120722
 One-electron energy                 -264.37888140
 Two-electron energy                  128.25400162
 Density functional                   -11.95667007     PBEX=-14.88174321 PBEC= -0.79536266
 Virial quotient                       -0.86147429
 !RKS STATE 1.4 Dipole moment           0.00000000     0.00000000    -3.34777551
 Dipole moment /Debye                   0.00000000     0.00000000    -8.50863928
   --><property name="Dipole moment" method="RKS" principal="true" stateSymmetry="4"
     stateNumber="1" value="0.0 0.0 -3.34777551047821"/><!--

 ELECTRON ORBITALS
 =================


   Orb  Occ    Energy  Couls-En    Coefficients

                                   1 1s      1 1s      1 1s      1 1s      1 1s      1 1s      1 1s      1 1s      1 1s      1 1s
                                   1 1s      1 1s      1 1s      1 1s      1 1s      1 1s      1 1s      1 1s      1 1s      1 1s
                                   1 1s      1 1s      1 1s      1 1s      1 1s      1 1s      1 1s      1 1s      1 1s      1 1s
                                   1 1s      1 1s      1 2pz     1 2pz     1 2pz     1 2pz     1 2pz     1 2pz     1 2pz     1 2pz
                                   1 2pz     1 2pz     1 2pz     1 2pz     1 2pz     1 2pz     1 2pz     1 2pz     1 2pz     1 2pz
                                   1 2pz     1 2pz     1 2pz     1 2pz     1 2pz     1 2pz     1 2pz     1 2pz     1 2pz     1 2pz
                                   1 2pz     1 2pz     1 3d0     1 3d2+    1 3d0     1 3d2+    1 3d0     1 3d2+    1 3d0     1 3d2+
                                   1 3d0     1 3d2+    1 3d0     1 3d2+    1 3d0     1 3d2+    1 3d0     1 3d2+    1 3d0     1 3d2+
                                   1 3d0     1 3d2+    1 3d0     1 3d2+    1 3d0     1 3d2+    1 3d0     1 3d2+    1 3d0     1 3d2+
                                   1 3d0     1 3d2+    1 3d0     1 3d2+    1 3d0     1 3d2+    1 3d0     1 3d2+    1 3d0     1 3d2+
                                   1 3d0     1 3d2+    1 3d0     1 3d2+    1 3d0     1 3d2+    1 4f0     1 4f2+    1 4f0     1 4f2+
                                   1 4f0     1 4f2+    1 4f0     1 4f2+    1 4f0     1 4f2+    1 4f0     1 4f2+    1 4f0     1 4f2+
                                   1 4f0     1 4f2+    1 4f0     1 4f2+    1 4f0     1 4f2+    1 4f0     1 4f2+    1 4f0     1 4f2+
                                   1 4f0     1 4f2+    1 4f0     1 4f2+    1 5g0     1 5g4+    1 5g2+    1 5g0     1 5g4+    1 5g2+
                                   1 5g0     1 5g4+    1 5g2+    1 5g0     1 5g4+    1 5g2+    1 5g0     1 5g4+    1 5g2+    1 5g0
                                   1 5g4+    1 5g2+    1 5g0     1 5g4+    1 5g2+    1 5g0     1 5g4+    1 5g2+    1 5g0     1 5g4+
                                   1 5g2+    1 6h2+    1 6h4+    1 6h0     1 6h2+    1 6h4+    1 6h0     1 6h2+    1 6h4+    1 6h0
                                   2 1s      2 1s      2 1s      2 1s      2 1s      2 1s      2 1s      2 1s      2 1s      2 1s
                                   2 1s      2 1s      2 1s      2 2pz     2 2pz     2 2pz     2 2pz     2 2pz     2 2pz     2 2pz
                                   2 2pz     2 3d0     2 3d2+    2 3d0     2 3d2+    2 3d0     2 3d2+    2 3d0     2 3d2+    2 4f0
                                   2 4f2+    2 4f0     2 4f2+

   1.1   2    -2.1954  -15.6701 -0.000000  0.000002 -0.000008  0.000148  0.000648  0.002015  0.004264  0.009518 -0.003818  0.008451
                                -0.006483  0.792228 -0.049034  0.032740  0.739964  0.455795  0.508234  0.343489  0.136359 -0.000259
                                -0.001166 -0.003446 -0.009813 -0.022984 -1.254558  0.181993 -0.240606 -0.607326 -0.203142 -0.006358
                                 0.002264 -0.000492 -0.000000  0.000000 -0.000000  0.000000 -0.000000  0.000000 -0.000000  0.000000
                                -0.000002  0.000017  0.000184  0.000117 -0.003614  0.000210  0.007266 -0.007670 -0.001851  0.000089
                                 0.000816 -0.000070 -0.000237  0.002059  0.003958 -0.002112 -0.017027  0.000121 -0.000103 -0.000198
                                -0.000038  0.000007  0.000000 -0.000000 -0.000000  0.000000  0.000001 -0.000000 -0.000003  0.000000
                                 0.000057 -0.000000  0.000792 -0.000000 -0.002301  0.000000  0.001057 -0.000000  0.001730 -0.000000
                                -0.002750 -0.000000 -0.000150  0.000000 -0.001743  0.000000  0.003004 -0.000000 -0.000466  0.000000
                                -0.008705  0.000000  0.000569  0.000000 -0.000658 -0.000000  0.000892  0.000000 -0.000308 -0.000000
                                 0.000048  0.000000 -0.000017 -0.000000  0.000005  0.000000 -0.000000  0.000000  0.000000 -0.000000
                                -0.000007 -0.000000 -0.000171 -0.000000 -0.000311 -0.000000 -0.000259 -0.000000 -0.000821  0.000000
                                -0.000020  0.000000 -0.000030  0.000000  0.000367 -0.000000 -0.000322  0.000000  0.000355  0.000000
                                -0.000110 -0.000000  0.000020  0.000000 -0.000002 -0.000000  0.000000  0.000011  0.000000 -0.000000
                                -0.000051 -0.000000  0.000000  0.000183  0.000000  0.000000 -0.000310  0.000000 -0.000000  0.000145
                                -0.000000  0.000000 -0.000188  0.000000 -0.000000  0.000107 -0.000000  0.000000 -0.000012  0.000000
                                -0.000000  0.000000  0.000000  0.000000 -0.000000 -0.000000 -0.000001  0.000000  0.000000 -0.000004
                                -0.000000  0.000000 -0.000000  0.000000 -0.000003  0.000111 -0.000238  0.000333  0.000948  0.001010
                                -0.000885 -0.000086 -0.000174 -0.000018 -0.000163 -0.000400 -0.000805 -0.000516  0.000306  0.000009
                                 0.000005  0.000044  0.000000  0.000271  0.000000  0.000089 -0.000000  0.000004 -0.000000 -0.000030
                                 0.000000 -0.000056 -0.000000

   2.1   2    -1.3266  -13.1535 -0.000000  0.000000 -0.000000  0.000004  0.000018  0.000057  0.000120  0.000269 -0.000110  0.000261
                                -0.000530  0.024530  0.004958 -0.021945 -0.014070 -0.001406  0.026782  0.033372  0.013899 -0.000007
                                -0.000033 -0.000097 -0.000277 -0.000070 -0.041969  0.075437 -0.021881 -0.046004 -0.021155 -0.000616
                                 0.000217 -0.000047  0.000000 -0.000000  0.000001 -0.000002  0.000003 -0.000004  0.000009 -0.000026
                                 0.000109 -0.001046 -0.011501 -0.011320  0.158565 -0.099084  0.215428  0.336076  0.070683  0.003195
                                 0.001546  0.004276  0.015836 -0.073703 -0.201918  0.185434  0.374905  0.000944  0.000794 -0.001729
                                -0.000298  0.000058  0.000000  0.000000 -0.000001 -0.000000  0.000003  0.000000 -0.000018 -0.000000
                                 0.000335  0.000000  0.003076  0.000000 -0.007173 -0.000000  0.003773  0.000000  0.011059  0.000000
                                -0.012847  0.000000 -0.000801 -0.000000 -0.005936 -0.000000  0.009408  0.000000 -0.007038 -0.000000
                                -0.014041 -0.000000 -0.002117 -0.000000 -0.003792  0.000000  0.003412 -0.000000 -0.001663  0.000000
                                 0.000409 -0.000000 -0.000160  0.000000  0.000044 -0.000000 -0.000000 -0.000000  0.000004  0.000000
                                -0.000064 -0.000000 -0.001644 -0.000000 -0.003298  0.000000 -0.003589 -0.000000 -0.009009 -0.000000
                                -0.000279 -0.000000  0.000498 -0.000000  0.000240 -0.000000 -0.002285 -0.000000  0.001529  0.000000
                                -0.000650  0.000000  0.000161 -0.000000 -0.000000 -0.000000  0.000000  0.000003  0.000000 -0.000000
                                -0.000049 -0.000000  0.000000  0.000166  0.000000 -0.000000 -0.000858 -0.000000 -0.000000  0.000923
                                -0.000000  0.000000 -0.000665  0.000000 -0.000000  0.000225 -0.000000  0.000000 -0.000011  0.000000
                                -0.000000  0.000000  0.000000 -0.000003 -0.000000  0.000000  0.000010  0.000000 -0.000000  0.000005
                                -0.000000  0.000000 -0.000001  0.000008 -0.000061  0.002247 -0.004842  0.007905  0.023093  0.015971
                                -0.000420 -0.002022 -0.003556 -0.000187 -0.001647 -0.005136 -0.008183 -0.006070  0.000541 -0.000082
                                 0.000051  0.000342  0.000000  0.001418  0.000000  0.001003 -0.000000  0.000024 -0.000000 -0.000161
                                 0.000000 -0.000295 -0.000000

   3.1   2    -0.9901   -9.4982  0.000000 -0.000000  0.000000 -0.000006 -0.000026 -0.000080 -0.000169 -0.000379  0.000153 -0.000407
                                 0.002007 -0.016681  0.012086 -0.022785 -0.081253 -0.021209 -0.103233  0.073380  0.011338  0.000010
                                 0.000046  0.000137  0.000390 -0.002259  0.028130  0.054835  0.080961  0.014953 -0.024781  0.000004
                                -0.000039  0.000012 -0.000000  0.000000 -0.000000  0.000000 -0.000000  0.000001 -0.000001  0.000004
                                -0.000015  0.000140  0.001548  0.001790 -0.007654  0.015600  0.009809 -0.014681  0.004685 -0.030809
                                 0.071564 -0.000572 -0.002179  0.001662  0.010635 -0.028156 -0.063685 -0.009211 -0.052081  0.028451
                                 0.002246 -0.000383  0.000000 -0.000000 -0.000000  0.000000  0.000002 -0.000000 -0.000011  0.000000
                                 0.000204 -0.000000  0.001914 -0.000000 -0.003323  0.000000  0.000161  0.000000  0.007600  0.000000
                                 0.018736  0.000000 -0.000491  0.000000 -0.003682  0.000000  0.005222 -0.000000 -0.004653 -0.000000
                                 0.002957  0.000000  0.008310 -0.000000 -0.018626  0.000000  0.033329 -0.000000 -0.009828  0.000000
                                 0.001477 -0.000000 -0.000503  0.000000  0.000133  0.000000  0.000000  0.000000 -0.000003 -0.000000
                                 0.000046  0.000000  0.001138 -0.000000  0.002303 -0.000000  0.002752 -0.000000  0.002711 -0.000000
                                 0.000229  0.000000 -0.000435  0.000000  0.004453 -0.000000 -0.009481 -0.000000  0.011874  0.000000
                                -0.001604 -0.000000  0.000036  0.000000 -0.000002  0.000000  0.000000  0.000018 -0.000000 -0.000000
                                -0.000040  0.000000  0.000000  0.000247 -0.000000 -0.000000 -0.000344 -0.000000 -0.000000  0.002445
                                 0.000000  0.000000 -0.004805 -0.000000 -0.000000  0.002149  0.000000  0.000000  0.001114 -0.000000
                                -0.000000  0.000000 -0.000000  0.000004 -0.000000  0.000000 -0.000014  0.000000 -0.000000  0.000082
                                -0.000000  0.000005 -0.000035  0.000208 -0.001498  0.053593 -0.103283  0.196554  0.551864  0.400458
                                -0.008747 -0.056804 -0.086371 -0.000287 -0.002273 -0.011020 -0.012212 -0.035965  0.007008 -0.000714
                                 0.000071  0.000594  0.000000  0.002625  0.000000  0.010213  0.000000 -0.000006 -0.000000  0.000075
                                 0.000000 -0.001543 -0.000000

   4.1   2    -0.4206   -8.2481 -0.000000  0.000000 -0.000002  0.000033  0.000144  0.000447  0.000947  0.002126 -0.000865  0.002209
                                -0.008792  0.130716 -0.027560  0.058271  0.332944  0.241616  0.295610  0.218941 -0.061777 -0.000057
                                -0.000258 -0.000765 -0.002188  0.008334 -0.228067 -0.102587 -0.356750 -0.658745  0.025588  0.007185
                                -0.002872  0.000658  0.000000 -0.000000  0.000000 -0.000000  0.000000 -0.000000  0.000001 -0.000002
                                 0.000007 -0.000067 -0.000760 -0.000926  0.004253 -0.012552 -0.042147  0.001500 -0.021512  0.048730
                                 0.013343  0.000276  0.001092 -0.000893 -0.004855  0.031561  0.074746  0.038855  0.085958 -0.090381
                                -0.010860  0.001986  0.000000  0.000000 -0.000000 -0.000000  0.000001  0.000000 -0.000004 -0.000000
                                 0.000036  0.000000 -0.000089 -0.000000 -0.006334  0.000000  0.014580 -0.000000 -0.025747  0.000000
                                -0.136308  0.000000 -0.000051  0.000000  0.000342  0.000000  0.002817 -0.000000  0.007176 -0.000000
                                -0.070402  0.000000 -0.098347  0.000000 -0.018043  0.000000 -0.011877  0.000000  0.019225 -0.000000
                                -0.014599  0.000000  0.006572 -0.000000 -0.001914  0.000000 -0.000002 -0.000000  0.000017  0.000000
                                -0.000258 -0.000000 -0.005848 -0.000000 -0.010818 -0.000000 -0.012625 -0.000000 -0.006972 -0.000000
                                -0.001678 -0.000000  0.000836 -0.000000 -0.008274 -0.000000  0.011205 -0.000000  0.008001 -0.000000
                                 0.001915 -0.000000 -0.002479 -0.000000 -0.000007 -0.000000  0.000000  0.000017  0.000000 -0.000000
                                -0.000023  0.000000  0.000000 -0.000255 -0.000000 -0.000000  0.001908  0.000000 -0.000000 -0.004404
                                -0.000001 -0.000000  0.005960  0.000001  0.000000  0.003132 -0.000000 -0.000000  0.000288  0.000000
                                 0.000000  0.000000  0.000000 -0.000009 -0.000000  0.000000  0.000037  0.000000 -0.000000 -0.000159
                                -0.000000  0.000000 -0.000002  0.000014 -0.000118  0.005651 -0.017447  0.020560  0.088190  0.063628
                                -0.052204 -0.002201 -0.008635  0.008109  0.071635  0.239197  0.357534  0.292547  0.063513  0.005358
                                -0.002194 -0.002268 -0.000000 -0.007412 -0.000000 -0.018744 -0.000000 -0.000207  0.000000  0.000746
                                -0.000000  0.002672  0.000000

   5.1   +    -0.9440  -15.7040  0.000000 -0.000000  0.000000 -0.000000 -0.000000 -0.000000 -0.000000 -0.000000  0.000000 -0.000000
                                 0.000000  0.000000  0.000000 -0.000000 -0.000000  0.000000  0.000000  0.000000  0.000000  0.000000
                                 0.000000  0.000000  0.000000 -0.000000 -0.000000  0.000000 -0.000000 -0.000000 -0.000000 -0.000000
                                 0.000000 -0.000000  0.000000 -0.000000  0.000000 -0.000000  0.000000 -0.000000  0.000000 -0.000000
                                 0.000000 -0.000000 -0.000000 -0.000000 -0.000000 -0.000000 -0.000000 -0.000000  0.000000 -0.000000
                                 0.000000  0.000000  0.000000  0.000000  0.000000  0.000000  0.000000 -0.000000 -0.000000  0.000000
                                 0.000000 -0.000000 -0.000000  0.000000  0.000000 -0.000000 -0.000000  0.000001  0.000000 -0.000003
                                -0.000000  0.000062 -0.000000  0.000557  0.000000 -0.001357 -0.000000  0.000995 -0.000000  0.000658
                                 0.000000 -0.005893  0.000000 -0.000148  0.000000 -0.001051 -0.000000  0.001685  0.000000 -0.000928
                                 0.000000 -0.004051 -0.000000 -0.000684 -0.000000 -0.001499  0.000000  0.001074 -0.000000 -0.000586
                                -0.000000  0.000163  0.000000 -0.000051 -0.000000  0.000015 -0.000000  0.000097  0.000000 -0.000782
                                -0.000000  0.011148 -0.000000  0.228038 -0.000000  0.363274 -0.000000  0.378145 -0.000000  0.196941
                                -0.000000  0.099600 -0.000000  0.055699 -0.000000 -0.021415 -0.000000  0.042037  0.000000 -0.028188
                                -0.000000  0.015784 -0.000000 -0.005480  0.000000  0.000000 -0.000006 -0.000000 -0.000000  0.000007
                                 0.000000  0.000000 -0.000093 -0.000000 -0.000000 -0.000172  0.000000  0.000000 -0.001545 -0.000000
                                -0.000000 -0.001147 -0.000000  0.000000 -0.000263  0.000000 -0.000000  0.000122  0.000000  0.000000
                                 0.000011 -0.000014 -0.000000 -0.000000  0.000038 -0.000000 -0.000000 -0.000965 -0.000000  0.000000
                                -0.000000  0.000000 -0.000000  0.000000 -0.000000  0.000000  0.000000  0.000000 -0.000000  0.000000
                                -0.000000 -0.000000 -0.000000  0.000000  0.000000 -0.000000  0.000000 -0.000000  0.000000 -0.000000
                                -0.000000 -0.000000  0.000028  0.000000  0.000049  0.000000 -0.000307  0.000000  0.000001  0.000000
                                -0.000003 -0.000000 -0.000004

   6.1   +    -0.9409  -15.7088  0.000000 -0.000000  0.000000 -0.000002 -0.000007 -0.000022 -0.000047 -0.000104  0.000041 -0.000196
                                 0.002822  0.021951  0.031672 -0.073478 -0.247236  0.109032 -0.059367 -0.233817 -0.017789  0.000003
                                 0.000013  0.000038  0.000108 -0.004618 -0.039128  0.276147 -0.107710  0.235166  0.049811 -0.000658
                                 0.000337 -0.000083 -0.000000  0.000000 -0.000000  0.000000 -0.000000  0.000000 -0.000000  0.000000
                                -0.000000  0.000001 -0.000008  0.000082  0.004027  0.003440  0.044309  0.073802 -0.093253  0.058608
                                -0.090055  0.000001 -0.000003 -0.002432 -0.006561 -0.007384 -0.055530  0.002705  0.044517 -0.014174
                                -0.000412  0.000050  0.000000 -0.000000 -0.000001  0.000000  0.000002 -0.000000 -0.000013  0.000000
                                 0.000230 -0.000000  0.002128 -0.000000 -0.005472  0.000000  0.003770 -0.000000  0.008596 -0.000000
                                 0.007746 -0.000000 -0.000550  0.000000 -0.004139  0.000000  0.006835 -0.000000 -0.005906  0.000000
                                -0.020069 -0.000000 -0.069073  0.000000  0.051242 -0.000000 -0.050238  0.000000  0.013166 -0.000000
                                -0.000418  0.000000  0.000029 -0.000000  0.000003  0.000000  0.000098  0.000000 -0.000789 -0.000000
                                 0.011201  0.000000  0.227669  0.000000  0.359578  0.000000  0.375076  0.000000  0.201043  0.000000
                                 0.101343  0.000000  0.060291  0.000000 -0.034640 -0.000000  0.042158  0.000000 -0.030442 -0.000000
                                 0.011599  0.000000 -0.002918 -0.000000  0.000060  0.000000 -0.000000 -0.000244 -0.000000  0.000000
                                 0.000614  0.000000 -0.000000 -0.001969  0.000000  0.000000  0.002031 -0.000000 -0.000000 -0.008163
                                 0.000000  0.000000 -0.000617 -0.000000 -0.000000  0.003393  0.000000  0.000000 -0.002771 -0.000000
                                -0.000000 -0.000000 -0.000000 -0.000023 -0.000000  0.000001  0.000076 -0.000000  0.000009 -0.001270
                                 0.000000 -0.000000  0.000000 -0.000000  0.000003 -0.000261  0.001745  0.000834 -0.012195 -0.006596
                                 0.073396 -0.000943  0.000311  0.000209  0.001857  0.006465  0.012926 -0.011670 -0.022426  0.000218
                                -0.000055 -0.000554  0.000000  0.002876  0.000000  0.015605 -0.000000  0.000068 -0.000000  0.000411
                                 0.000000 -0.004982 -0.000000

   7.1   0    -0.3320   -7.0660  0.000000 -0.000001  0.000003 -0.000057 -0.000249 -0.000774 -0.001638 -0.003662  0.001490 -0.003766
                                 0.016218 -0.217132  0.036742 -0.065031 -0.449435 -0.381649 -0.073400 -0.086769 -0.253392  0.000099
                                 0.000448  0.001324  0.003772 -0.019422  0.405159 -0.018693  0.380726  0.814119  0.420554  0.014052
                                -0.005227  0.001172  0.000000 -0.000000  0.000000 -0.000000  0.000000 -0.000001  0.000001 -0.000003
                                 0.000014 -0.000139 -0.001520 -0.001690  0.010287 -0.011968 -0.008702  0.041036 -0.026138 -0.113943
                                -0.119204  0.000567  0.002115 -0.003017 -0.018769  0.034061  0.084207  0.022374  0.067800 -0.057395
                                -0.006106  0.001113  0.000000 -0.000000 -0.000001  0.000000  0.000005 -0.000000 -0.000025  0.000000
                                 0.000396 -0.000000  0.003353 -0.000000 -0.016541  0.000000  0.022046 -0.000000 -0.017313 -0.000000
                                -0.171140 -0.000000 -0.000905  0.000000 -0.006577  0.000000  0.015030 -0.000000 -0.003795  0.000000
                                -0.100388  0.000000 -0.125116 -0.000000 -0.057506 -0.000000 -0.046432  0.000000  0.010676  0.000000
                                -0.006106  0.000000  0.002730 -0.000000 -0.000800  0.000000 -0.000000  0.000000  0.000002 -0.000000
                                -0.000034  0.000000 -0.000774  0.000000 -0.001442  0.000000 -0.001489  0.000000  0.000584  0.000000
                                -0.000223  0.000000  0.000173  0.000000  0.004269 -0.000000  0.015634  0.000000 -0.003014  0.000000
                                 0.002838 -0.000000 -0.001088  0.000000 -0.000009 -0.000000 -0.000000  0.000040  0.000000  0.000000
                                -0.000080 -0.000000 -0.000000  0.000069  0.000000  0.000000  0.001551 -0.000000 -0.000000  0.000282
                                 0.000000  0.000000  0.002057 -0.000000 -0.000000 -0.002813  0.000000  0.000000 -0.000480 -0.000000
                                -0.000000  0.000000  0.000000  0.000000 -0.000000 -0.000000 -0.000002  0.000000 -0.000000  0.000010
                                 0.000000 -0.000000  0.000001 -0.000005  0.000034 -0.000849 -0.000374 -0.003547 -0.003015 -0.008067
                                 0.007431  0.002115  0.001559  0.002406  0.021270  0.071215  0.106452  0.090490  0.016374  0.001591
                                -0.000651 -0.000630 -0.000000 -0.002410 -0.000000 -0.006300 -0.000000 -0.000061  0.000000  0.000272
                                -0.000000  0.001307  0.000000

   8.1   0    -0.3146   -8.5600 -0.000000  0.000000 -0.000000  0.000000  0.000000  0.000000  0.000000  0.000000 -0.000000  0.000000
                                -0.000000 -0.000000 -0.000000 -0.000000 -0.000000  0.000000  0.000000  0.000000  0.000000 -0.000000
                                -0.000000 -0.000000 -0.000000  0.000000  0.000000  0.000000 -0.000000 -0.000000 -0.000000 -0.000000
                                 0.000000 -0.000000  0.000000 -0.000000  0.000000 -0.000000  0.000000 -0.000000  0.000000 -0.000000
                                 0.000000 -0.000000 -0.000000 -0.000000 -0.000000 -0.000000 -0.000000 -0.000000  0.000000  0.000000
                                -0.000000  0.000000  0.000000  0.000000  0.000000  0.000000  0.000000  0.000000  0.000000 -0.000000
                                -0.000000  0.000000  0.000000 -0.000001 -0.000000  0.000005  0.000000 -0.000021 -0.000000  0.000108
                                 0.000000 -0.001856  0.000000 -0.016429 -0.000000  0.057062  0.000000 -0.059328  0.000000  0.015341
                                -0.000000  0.387342 -0.000000  0.004347 -0.000000  0.031873  0.000000 -0.060348 -0.000000  0.025538
                                -0.000000  0.265072  0.000000  0.286872  0.000000  0.154846 -0.000000  0.089303  0.000000 -0.002912
                                 0.000000  0.005132 -0.000000 -0.002069  0.000000  0.000599 -0.000000  0.000002  0.000000 -0.000015
                                -0.000000  0.000211  0.000000  0.004207  0.000000  0.006421  0.000000  0.006169 -0.000000 -0.000395
                                -0.000000  0.001926 -0.000000  0.001334  0.000000 -0.016426  0.000000 -0.022059 -0.000000 -0.007927
                                 0.000000 -0.001437  0.000000  0.000153 -0.000000  0.000000  0.000005  0.000000 -0.000000 -0.000045
                                -0.000000  0.000000  0.000073  0.000000 -0.000000 -0.000321 -0.000000  0.000000 -0.002302  0.000000
                                -0.000000 -0.003418  0.000000  0.000000 -0.000964 -0.000000 -0.000000 -0.000191 -0.000000  0.000000
                                 0.000171 -0.000006  0.000000  0.000000  0.000025 -0.000000 -0.000000 -0.000138  0.000000  0.000000
                                 0.000000 -0.000000  0.000000 -0.000000  0.000000 -0.000000 -0.000000 -0.000000  0.000000 -0.000000
                                 0.000000  0.000000  0.000000 -0.000000 -0.000000  0.000000 -0.000000  0.000000 -0.000000  0.000000
                                 0.000000  0.000000  0.000206  0.000000  0.001141 -0.000000  0.001310 -0.000000  0.000021 -0.000000
                                -0.000077  0.000000 -0.000605

                                   1 2px     1 2px     1 2px     1 2px     1 2px     1 2px     1 2px     1 2px     1 2px     1 2px
                                   1 2px     1 2px     1 2px     1 2px     1 2px     1 2px     1 2px     1 2px     1 2px     1 2px
                                   1 2px     1 2px     1 2px     1 2px     1 2px     1 2px     1 2px     1 2px     1 2px     1 2px
                                   1 3d1+    1 3d1+    1 3d1+    1 3d1+    1 3d1+    1 3d1+    1 3d1+    1 3d1+    1 3d1+    1 3d1+
                                   1 3d1+    1 3d1+    1 3d1+    1 3d1+    1 3d1+    1 3d1+    1 3d1+    1 3d1+    1 3d1+    1 3d1+
                                   1 3d1+    1 3d1+    1 4f1+    1 4f3+    1 4f1+    1 4f3+    1 4f1+    1 4f3+    1 4f1+    1 4f3+
                                   1 4f1+    1 4f3+    1 4f1+    1 4f3+    1 4f1+    1 4f3+    1 4f1+    1 4f3+    1 4f1+    1 4f3+
                                   1 4f1+    1 4f3+    1 4f1+    1 4f3+    1 4f1+    1 4f3+    1 4f1+    1 4f3+    1 4f1+    1 4f3+
                                   1 5g1+    1 5g3+    1 5g1+    1 5g3+    1 5g1+    1 5g3+    1 5g1+    1 5g3+    1 5g1+    1 5g3+
                                   1 5g1+    1 5g3+    1 5g1+    1 5g3+    1 5g1+    1 5g3+    1 5g1+    1 5g3+    1 6h1+    1 6h3+
                                   1 6h5+    1 6h1+    1 6h3+    1 6h5+    1 6h1+    1 6h3+    1 6h5+    2 2px     2 2px     2 2px
                                   2 2px     2 2px     2 2px     2 2px     2 2px     2 3d1+    2 3d1+    2 3d1+    2 3d1+    2 4f1+
                                   2 4f3+    2 4f1+    2 4f3+

   1.2   2    -1.3493  -13.1083  0.000000 -0.000000  0.000001 -0.000002  0.000003 -0.000004  0.000009 -0.000025  0.000105 -0.001009
                                -0.011100 -0.010870  0.159825 -0.096996  0.205642  0.337630  0.064686  0.006517 -0.004935  0.004126
                                 0.015284 -0.074880 -0.203310  0.181940  0.392889  0.002143  0.006925 -0.005334 -0.000592  0.000108
                                 0.000000 -0.000000  0.000001 -0.000007  0.000123  0.001014 -0.002391  0.001644  0.004393 -0.010988
                                -0.000287 -0.001861  0.002954 -0.002493 -0.007263 -0.002736 -0.000506  0.000289 -0.000029  0.000031
                                -0.000016  0.000005 -0.000000  0.000000  0.000002 -0.000000 -0.000040 -0.000000 -0.001252  0.000000
                                -0.002950  0.000000 -0.003060  0.000000 -0.006353  0.000000  0.000041 -0.000000  0.001050 -0.000000
                                -0.000075 -0.000000 -0.000548  0.000000  0.000457 -0.000000 -0.000137  0.000000  0.000057 -0.000000
                                -0.000002  0.000000  0.000008  0.000000 -0.000045 -0.000000  0.000121  0.000000 -0.000555  0.000000
                                 0.000237 -0.000000  0.000036  0.000000 -0.000085 -0.000000  0.000087  0.000000 -0.000004  0.000000
                                -0.000000  0.000015  0.000000 -0.000000 -0.000026 -0.000000  0.000000  0.000042  0.000372  0.001115
                                 0.001791  0.001255 -0.000192  0.000007 -0.000012 -0.000074 -0.000415 -0.000296 -0.000008  0.000055
                                 0.000000  0.000131 -0.000000

   2.2   2    -0.3954   -8.0866  0.000000 -0.000000  0.000000 -0.000000  0.000000 -0.000000  0.000000 -0.000001  0.000004 -0.000039
                                -0.000435 -0.000480  0.003742 -0.003146  0.005401  0.022762 -0.013680 -0.016344 -0.035050  0.000161
                                 0.000608 -0.001360 -0.005913  0.007714  0.011679  0.003323  0.029123 -0.013888 -0.000616  0.000086
                                 0.000000 -0.000002  0.000007 -0.000034  0.000602  0.005177 -0.018463  0.020998 -0.005761 -0.133619
                                -0.001410 -0.009851  0.018893 -0.006881 -0.091956 -0.122827 -0.050828 -0.054043  0.017835 -0.003536
                                 0.001051 -0.000262 -0.000001 -0.000000  0.000012  0.000000 -0.000192 -0.000000 -0.004651 -0.000001
                                -0.009126 -0.000002 -0.010265 -0.000002 -0.004944 -0.000001 -0.000990 -0.000001  0.001435 -0.000000
                                -0.005823 -0.000000 -0.006210 -0.000000 -0.006298 -0.000001  0.003290 -0.000000  0.000498  0.000000
                                 0.000021 -0.000000 -0.000086  0.000000  0.000251 -0.000000 -0.000779  0.000000  0.002394  0.000001
                                -0.003174 -0.000001 -0.000182  0.000001 -0.001030 -0.000001 -0.000378  0.000000 -0.000003 -0.000000
                                -0.000000  0.000014  0.000000 -0.000000 -0.000074  0.000000 -0.000000 -0.008992 -0.078977 -0.262816
                                -0.392190 -0.315955 -0.063893 -0.005709  0.002445  0.002023  0.006308  0.020075  0.000186 -0.000275
                                 0.000000 -0.004395  0.000000

   3.2   +    -0.9473  -15.6883  0.000000 -0.000000  0.000000 -0.000000  0.000000 -0.000000  0.000000 -0.000000  0.000000 -0.000000
                                -0.000000 -0.000001 -0.000004 -0.000004 -0.000010 -0.000006  0.000004 -0.000003  0.000003  0.000000
                                 0.000001  0.000003  0.000004  0.000005  0.000010 -0.000001 -0.000003  0.000002  0.000000 -0.000000
                                -0.000000  0.000000 -0.000000  0.000000 -0.000000 -0.000002  0.000004 -0.000002 -0.000004 -0.000002
                                 0.000000  0.000003 -0.000005  0.000003  0.000003  0.000004 -0.000003  0.000002 -0.000001  0.000000
                                -0.000000  0.000000 -0.000000  0.000097  0.000000 -0.000780 -0.000001  0.011122 -0.000023  0.227801
                                -0.000036  0.363530 -0.000038  0.378638 -0.000020  0.198876 -0.000010  0.099150 -0.000006  0.054686
                                 0.000003 -0.021454 -0.000004  0.041970  0.000002 -0.028448 -0.000001  0.015897  0.000000 -0.005517
                                 0.000000 -0.000004 -0.000000 -0.000000  0.000000 -0.000072  0.000000 -0.000128 -0.000000 -0.001028
                                 0.000000 -0.000864  0.000001 -0.000285 -0.000001 -0.000042  0.000000  0.000022 -0.000000 -0.000007
                                 0.000000  0.000001  0.000013 -0.000000  0.000007 -0.000654 -0.000005 -0.000000 -0.000000 -0.000001
                                -0.000001 -0.000001 -0.000001 -0.000000  0.000000 -0.000000  0.000000  0.000001  0.000000  0.000000
                                 0.000017 -0.000002 -0.000066

   4.2   +    -0.9418  -15.7090 -0.000000  0.000000 -0.000000  0.000000 -0.000000  0.000000 -0.000000  0.000001 -0.000002  0.000020
                                 0.000204  0.000319  0.003897  0.002531  0.009440  0.009160 -0.005054  0.007333 -0.008158 -0.000078
                                -0.000294 -0.002696 -0.004888 -0.001018 -0.007118  0.000535  0.001400 -0.001302 -0.000144  0.000026
                                 0.000000 -0.000001  0.000003 -0.000015  0.000282  0.002542 -0.005863  0.003378  0.004801 -0.008823
                                -0.000670 -0.004853  0.007629 -0.004463 -0.012123 -0.012050  0.005762 -0.007154 -0.001786  0.000085
                                 0.000006 -0.000004  0.000098  0.000000 -0.000784 -0.000000  0.011165  0.000001  0.228078  0.000023
                                 0.362673  0.000036  0.377524  0.000038  0.196220  0.000020  0.100010  0.000010  0.056715  0.000005
                                -0.023077 -0.000002  0.043447  0.000004 -0.029684 -0.000003  0.012621  0.000002 -0.004698 -0.000001
                                 0.000006  0.000000 -0.000037 -0.000000  0.000038  0.000000 -0.000526  0.000000 -0.001182 -0.000000
                                -0.002132 -0.000000 -0.000301  0.000000  0.001638 -0.000000 -0.002889  0.000000 -0.000017 -0.000000
                                 0.000000  0.000054  0.000001 -0.000000 -0.001162  0.000012 -0.000002 -0.000205 -0.001788 -0.006263
                                -0.009281 -0.010253  0.006664 -0.000190  0.000055  0.000122 -0.000631  0.001095 -0.000019 -0.000408
                                 0.000000  0.002199 -0.000000

   5.2   0    -0.2925   -8.2541 -0.000000  0.000000 -0.000000  0.000000 -0.000001  0.000001 -0.000001  0.000004 -0.000018  0.000175
                                 0.001905  0.002112 -0.013331  0.013117 -0.027668 -0.053853  0.044744  0.138272  0.117346 -0.000711
                                -0.002650  0.004012  0.025098 -0.032645 -0.070277 -0.010699 -0.038933  0.033396  0.002709 -0.000475
                                 0.000001 -0.000005  0.000020 -0.000105  0.001811  0.016042 -0.053671  0.053976 -0.015528 -0.340956
                                -0.004245 -0.031055  0.057715 -0.023895 -0.234132 -0.255510 -0.154573 -0.084152 -0.010249 -0.003544
                                 0.001638 -0.000501 -0.000003  0.000000  0.000026 -0.000000 -0.000370  0.000000 -0.007292 -0.000000
                                -0.010916 -0.000000 -0.010445 -0.000000  0.001742  0.000000 -0.003444  0.000000 -0.002640  0.000000
                                 0.024332 -0.000000  0.034174  0.000000  0.020484 -0.000000 -0.001627  0.000000  0.000474 -0.000000
                                 0.000005 -0.000000  0.000024  0.000000  0.000024 -0.000000  0.000228  0.000000  0.003676  0.000000
                                 0.005646 -0.000000  0.003758  0.000000  0.003943  0.000000 -0.000658 -0.000000  0.000011  0.000000
                                -0.000000 -0.000045 -0.000000  0.000000  0.000264 -0.000000  0.000000  0.004109  0.036096  0.121071
                                 0.180130  0.150760  0.046762  0.002725 -0.001116  0.000082  0.001987 -0.003585  0.000005 -0.000213
                                -0.000000  0.000479  0.000000

   6.2   0    -0.1926   -5.6281  0.000000 -0.000000  0.000000 -0.000001  0.000001 -0.000002  0.000004 -0.000011  0.000048 -0.000459
                                -0.005011 -0.005706  0.026987 -0.036130  0.038667  0.142503 -0.048060 -0.399956 -0.540543  0.001868
                                 0.006999 -0.005799 -0.055010  0.090757  0.182459  0.030184 -0.024778 -0.134611 -0.009828  0.001851
                                 0.000000 -0.000002  0.000009 -0.000045  0.000793  0.007045 -0.021632  0.020121 -0.000252 -0.122472
                                -0.001864 -0.013576  0.024203 -0.011786 -0.087742 -0.088587 -0.001365  0.040607  0.023626  0.013714
                                -0.002669  0.000738 -0.000001 -0.000000  0.000010  0.000000 -0.000137 -0.000000 -0.002784 -0.000000
                                -0.004356 -0.000000 -0.004016 -0.000000 -0.000569  0.000000 -0.001201  0.000000 -0.000705  0.000000
                                 0.015106 -0.000000  0.022379  0.000000  0.013978 -0.000001 -0.004006  0.000000  0.002162 -0.000000
                                 0.000003  0.000000  0.000007 -0.000000  0.000020  0.000000  0.000109 -0.000000  0.001117  0.000000
                                 0.003098 -0.000001 -0.001319  0.000001  0.004580 -0.000001 -0.003402  0.000000  0.000004  0.000000
                                -0.000000 -0.000016 -0.000000  0.000000  0.000119 -0.000000  0.000000  0.002310  0.020286  0.068964
                                 0.102023  0.092078  0.055195  0.001655 -0.000625  0.000457  0.003261 -0.001444  0.000042 -0.000223
                                -0.000000  0.000477  0.000000

                                   1 2py     1 2py     1 2py     1 2py     1 2py     1 2py     1 2py     1 2py     1 2py     1 2py
                                   1 2py     1 2py     1 2py     1 2py     1 2py     1 2py     1 2py     1 2py     1 2py     1 2py
                                   1 2py     1 2py     1 2py     1 2py     1 2py     1 2py     1 2py     1 2py     1 2py     1 2py
                                   1 3d1-    1 3d1-    1 3d1-    1 3d1-    1 3d1-    1 3d1-    1 3d1-    1 3d1-    1 3d1-    1 3d1-
                                   1 3d1-    1 3d1-    1 3d1-    1 3d1-    1 3d1-    1 3d1-    1 3d1-    1 3d1-    1 3d1-    1 3d1-
                                   1 3d1-    1 3d1-    1 4f1-    1 4f3-    1 4f1-    1 4f3-    1 4f1-    1 4f3-    1 4f1-    1 4f3-
                                   1 4f1-    1 4f3-    1 4f1-    1 4f3-    1 4f1-    1 4f3-    1 4f1-    1 4f3-    1 4f1-    1 4f3-
                                   1 4f1-    1 4f3-    1 4f1-    1 4f3-    1 4f1-    1 4f3-    1 4f1-    1 4f3-    1 4f1-    1 4f3-
                                   1 5g1-    1 5g3-    1 5g1-    1 5g3-    1 5g1-    1 5g3-    1 5g1-    1 5g3-    1 5g1-    1 5g3-
                                   1 5g1-    1 5g3-    1 5g1-    1 5g3-    1 5g1-    1 5g3-    1 5g1-    1 5g3-    1 6h1-    1 6h3-
                                   1 6h5-    1 6h1-    1 6h3-    1 6h5-    1 6h1-    1 6h3-    1 6h5-    2 2py     2 2py     2 2py
                                   2 2py     2 2py     2 2py     2 2py     2 2py     2 3d1-    2 3d1-    2 3d1-    2 3d1-    2 4f1-
                                   2 4f3-    2 4f1-    2 4f3-

   1.3   2    -1.3493  -13.1083  0.000000 -0.000000  0.000001 -0.000002  0.000003 -0.000004  0.000009 -0.000025  0.000105 -0.001009
                                -0.011100 -0.010870  0.159825 -0.096996  0.205642  0.337630  0.064686  0.006517 -0.004935  0.004126
                                 0.015284 -0.074881 -0.203310  0.181940  0.392889  0.002143  0.006925 -0.005334 -0.000592  0.000108
                                 0.000000 -0.000000  0.000001 -0.000007  0.000123  0.001014 -0.002391  0.001644  0.004393 -0.010988
                                -0.000287 -0.001861  0.002954 -0.002493 -0.007263 -0.002736 -0.000506  0.000289 -0.000029  0.000031
                                -0.000016  0.000005 -0.000000 -0.000000  0.000002  0.000000 -0.000040  0.000000 -0.001252 -0.000000
                                -0.002950 -0.000000 -0.003060 -0.000000 -0.006353 -0.000000  0.000041  0.000000  0.001050  0.000000
                                -0.000075  0.000000 -0.000548 -0.000000  0.000457  0.000000 -0.000137 -0.000000  0.000057  0.000000
                                -0.000002 -0.000000  0.000008 -0.000000 -0.000045  0.000000  0.000121 -0.000000 -0.000555 -0.000000
                                 0.000237  0.000000  0.000036 -0.000000 -0.000085  0.000000  0.000087 -0.000000 -0.000004 -0.000000
                                -0.000000  0.000015 -0.000000 -0.000000 -0.000026  0.000000  0.000000  0.000042  0.000372  0.001115
                                 0.001791  0.001255 -0.000192  0.000007 -0.000012 -0.000074 -0.000415 -0.000296 -0.000008  0.000055
                                -0.000000  0.000131  0.000000

   2.3   2    -0.3954   -8.0866  0.000000 -0.000000  0.000000 -0.000000  0.000000 -0.000000  0.000000 -0.000001  0.000004 -0.000039
                                -0.000435 -0.000480  0.003742 -0.003146  0.005401  0.022762 -0.013680 -0.016344 -0.035050  0.000161
                                 0.000608 -0.001360 -0.005913  0.007714  0.011679  0.003323  0.029123 -0.013888 -0.000616  0.000086
                                 0.000000 -0.000002  0.000007 -0.000034  0.000602  0.005177 -0.018463  0.020998 -0.005761 -0.133619
                                -0.001410 -0.009851  0.018893 -0.006881 -0.091956 -0.122827 -0.050828 -0.054043  0.017835 -0.003536
                                 0.001051 -0.000262 -0.000001  0.000000  0.000012 -0.000000 -0.000192  0.000000 -0.004651  0.000001
                                -0.009126  0.000002 -0.010265  0.000002 -0.004944  0.000001 -0.000990  0.000001  0.001435  0.000000
                                -0.005823  0.000000 -0.006210  0.000000 -0.006298  0.000001  0.003290  0.000000  0.000498 -0.000000
                                 0.000021  0.000000 -0.000086 -0.000000  0.000251  0.000000 -0.000779 -0.000000  0.002394 -0.000001
                                -0.003174  0.000001 -0.000182 -0.000001 -0.001030  0.000001 -0.000378 -0.000000 -0.000003  0.000000
                                -0.000000  0.000014 -0.000000 -0.000000 -0.000074 -0.000000 -0.000000 -0.008992 -0.078977 -0.262816
                                -0.392190 -0.315955 -0.063893 -0.005709  0.002445  0.002023  0.006308  0.020075  0.000186 -0.000275
                                -0.000000 -0.004395 -0.000000

   3.3   +    -0.9473  -15.6883 -0.000000  0.000000 -0.000000  0.000000 -0.000000  0.000000 -0.000000  0.000000 -0.000000  0.000000
                                 0.000000  0.000001  0.000004  0.000004  0.000010  0.000006 -0.000004  0.000003 -0.000003 -0.000000
                                -0.000001 -0.000003 -0.000004 -0.000004 -0.000010  0.000001  0.000003 -0.000002 -0.000000  0.000000
                                 0.000000 -0.000000  0.000000 -0.000000  0.000000  0.000002 -0.000004  0.000002  0.000004  0.000002
                                -0.000000 -0.000003  0.000005 -0.000003 -0.000003 -0.000004  0.000003 -0.000002  0.000001 -0.000000
                                 0.000000 -0.000000  0.000000  0.000097 -0.000000 -0.000780  0.000001  0.011122  0.000023  0.227801
                                 0.000036  0.363530  0.000038  0.378638  0.000020  0.198876  0.000010  0.099150  0.000006  0.054686
                                -0.000003 -0.021454  0.000004  0.041970 -0.000002 -0.028448  0.000001  0.015897 -0.000000 -0.005517
                                -0.000000 -0.000004  0.000000 -0.000000 -0.000000 -0.000072 -0.000000 -0.000128  0.000000 -0.001028
                                -0.000000 -0.000864 -0.000001 -0.000285  0.000001 -0.000042 -0.000000  0.000022  0.000000 -0.000007
                                -0.000000 -0.000001  0.000013  0.000000 -0.000007 -0.000654  0.000005  0.000000  0.000000  0.000001
                                 0.000001  0.000001  0.000001  0.000000 -0.000000  0.000000 -0.000000 -0.000001 -0.000000 -0.000000
                                 0.000017  0.000002 -0.000066

   4.3   +    -0.9418  -15.7090 -0.000000  0.000000 -0.000000  0.000000 -0.000000  0.000000 -0.000000  0.000001 -0.000002  0.000020
                                 0.000204  0.000319  0.003897  0.002531  0.009440  0.009160 -0.005054  0.007333 -0.008158 -0.000078
                                -0.000294 -0.002696 -0.004888 -0.001018 -0.007118  0.000535  0.001400 -0.001302 -0.000144  0.000026
                                 0.000000 -0.000001  0.000003 -0.000015  0.000282  0.002542 -0.005863  0.003378  0.004801 -0.008823
                                -0.000670 -0.004853  0.007629 -0.004463 -0.012123 -0.012050  0.005762 -0.007154 -0.001786  0.000085
                                 0.000006 -0.000004  0.000098 -0.000000 -0.000784  0.000000  0.011165 -0.000001  0.228078 -0.000023
                                 0.362673 -0.000036  0.377524 -0.000038  0.196220 -0.000020  0.100010 -0.000010  0.056715 -0.000005
                                -0.023077  0.000002  0.043447 -0.000004 -0.029684  0.000003  0.012621 -0.000002 -0.004698  0.000001
                                 0.000006 -0.000000 -0.000037  0.000000  0.000038 -0.000000 -0.000526 -0.000000 -0.001182  0.000000
                                -0.002132  0.000000 -0.000301 -0.000000  0.001638  0.000000 -0.002889 -0.000000 -0.000017  0.000000
                                 0.000000  0.000054 -0.000001 -0.000000 -0.001162 -0.000012 -0.000002 -0.000205 -0.001788 -0.006263
                                -0.009281 -0.010253  0.006664 -0.000190  0.000055  0.000122 -0.000631  0.001095 -0.000019 -0.000408
                                -0.000000  0.002199  0.000000

   5.3   0    -0.2925   -8.2541 -0.000000  0.000000 -0.000000  0.000000 -0.000001  0.000001 -0.000001  0.000004 -0.000018  0.000175
                                 0.001905  0.002112 -0.013331  0.013117 -0.027668 -0.053853  0.044744  0.138272  0.117346 -0.000711
                                -0.002650  0.004012  0.025098 -0.032645 -0.070277 -0.010699 -0.038933  0.033396  0.002709 -0.000475
                                 0.000001 -0.000005  0.000020 -0.000105  0.001811  0.016042 -0.053671  0.053976 -0.015528 -0.340956
                                -0.004245 -0.031055  0.057715 -0.023895 -0.234132 -0.255510 -0.154573 -0.084152 -0.010249 -0.003544
                                 0.001638 -0.000501 -0.000003 -0.000000  0.000026  0.000000 -0.000370 -0.000000 -0.007292  0.000000
                                -0.010916  0.000000 -0.010445  0.000000  0.001742 -0.000000 -0.003444 -0.000000 -0.002640 -0.000000
                                 0.024332  0.000000  0.034174 -0.000000  0.020484  0.000000 -0.001627 -0.000000  0.000474  0.000000
                                 0.000005  0.000000  0.000024 -0.000000  0.000024  0.000000  0.000228 -0.000000  0.003676 -0.000000
                                 0.005646  0.000000  0.003758 -0.000000  0.003943 -0.000000 -0.000658  0.000000  0.000011 -0.000000
                                -0.000000 -0.000045  0.000000  0.000000  0.000264  0.000000  0.000000  0.004109  0.036096  0.121071
                                 0.180130  0.150760  0.046762  0.002725 -0.001116  0.000082  0.001987 -0.003585  0.000005 -0.000213
                                 0.000000  0.000479 -0.000000

   6.3   0    -0.1926   -5.6281  0.000000 -0.000000  0.000000 -0.000001  0.000001 -0.000002  0.000004 -0.000011  0.000048 -0.000459
                                -0.005011 -0.005706  0.026987 -0.036130  0.038667  0.142503 -0.048060 -0.399956 -0.540543  0.001868
                                 0.006999 -0.005799 -0.055010  0.090757  0.182459  0.030184 -0.024778 -0.134611 -0.009828  0.001851
                                 0.000000 -0.000002  0.000009 -0.000045  0.000793  0.007045 -0.021632  0.020121 -0.000252 -0.122472
                                -0.001864 -0.013576  0.024203 -0.011786 -0.087742 -0.088587 -0.001365  0.040607  0.023626  0.013714
                                -0.002669  0.000738 -0.000001  0.000000  0.000010 -0.000000 -0.000137  0.000000 -0.002784  0.000000
                                -0.004356  0.000000 -0.004016  0.000000 -0.000569 -0.000000 -0.001201 -0.000000 -0.000705 -0.000000
                                 0.015106  0.000000  0.022379 -0.000000  0.013978  0.000001 -0.004006 -0.000000  0.002162  0.000000
                                 0.000003 -0.000000  0.000007  0.000000  0.000020 -0.000000  0.000109  0.000000  0.001117 -0.000000
                                 0.003098  0.000001 -0.001319 -0.000001  0.004580  0.000001 -0.003402 -0.000000  0.000004 -0.000000
                                -0.000000 -0.000016  0.000000  0.000000  0.000119  0.000000  0.000000  0.002310  0.020286  0.068964
                                 0.102023  0.092078  0.055195  0.001655 -0.000625  0.000457  0.003261 -0.001444  0.000042 -0.000223
                                 0.000000  0.000477 -0.000000

                                   1 3d2-    1 3d2-    1 3d2-    1 3d2-    1 3d2-    1 3d2-    1 3d2-    1 3d2-    1 3d2-    1 3d2-
                                   1 3d2-    1 3d2-    1 3d2-    1 3d2-    1 3d2-    1 3d2-    1 3d2-    1 3d2-    1 3d2-    1 3d2-
                                   1 3d2-    1 3d2-    1 4f2-    1 4f2-    1 4f2-    1 4f2-    1 4f2-    1 4f2-    1 4f2-    1 4f2-
                                   1 4f2-    1 4f2-    1 4f2-    1 4f2-    1 4f2-    1 4f2-    1 5g2-    1 5g4-    1 5g2-    1 5g4-
                                   1 5g2-    1 5g4-    1 5g2-    1 5g4-    1 5g2-    1 5g4-    1 5g2-    1 5g4-    1 5g2-    1 5g4-
                                   1 5g2-    1 5g4-    1 5g2-    1 5g4-    1 6h4-    1 6h2-    1 6h4-    1 6h2-    1 6h4-    1 6h2-
                                   2 3d2-    2 3d2-    2 3d2-    2 3d2-    2 4f2-    2 4f2-

   1.4   +    -0.9440  -15.7040  0.000000 -0.000000  0.000001 -0.000003  0.000062  0.000559 -0.001364  0.000998  0.000664 -0.005892
                                -0.000148 -0.001056  0.001694 -0.000933 -0.004055 -0.000686 -0.001499  0.001074 -0.000585  0.000163
                                -0.000051  0.000015  0.000097 -0.000782  0.011148  0.228038  0.363274  0.378145  0.196941  0.099600
                                 0.055699 -0.021415  0.042036 -0.028187  0.015783 -0.005480 -0.000006 -0.000000  0.000008  0.000000
                                -0.000093 -0.000000 -0.000172  0.000000 -0.001545  0.000000 -0.001146 -0.000000 -0.000265  0.000000
                                 0.000123  0.000000  0.000011 -0.000000 -0.000000 -0.000013 -0.000000  0.000036  0.000000 -0.000989
                                 0.000028  0.000050 -0.000306  0.000001 -0.000002 -0.000007

   2.4   0    -0.3146   -8.5600 -0.000001  0.000005 -0.000021  0.000108 -0.001857 -0.016430  0.057065 -0.059328  0.015339  0.387342
                                 0.004347  0.031876 -0.060351  0.025539  0.265072  0.286871  0.154848  0.089302 -0.002911  0.005132
                                -0.002069  0.000599  0.000002 -0.000015  0.000211  0.004207  0.006420  0.006169 -0.000395  0.001926
                                 0.001335 -0.016426 -0.022059 -0.007927 -0.001437  0.000153  0.000005 -0.000000 -0.000045  0.000000
                                 0.000073 -0.000000 -0.000321 -0.000000 -0.002302 -0.000000 -0.003418  0.000000 -0.000964 -0.000000
                                -0.000191 -0.000000  0.000171 -0.000000 -0.000000 -0.000006  0.000000  0.000025 -0.000000 -0.000138
                                 0.000206  0.001141  0.001310  0.000021 -0.000077 -0.000606

   3.4   0    -0.0768   -3.1745  0.000000 -0.000002  0.000009 -0.000049  0.000863  0.007674 -0.023113  0.021240  0.000082 -0.129788
                                -0.002031 -0.014767  0.026078 -0.013073 -0.092163 -0.108115  0.008318  0.127641  0.384799  0.433864
                                 0.132313  0.003554  0.000001 -0.000004  0.000052  0.000855  0.000871  0.000760  0.000147  0.000630
                                 0.000931 -0.000893 -0.011382 -0.074424 -0.101396 -0.116765  0.000004  0.000000 -0.000004 -0.000000
                                 0.000031  0.000000 -0.000003 -0.000000  0.001123  0.000000  0.000557 -0.000000  0.002191  0.000000
                                 0.001431 -0.000000  0.016653 -0.000000  0.000000  0.000003 -0.000000 -0.000012  0.000000  0.000061
                                 0.000117  0.000679  0.000945  0.000013  0.000000  0.000062

 HOMO      6.1    -0.940869 =     -25.6024eV
 LUMO      7.1    -0.332030 =      -9.0350eV
 LUMO-HOMO         0.608840 =      16.5674eV


 **********************************************************************************************************************************
 DATASETS  * FILE   NREC   LENGTH (MB)   RECORD NAMES
              1      20       23.19       500      610      700      900      950      970     1000      129      960     1100
                                          VAR    BASINP    GEOM    SYMINP    ZMAT    AOBASIS   BASIS     P2S    ABASIS      S
                                         1400     1410     1420     1200     1210     1080     1600     1650     1700     1800
                                           T        V       ECP      H0       H01     AOSYM     SMH    MOLCAS    OPER     GRID

              2       5        4.99       700     1000      520     1800     2202
                                         GEOM     BASIS   MCVARS    GRID      RKS

 PROGRAMS   *        TOTAL       RKS       INT
 CPU TIMES  *       224.93     65.69    158.82
 REAL TIME  *       279.43 SEC
 DISK USED  *        18.11 GB
 SF USED    *         0.31 MB
 GA USED    *         0.23 MB       (max)       0.23 MB       (current)
 **********************************************************************************************************************************
   -->
   <time start="03:04:00" end="03:08:39" cpu="224.93" system="35.15" real="279.43"/>
   <storage units="megabyte" memory="8001.84" sf="0.31" df="700.93" eaf="17404.43"
     ga="0.23"/>
  </jobstep><!--
  --><jobstep command="RHF-SCF" commandset="SCFPRO">
   <!--


 PROGRAM * RHF-SCF (OPEN SHELL)       Authors: W. Meyer, H.-J. Werner


 NUMBER OF ELECTRONS:      15+    8-    SPACE SYMMETRY=4    SPIN SYMMETRY: Octet
 CONVERGENCE THRESHOLDS:    1.00E-05 (Density)    1.00E-07 (Energy)
 MAX. NUMBER OF ITERATIONS:      200
 INTERPOLATION TYPE:            DIIS
 INTERPOLATION STEPS:              2 (START)      1 (STEP)
 LEVEL SHIFTS:                 -0.60 (CLOSED) -0.30 (OPEN)

 Number of closed-shell orbitals:    8 (   4   2   2   0 )
 Number of open-shell orbitals:      7 (   2   2   2   1 )


 Molecular orbitals read from record     2202.2  Type=RKS/CANONICAL (state 1.4)

 Molecular orbital dump at record        3202.2

 ITERATION    DDIFF          GRAD             ENERGY        2-EL.EN.            DIPOLE MOMENTS         DIIS   ORB.
    1      0.000D+00      0.000D+00      -123.56873807    237.657872    0.00000    0.00000   -3.34778    0    start
    2      0.000D+00      0.455D-02      -123.59691238    235.679293    0.00000    0.00000   -4.18804    1    diag,B
    3      0.616D-02      0.148D-02      -123.60131636    235.964221    0.00000    0.00000   -4.26808    2    diag,B
    4      0.586D-03      0.547D-03      -123.60313696    235.858631    0.00000    0.00000   -4.46941    3    diag,B
    5      0.321D-03      0.383D-03      -123.60448139    235.785627    0.00000    0.00000   -4.55120    4    diag,B
    6      0.362D-03      0.261D-03      -123.60534047    235.777956    0.00000    0.00000   -4.60604    5    diag,B
    7      0.243D-03      0.224D-03      -123.60638223    235.763735    0.00000    0.00000   -4.60024    6    diag,B
    8      0.266D-03      0.210D-03      -123.60740333    235.761536    0.00000    0.00000   -4.55698    7    orth
    9      0.251D-03      0.205D-03      -123.60835870    235.757487    0.00000    0.00000   -4.49512    8    diag,B
   10      0.247D-03      0.203D-03      -123.60958961    235.747147    0.00000    0.00000   -4.39858    9    diag,B
   11      0.338D-03      0.200D-03      -123.61384465    235.673913    0.00000    0.00000   -3.89150    9    diag,B
   12      0.133D-02      0.185D-03      -123.61344391    235.653697    0.00000    0.00000   -3.99419    9    diag,B
   13      0.389D-03      0.297D-03      -123.61595317    235.545923    0.00000    0.00000   -3.44025    9    diag,B
   14      0.113D-02      0.966D-04      -123.61437042    235.588989    0.00000    0.00000   -3.89547    9    diag,B
   15      0.813D-03      0.311D-03      -123.61414498    235.639802    0.00000    0.00000   -3.91572    9    diag,B
   16      0.435D-03      0.293D-03      -123.61640398    235.387570    0.00000    0.00000   -3.41763    9    diag,B
   17      0.172D-02      0.120D-03      -123.61688108    235.253019    0.00000    0.00000   -3.14903    9    diag,B
   18      0.815D-03      0.425D-04      -123.61648003    235.292239    0.00000    0.00000   -3.40172    9    orth
   19      0.454D-03      0.150D-03      -123.61693058    235.165860    0.00000    0.00000   -3.15740    9    diag,B
   20      0.648D-03      0.572D-04      -123.61700457    235.097823    0.00000    0.00000   -3.01924    9    diag,B
   21      0.358D-03      0.984D-05      -123.61700310    235.116012    0.00000    0.00000   -3.04880    9    diag,B
   22      0.810D-04      0.141D-04      -123.61699808    235.116759    0.00000    0.00000   -3.06776    9    diag,B
   23      0.349D-04      0.208D-04      -123.61700571    235.095169    0.00000    0.00000   -3.01994    9    diag,B
   24      0.122D-03      0.191D-05      -123.61700577    235.098198    0.00000    0.00000   -3.02688    9    diag,B
   25      0.149D-04      0.117D-05      -123.61700579    235.097201    0.00000    0.00000   -3.02503    9    diag,B
   26      0.906D-05      0.239D-06      -123.61700579    235.097180    0.00000    0.00000   -3.02497    0    orth

 Final alpha occupancy:   6   4   4   1
 Final beta  occupancy:   4   2   2   0

 !RHF STATE 1.4 Energy               -123.617005791866
   --><property name="Energy" method="RHF" principal="true" stateSymmetry="4" stateNumber="1"
     value="-123.617005791866"/><!--
 Nuclear energy                        21.98120722
 One-electron energy                 -263.14680288
 Two-electron energy                  117.54858987
 Virial quotient                       -0.86434925
 !RHF STATE 1.4 Dipole moment           0.00000000     0.00000000    -3.02497251
 Dipole moment /Debye                   0.00000000     0.00000000    -7.68820963
   --><property name="Dipole moment" method="RHF" principal="true" stateSymmetry="4"
     stateNumber="1" value="0.0 0.0 -3.02497251006592"/><!--

 ELECTRON ORBITALS
 =================


   Orb  Occ    Energy  Couls-En    Coefficients

                                   1 1s      1 1s      1 1s      1 1s      1 1s      1 1s      1 1s      1 1s      1 1s      1 1s
                                   1 1s      1 1s      1 1s      1 1s      1 1s      1 1s      1 1s      1 1s      1 1s      1 1s
                                   1 1s      1 1s      1 1s      1 1s      1 1s      1 1s      1 1s      1 1s      1 1s      1 1s
                                   1 1s      1 1s      1 2pz     1 2pz     1 2pz     1 2pz     1 2pz     1 2pz     1 2pz     1 2pz
                                   1 2pz     1 2pz     1 2pz     1 2pz     1 2pz     1 2pz     1 2pz     1 2pz     1 2pz     1 2pz
                                   1 2pz     1 2pz     1 2pz     1 2pz     1 2pz     1 2pz     1 2pz     1 2pz     1 2pz     1 2pz
                                   1 2pz     1 2pz     1 3d0     1 3d2+    1 3d0     1 3d2+    1 3d0     1 3d2+    1 3d0     1 3d2+
                                   1 3d0     1 3d2+    1 3d0     1 3d2+    1 3d0     1 3d2+    1 3d0     1 3d2+    1 3d0     1 3d2+
                                   1 3d0     1 3d2+    1 3d0     1 3d2+    1 3d0     1 3d2+    1 3d0     1 3d2+    1 3d0     1 3d2+
                                   1 3d0     1 3d2+    1 3d0     1 3d2+    1 3d0     1 3d2+    1 3d0     1 3d2+    1 3d0     1 3d2+
                                   1 3d0     1 3d2+    1 3d0     1 3d2+    1 3d0     1 3d2+    1 4f0     1 4f2+    1 4f0     1 4f2+
                                   1 4f0     1 4f2+    1 4f0     1 4f2+    1 4f0     1 4f2+    1 4f0     1 4f2+    1 4f0     1 4f2+
                                   1 4f0     1 4f2+    1 4f0     1 4f2+    1 4f0     1 4f2+    1 4f0     1 4f2+    1 4f0     1 4f2+
                                   1 4f0     1 4f2+    1 4f0     1 4f2+    1 5g0     1 5g4+    1 5g2+    1 5g0     1 5g4+    1 5g2+
                                   1 5g0     1 5g4+    1 5g2+    1 5g0     1 5g4+    1 5g2+    1 5g0     1 5g4+    1 5g2+    1 5g0
                                   1 5g4+    1 5g2+    1 5g0     1 5g4+    1 5g2+    1 5g0     1 5g4+    1 5g2+    1 5g0     1 5g4+
                                   1 5g2+    1 6h2+    1 6h4+    1 6h0     1 6h2+    1 6h4+    1 6h0     1 6h2+    1 6h4+    1 6h0
                                   2 1s      2 1s      2 1s      2 1s      2 1s      2 1s      2 1s      2 1s      2 1s      2 1s
                                   2 1s      2 1s      2 1s      2 2pz     2 2pz     2 2pz     2 2pz     2 2pz     2 2pz     2 2pz
                                   2 2pz     2 3d0     2 3d2+    2 3d0     2 3d2+    2 3d0     2 3d2+    2 3d0     2 3d2+    2 4f0
                                   2 4f2+    2 4f0     2 4f2+

   1.1   2    -2.5540  -16.0098 -0.000000  0.000001 -0.000007  0.000123  0.000542  0.001687  0.003591  0.008106 -0.003295  0.007159
                                -0.005360  0.732890 -0.084154  0.079009  0.878862  0.458320  0.487243  0.326545  0.128981 -0.000216
                                -0.000975 -0.002892 -0.008329 -0.016823 -1.171091  0.000226 -0.235030 -0.579446 -0.192360 -0.005973
                                 0.002119 -0.000460 -0.000000  0.000000 -0.000000  0.000000 -0.000000  0.000000 -0.000000  0.000000
                                -0.000001  0.000010  0.000104  0.000106 -0.000908  0.001935  0.005330 -0.006886 -0.002032 -0.000666
                                 0.001474 -0.000039 -0.000143  0.000397  0.000360 -0.001488 -0.010320 -0.000164 -0.001109  0.000560
                                 0.000037 -0.000006  0.000000 -0.000000 -0.000000  0.000000  0.000002 -0.000000 -0.000009  0.000000
                                 0.000163 -0.000000  0.001504 -0.000000 -0.003623  0.000000  0.002046 -0.000000  0.003275 -0.000000
                                -0.004658  0.000000 -0.000389  0.000000 -0.002901  0.000000  0.004650 -0.000000 -0.002376  0.000000
                                -0.010266  0.000000  0.001410 -0.000000 -0.001319  0.000000  0.001445 -0.000000 -0.000671  0.000000
                                 0.000187 -0.000000 -0.000075  0.000000  0.000021 -0.000000 -0.000000  0.000000  0.000001 -0.000000
                                -0.000011  0.000000 -0.000257  0.000000 -0.000525  0.000000 -0.000549  0.000000 -0.000822  0.000000
                                -0.000044  0.000000  0.000096 -0.000000  0.000183 -0.000000 -0.000561  0.000000  0.000464 -0.000000
                                -0.000167  0.000000  0.000040 -0.000000  0.000000  0.000000 -0.000000 -0.000003  0.000000 -0.000000
                                 0.000016  0.000000 -0.000000 -0.000053  0.000000  0.000000  0.000132  0.000000 -0.000000  0.000502
                                 0.000000 -0.000000 -0.000209  0.000000 -0.000000  0.000141  0.000000 -0.000000 -0.000013 -0.000000
                                 0.000000  0.000000  0.000000  0.000002  0.000000  0.000000 -0.000004  0.000000  0.000000  0.000028
                                -0.000000  0.000000 -0.000000  0.000001 -0.000006  0.000191 -0.000232  0.000612  0.001185  0.001847
                                -0.000446 -0.000249 -0.000316 -0.000025 -0.000217 -0.000558 -0.001095 -0.001328  0.000191  0.000010
                                 0.000007  0.000040 -0.000000  0.000377 -0.000000  0.000344  0.000000  0.000005 -0.000000 -0.000033
                                 0.000000 -0.000152  0.000000

   2.1   2    -1.5540  -13.3666 -0.000000  0.000000 -0.000000  0.000002  0.000010  0.000030  0.000064  0.000146 -0.000060  0.000124
                                 0.000103  0.017737  0.003746 -0.009551  0.005246 -0.001703 -0.013598  0.012309  0.011933 -0.000004
                                -0.000017 -0.000051 -0.000149 -0.000634 -0.030364  0.033107 -0.006391 -0.003233 -0.016760 -0.000614
                                 0.000221 -0.000048  0.000000 -0.000000  0.000000 -0.000001  0.000002 -0.000003  0.000006 -0.000016
                                 0.000066 -0.000609 -0.006605 -0.005549  0.166652 -0.085001  0.194102  0.335270  0.062140  0.003891
                                 0.004521  0.002462  0.009013 -0.084532 -0.210712  0.189895  0.388599 -0.000678 -0.004365  0.002477
                                 0.000129 -0.000018  0.000000  0.000000 -0.000001  0.000000  0.000003 -0.000000 -0.000014  0.000000
[...]
                                 0.000000 -0.000026  0.000000 -0.000000  0.000173 -0.000000  0.000000  0.000343  0.002919  0.010149
                                 0.015152  0.016057  0.013348  0.000286 -0.000089  0.000128  0.001021 -0.000996  0.000015 -0.000127
                                 0.000000 -0.000004 -0.000000

   6.2   0     0.0032   -1.1626  0.000000 -0.000000  0.000000 -0.000001  0.000001 -0.000001  0.000003 -0.000008  0.000034 -0.000309
                                -0.003371 -0.004766 -0.039443 -0.038813 -0.117242 -0.095812  0.114876 -0.164733  0.682361  0.001247
                                 0.004848  0.029222  0.049539  0.037890  0.092939 -2.191075 -1.659509  2.445666  1.892050 -1.733439
                                -0.000000  0.000001 -0.000005  0.000025 -0.000457 -0.004108  0.006382  0.001083 -0.015177 -0.044109
                                 0.001089  0.007787 -0.010632  0.006526 -0.012080  0.008259 -0.090480  0.091272 -0.184138  0.200932
                                -0.314069  0.624037 -0.000000 -0.000000  0.000002  0.000000 -0.000028 -0.000000 -0.000621 -0.000000
                                -0.001167 -0.000000 -0.001134 -0.000000  0.000208  0.000000 -0.000148 -0.000000  0.000108 -0.000000
                                 0.000044  0.000001  0.006368 -0.000000 -0.008017  0.000001  0.026698 -0.000002 -0.038047  0.000004
                                -0.000000 -0.000000  0.000003  0.000000 -0.000004 -0.000000  0.000046  0.000000  0.000163  0.000000
                                 0.000936  0.000000  0.001023 -0.000000  0.001046  0.000001  0.000859 -0.000001  0.000002 -0.000000
                                 0.000000 -0.000006  0.000000 -0.000000  0.000040 -0.000000  0.000000  0.000166  0.001420  0.004820
                                 0.007366  0.007366  0.003814  0.000117 -0.000043  0.000025  0.000343 -0.000453  0.000005 -0.000009
                                 0.000000 -0.000134 -0.000000

                                   1 2py     1 2py     1 2py     1 2py     1 2py     1 2py     1 2py     1 2py     1 2py     1 2py
                                   1 2py     1 2py     1 2py     1 2py     1 2py     1 2py     1 2py     1 2py     1 2py     1 2py
                                   1 2py     1 2py     1 2py     1 2py     1 2py     1 2py     1 2py     1 2py     1 2py     1 2py
                                   1 3d1-    1 3d1-    1 3d1-    1 3d1-    1 3d1-    1 3d1-    1 3d1-    1 3d1-    1 3d1-    1 3d1-
                                   1 3d1-    1 3d1-    1 3d1-    1 3d1-    1 3d1-    1 3d1-    1 3d1-    1 3d1-    1 3d1-    1 3d1-
                                   1 3d1-    1 3d1-    1 4f1-    1 4f3-    1 4f1-    1 4f3-    1 4f1-    1 4f3-    1 4f1-    1 4f3-
                                   1 4f1-    1 4f3-    1 4f1-    1 4f3-    1 4f1-    1 4f3-    1 4f1-    1 4f3-    1 4f1-    1 4f3-
                                   1 4f1-    1 4f3-    1 4f1-    1 4f3-    1 4f1-    1 4f3-    1 4f1-    1 4f3-    1 4f1-    1 4f3-
                                   1 5g1-    1 5g3-    1 5g1-    1 5g3-    1 5g1-    1 5g3-    1 5g1-    1 5g3-    1 5g1-    1 5g3-
                                   1 5g1-    1 5g3-    1 5g1-    1 5g3-    1 5g1-    1 5g3-    1 5g1-    1 5g3-    1 6h1-    1 6h3-
                                   1 6h5-    1 6h1-    1 6h3-    1 6h5-    1 6h1-    1 6h3-    1 6h5-    2 2py     2 2py     2 2py
                                   2 2py     2 2py     2 2py     2 2py     2 2py     2 3d1-    2 3d1-    2 3d1-    2 3d1-    2 4f1-
                                   2 4f3-    2 4f1-    2 4f3-

   1.3   2    -1.3240  -13.0881  0.000000 -0.000000  0.000001 -0.000002  0.000002 -0.000003  0.000006 -0.000017  0.000070 -0.000644
                                -0.006996 -0.006073  0.164116 -0.089560  0.175170  0.334345  0.063426  0.009820 -0.004987  0.002607
                                 0.009573 -0.082314 -0.207627  0.196504  0.410737  0.002365  0.007503 -0.005839 -0.000656  0.000120
                                 0.000000 -0.000000  0.000001 -0.000003  0.000061  0.000581 -0.001549  0.000760  0.001964 -0.010917
                                -0.000147 -0.001141  0.001916 -0.000731 -0.003443 -0.005097 -0.000707 -0.000282  0.000047 -0.000039
                                 0.000018 -0.000005 -0.000000 -0.000000  0.000004  0.000000 -0.000057 -0.000000 -0.001293 -0.000001
                                -0.002648 -0.000001 -0.003293 -0.000001 -0.005686 -0.000002 -0.000270 -0.000000  0.000529  0.000000
                                -0.003313 -0.000000 -0.001346  0.000000  0.000425  0.000000 -0.000198 -0.000000  0.000060  0.000000
                                -0.000003  0.000000  0.000002  0.000000 -0.000034  0.000000  0.000104 -0.000000 -0.000625  0.000000
                                -0.000385  0.000000  0.000012 -0.000000 -0.000027 -0.000000  0.000050 -0.000000 -0.000004  0.000000
                                -0.000000  0.000014 -0.000000  0.000000 -0.000170  0.000000 -0.000000  0.000068  0.000588  0.001879
                                 0.002994  0.002687  0.000260  0.000030 -0.000018 -0.000090 -0.000495 -0.000678 -0.000010  0.000037
                                 0.000000  0.000264 -0.000000

   2.3   2    -0.2934   -7.7671  0.000000 -0.000000  0.000000 -0.000000  0.000000 -0.000000  0.000000 -0.000001  0.000005 -0.000044
                                -0.000491 -0.000528  0.006424 -0.004455  0.005795  0.027222 -0.010618 -0.028146 -0.054068  0.000181
                                 0.000690 -0.002683 -0.009929  0.012119  0.025366  0.006718  0.039409 -0.026020 -0.001518  0.000245
                                 0.000000 -0.000000  0.000001 -0.000007  0.000140  0.001368 -0.006724  0.008597 -0.004910 -0.058019
                                -0.000337 -0.002781  0.006275 -0.002280 -0.036775 -0.060072 -0.027901 -0.048163  0.018103 -0.006098
                                 0.001741 -0.000441 -0.000002 -0.000000  0.000013  0.000000 -0.000202 -0.000000 -0.004405 -0.000000
                                -0.008515 -0.000000 -0.009604 -0.000000 -0.006441 -0.000000 -0.001063 -0.000000  0.001027 -0.000000
                                -0.010634  0.000000 -0.011009  0.000001 -0.011977  0.000000  0.006178  0.000000 -0.000795 -0.000000
                                 0.000015  0.000000 -0.000083  0.000000  0.000191  0.000000 -0.000708  0.000000  0.001112  0.000000
                                -0.004560  0.000000  0.000699  0.000001 -0.003684  0.000001  0.000968  0.000000 -0.000007  0.000000
                                -0.000000  0.000030 -0.000000  0.000000 -0.000185  0.000000 -0.000000 -0.009197 -0.078931 -0.261428
                                -0.405971 -0.353682 -0.110280 -0.005442  0.002416  0.002153  0.007177  0.018055  0.000215 -0.000657
                                 0.000000 -0.004982  0.000000

   3.3   +    -0.8653  -15.5345 -0.000000  0.000000 -0.000000  0.000000 -0.000000  0.000000 -0.000000  0.000000 -0.000000  0.000000
                                 0.000000  0.000000 -0.000000  0.000001 -0.000001  0.000000  0.000007  0.000002  0.000002 -0.000000
                                -0.000000 -0.000000  0.000001 -0.000002 -0.000002 -0.000000 -0.000001  0.000001  0.000000 -0.000000
                                -0.000000  0.000000 -0.000000  0.000000 -0.000000 -0.000000  0.000001 -0.000001 -0.000000  0.000002
                                 0.000000  0.000001 -0.000001  0.000001  0.000002  0.000000 -0.000001  0.000000  0.000000 -0.000000
                                 0.000000 -0.000000 -0.000000  0.000105  0.000000 -0.000844 -0.000001  0.011715 -0.000029  0.223634
                                -0.000046  0.361016 -0.000049  0.385286 -0.000027  0.208619 -0.000012  0.093086 -0.000007  0.053422
                                 0.000002 -0.019360 -0.000007  0.044757  0.000004 -0.029996 -0.000002  0.016940  0.000001 -0.005915
                                -0.000000  0.000022 -0.000000  0.000068 -0.000000  0.000070  0.000000  0.000038  0.000000 -0.000760
                                 0.000000 -0.001076  0.000000 -0.000586 -0.000000 -0.000085  0.000000  0.000034  0.000000 -0.000018
                                 0.000000 -0.000000  0.000020  0.000000  0.000000 -0.000483 -0.000000  0.000000  0.000000  0.000001
                                 0.000001  0.000002 -0.000001  0.000000 -0.000000 -0.000000  0.000000 -0.000000  0.000000  0.000000
                                 0.000025 -0.000000 -0.000090

   4.3   +    -0.8622  -15.5464 -0.000000  0.000000 -0.000000  0.000000 -0.000000  0.000000 -0.000000  0.000000 -0.000002  0.000019
                                 0.000201  0.000332  0.005791  0.003178  0.012516  0.007346 -0.009912  0.003490 -0.008891 -0.000074
                                -0.000294 -0.003691 -0.008214  0.000555 -0.001114  0.000496  0.001212 -0.001334 -0.000131  0.000023
                                 0.000000 -0.000001  0.000003 -0.000014  0.000268  0.002431 -0.005882  0.003979  0.003147 -0.011566
                                -0.000639 -0.004668  0.007495 -0.004187 -0.013104 -0.009929  0.005888 -0.006117 -0.002251  0.000154
                                -0.000026  0.000007  0.000105  0.000000 -0.000844 -0.000000  0.011721  0.000002  0.223617  0.000029
                                 0.360679  0.000047  0.385016  0.000050  0.208296  0.000026  0.093236  0.000012  0.053775  0.000007
                                -0.021710 -0.000003  0.047476  0.000005 -0.031834 -0.000004  0.013982  0.000002 -0.005206 -0.000001
                                 0.000038  0.000000  0.000065  0.000000  0.000270  0.000000 -0.000392  0.000000 -0.001137 -0.000000
                                -0.002909 -0.000000 -0.000177 -0.000000  0.001567  0.000000 -0.002936  0.000000 -0.000031 -0.000000
                                 0.000000 -0.000025  0.000000  0.000000 -0.000948 -0.000000 -0.000000 -0.000241 -0.002043 -0.007271
                                -0.010966 -0.013335  0.004599 -0.000239  0.000062  0.000113 -0.000771  0.001629 -0.000021 -0.000374
                                 0.000000  0.002057 -0.000000

   5.3   0    -0.0263   -4.7101 -0.000000  0.000000 -0.000000  0.000000 -0.000000  0.000001 -0.000001  0.000004 -0.000016  0.000153
                                 0.001720  0.001810 -0.029373  0.009503 -0.032124 -0.101538  0.011399  0.198606  0.294775 -0.000627
                                -0.002440  0.013154  0.049408 -0.049570 -0.104332  0.105081  0.107039  0.187060  0.057980  0.005263
                                 0.000000 -0.000001  0.000005 -0.000028  0.000529  0.005023 -0.018699  0.021176 -0.009089 -0.125216
                                -0.001270 -0.009797  0.019060 -0.011728 -0.088436 -0.094095 -0.119363 -0.120862 -0.119055 -0.100122
                                -0.030105 -0.006930 -0.000001 -0.000000  0.000006  0.000000 -0.000087 -0.000000 -0.001656 -0.000001
                                -0.002638 -0.000002 -0.002764 -0.000002 -0.000885  0.000000 -0.000698 -0.000001 -0.000425 -0.000001
                                 0.003453  0.000003  0.002432  0.000003  0.008658 -0.000001  0.006915 -0.000002  0.015547 -0.000002
                                 0.000004  0.000000 -0.000002 -0.000000  0.000026  0.000000  0.000068  0.000000  0.000939  0.000000
                                 0.003354  0.000000  0.005036  0.000000  0.004663  0.000000  0.003382  0.000002  0.000007 -0.000000
                                 0.000000 -0.000026  0.000000 -0.000000  0.000173 -0.000000  0.000000  0.000343  0.002920  0.010154
                                 0.015160  0.016063  0.013350  0.000286 -0.000089  0.000128  0.001021 -0.000996  0.000015 -0.000127
                                 0.000000 -0.000004 -0.000000

   6.3   0     0.0032   -1.1626  0.000000 -0.000000  0.000000 -0.000001  0.000001 -0.000001  0.000003 -0.000008  0.000034 -0.000309
                                -0.003371 -0.004766 -0.039443 -0.038813 -0.117241 -0.095812  0.114873 -0.164730  0.682360  0.001247
                                 0.004848  0.029221  0.049538  0.037889  0.092937 -2.191045 -1.659487  2.445644  1.892028 -1.733430
                                -0.000000  0.000001 -0.000005  0.000025 -0.000457 -0.004108  0.006380  0.001085 -0.015178 -0.044117
                                 0.001089  0.007786 -0.010630  0.006525 -0.012086  0.008253 -0.090484  0.091266 -0.184141  0.200926
                                -0.314066  0.624033 -0.000000 -0.000000  0.000002  0.000000 -0.000029 -0.000000 -0.000621 -0.000000
                                -0.001168 -0.000000 -0.001134 -0.000000  0.000208  0.000000 -0.000149 -0.000000  0.000108 -0.000000
                                 0.000045  0.000001  0.006370 -0.000000 -0.008015  0.000001  0.026698 -0.000002 -0.038044  0.000004
                                -0.000000 -0.000000  0.000003  0.000000 -0.000004 -0.000000  0.000046  0.000000  0.000163  0.000000
                                 0.000936  0.000000  0.001023 -0.000000  0.001046  0.000001  0.000859 -0.000001  0.000002 -0.000000
                                 0.000000 -0.000006  0.000000 -0.000000  0.000040 -0.000000  0.000000  0.000166  0.001420  0.004822
                                 0.007369  0.007368  0.003816  0.000117 -0.000043  0.000025  0.000343 -0.000453  0.000005 -0.000009
                                 0.000000 -0.000134 -0.000000

                                   1 3d2-    1 3d2-    1 3d2-    1 3d2-    1 3d2-    1 3d2-    1 3d2-    1 3d2-    1 3d2-    1 3d2-
                                   1 3d2-    1 3d2-    1 3d2-    1 3d2-    1 3d2-    1 3d2-    1 3d2-    1 3d2-    1 3d2-    1 3d2-
                                   1 3d2-    1 3d2-    1 4f2-    1 4f2-    1 4f2-    1 4f2-    1 4f2-    1 4f2-    1 4f2-    1 4f2-
                                   1 4f2-    1 4f2-    1 4f2-    1 4f2-    1 4f2-    1 4f2-    1 5g2-    1 5g4-    1 5g2-    1 5g4-
                                   1 5g2-    1 5g4-    1 5g2-    1 5g4-    1 5g2-    1 5g4-    1 5g2-    1 5g4-    1 5g2-    1 5g4-
                                   1 5g2-    1 5g4-    1 5g2-    1 5g4-    1 6h4-    1 6h2-    1 6h4-    1 6h2-    1 6h4-    1 6h2-
                                   2 3d2-    2 3d2-    2 3d2-    2 3d2-    2 4f2-    2 4f2-

   1.4   +    -0.8633  -15.5529  0.000000 -0.000000  0.000001 -0.000003  0.000054  0.000473 -0.001296  0.001227 -0.000181 -0.007241
                                -0.000128 -0.000913  0.001560 -0.000551 -0.003845 -0.001056 -0.002420  0.001644 -0.000872  0.000230
                                -0.000066  0.000019  0.000105 -0.000845  0.011732  0.223928  0.361348  0.385497  0.207233  0.093243
                                 0.053628 -0.020870  0.044632 -0.029738  0.016897 -0.005910  0.000025  0.000000  0.000096 -0.000000
                                 0.000112 -0.000000 -0.000024  0.000000 -0.001356  0.000000 -0.001620  0.000000 -0.000494 -0.000000
                                 0.000167 -0.000000  0.000046 -0.000000  0.000000 -0.000026  0.000000 -0.000002 -0.000000 -0.000764
                                 0.000037  0.000128 -0.000389  0.000003 -0.000037  0.000095

   2.4   0    -0.0085   -6.9387 -0.000001  0.000003 -0.000012  0.000064 -0.001205 -0.011434  0.041957 -0.046867  0.018450  0.291851
                                 0.002894  0.022290 -0.043055  0.026471  0.194535  0.228741  0.191545  0.169487  0.111017  0.106824
                                 0.034582  0.023382  0.000002 -0.000018  0.000242  0.004367  0.006440  0.006654  0.003193  0.002125
                                 0.001888 -0.013415 -0.032123 -0.041123 -0.026058 -0.036555 -0.000005 -0.000000 -0.000005  0.000000
                                -0.000029 -0.000000 -0.000264  0.000000 -0.001431 -0.000000 -0.005100 -0.000001 -0.007432 -0.000002
                                -0.006765 -0.000001 -0.001411 -0.000003  0.000000 -0.000006 -0.000000  0.000022  0.000000 -0.000127
                                 0.000286  0.001314  0.002122  0.000025 -0.000099 -0.000478

   3.4   0     0.0106   -1.1194  0.000001 -0.000004  0.000015 -0.000079  0.001458  0.013226 -0.025308  0.006379  0.036883  0.064264
                                -0.003479 -0.025191  0.036877 -0.022773 -0.006551 -0.063132  0.194477 -0.312219  0.463809 -0.619723
                                 1.036370 -1.565033  0.000000 -0.000001  0.000015  0.000529  0.001385  0.001232 -0.001087 -0.000117
                                -0.000683  0.002344 -0.014451  0.025466 -0.059787  0.102509 -0.000002  0.000000  0.000004 -0.000000
                                -0.000015  0.000000 -0.000000 -0.000000 -0.000217  0.000000 -0.000420 -0.000000 -0.001051  0.000000
                                -0.000163 -0.000001 -0.000774  0.000001  0.000000 -0.000001 -0.000000  0.000003  0.000000 -0.000015
                                 0.000021  0.000135 -0.000005  0.000003 -0.000010 -0.000059

 HOMO      7.1    -0.278890 =      -7.5890eV
 LUMO      5.2    -0.026284 =      -0.7152eV
 LUMO-HOMO         0.252605 =       6.8737eV

 No convergence



 **********************************************************************************************************************************
 DATASETS  * FILE   NREC   LENGTH (MB)   RECORD NAMES
              1      20       23.19       500      610      700      900      950      970     1000      129      960     1100
                                          VAR    BASINP    GEOM    SYMINP    ZMAT    AOBASIS   BASIS     P2S    ABASIS      S
                                         1400     1410     1420     1200     1210     1080     1600     1650     1700     1800
                                           T        V       ECP      H0       H01     AOSYM     SMH    MOLCAS    OPER     GRID

              2       8       21.65       700     1000      520     1800     2202     3202     4202     5202
                                         GEOM     BASIS   MCVARS    GRID      RKS      RHF      RKS      RHF

 PROGRAMS   *        TOTAL       RHF       RKS       RHF       RKS       INT
 CPU TIMES  *       561.58    212.59     69.25     54.63     65.69    158.82
 REAL TIME  *       677.30 SEC
 DISK USED  *        18.23 GB
 SF USED    *         0.31 MB
 GA USED    *         0.23 MB       (max)       0.23 MB       (current)
 **********************************************************************************************************************************
   -->
   <time start="03:11:20" end="03:15:16" cpu="212.63" system="17.6" real="236.25"/>
   <storage units="megabyte" memory="8001.84" sf="0.31" df="823.12" eaf="17404.43"
     ga="0.23"/>
  </jobstep><!--
 SETTING SCF            =      -123.87195799  AU
 SETTING _CC_NORM_MAX   =         2.00000000
  --><jobstep command="RCCSD(T)" commandset="CCSD">
   <!--


 PROGRAM * CCSD (Restricted open-shell coupled cluster)     Authors: C. Hampel, H.-J. Werner, 1991, M. Deegan, P.J. Knowles, 1992


 Convergence thresholds:  THRVAR = 1.00D-08  THRDEN = 1.00D-06

 CCSD(T)     terms to be evaluated (factor= 1.000)


 Number of closed-shell orbitals:   8 (   4   2   2   0 )
 Number of active  orbitals:        8 (   3   2   2   1 )
 Number of external orbitals:     499 ( 196 119 119  65 )

 Memory could be reduced to 771.69 Mwords without degradation in triples

 Number of N-1 electron functions:              24
 Number of N-2 electron functions:             276
 Number of singly external CSFs:              3707
 Number of doubly external CSFs:          13243967
 Total number of CSFs:                    13247674

 Molecular orbitals read from record     5202.2  Type=RHF/CANONICAL (state 1.4)

 ?Error: RHF not converged. This error exit can be avoided using the IGNORE_ERROR option on the ORBITAL directive
   --><error/><!--
  --></jobstep><!--
  -->
  <input>
  <!--
 --></job><!--
--></molpro>
