/global/u2/h/haihan/Research/ECP/f_group_element_ecps/Gd/Pyscf/AE
/global/u2/h/haihan/Research/ECP/f_group_element_ecps/Gd/Pyscf/AE/basis
#INFO: **** input file is /global/u2/h/haihan/Research/ECP/f_group_element_ecps/Gd/Pyscf/AE/Gd.py ****
import sys, os
from pyscf import gto, scf, cc, dft
from pyscf.cc import uccsd_t
import numpy as np
import pandas as pd

workdir = os.path.dirname(os.path.realpath(__file__))
print(workdir)
Gd_basfile = os.path.join(workdir,'basis')
print(Gd_basfile)

mol = gto.Mole()
mol.atom = '''
Gd 0.0000  0.0000  0.0000; 
'''
mol.unit = 'Angstorm'
mol.basis = {'Gd': gto.load(Gd_basfile,'Gd')}
mol.symmetry =True
mol.spin = 8
mol.verbose = 5
mol.charge = 0
mol.build()


hf = scf.RHF(mol)
#hf.irrep_nelec = {
#'Ag' : (9,9),   # s
#'B3u': (6,4),   # x    1
#'B1u': (6,4),   # z    0
#'B2u': (6,4),   # y   -1
#'B2g': (2,2),   # xz   1
#'B3g': (2,2),   # yz  -1
#'B1g': (2,2),   # xy  -2
##'Au' : (0,0)    # xyz
#}
hf.max_cycle = 300
hf.verbose=5
#dm=hf.init_guess_by_chkfile('./pbe-triplet.chkfile')
hf.chkfile='Gd.chkfile'

hf.kernel()

hf.analyze()

#INFO: ******************** input file end ********************


System: uname_result(system='Linux', node='cori01', release='5.3.18-150200.24.126-default', version='#1 SMP Sun Jul 31 10:47:17 UTC 2022 (25ace36)', machine='x86_64', processor='x86_64')  Threads 64
Python 3.8.5 (default, Aug  5 2020, 08:36:46) 
[GCC 7.3.0]
numpy 1.20.3  scipy 1.8.1
Date: Mon Nov  7 04:51:33 2022
PySCF version 2.1.1
PySCF path  /global/homes/h/haihan/.conda/envs/myenv/lib/python3.8/site-packages/pyscf

[CONFIG] conf_file None
[INPUT] verbose = 5
[INPUT] max_memory = 4000 
[INPUT] num. atoms = 1
[INPUT] num. electrons = 64
[INPUT] charge = 0
[INPUT] spin (= nelec alpha-beta = 2S) = 8
[INPUT] symmetry True subgroup None
[INPUT] Mole.unit = Angstorm
[INPUT] Symbol           X                Y                Z      unit          X                Y                Z       unit  Magmom
[INPUT]  1 Gd     0.000000000000   0.000000000000   0.000000000000 AA    0.000000000000   0.000000000000   0.000000000000 Bohr   0.0
[INPUT] ---------------- BASIS SET ---------------- 
[INPUT] l, kappa, [nprim/nctr], expnt,             c_1 c_2 ...
[INPUT] Gd
[INPUT] 0    0    [37   /13  ]  69231600          0.000315963 -0.000166112 9.30392e-05    0    0 -2.204e-05 1.14673e-05 1.8665e-05 -1.03256e-05 -5.66255e-06 1.46891e-05 1.79245e-05    0
                                18430150          0.000309799 -0.000162906 9.12569e-05    0    0 -2.16189e-05 1.12481e-05 1.83038e-05 -1.01281e-05 -5.55433e-06 1.44075e-05 1.75926e-05    0
                                6323406           0.000891516 -0.000469028 0.000262828    0    0 -6.22716e-05 3.23991e-05 5.27448e-05 -2.91738e-05 -1.59987e-05 4.15041e-05 5.06226e-05    0
                                2418291           0.00124416 -0.000655289 0.000367479    0    0 -8.70882e-05 4.53098e-05 7.37129e-05 -4.07979e-05 -2.2374e-05 5.80332e-05 7.09226e-05    0
                                1011436           0.002479 -0.00130748 0.000733917    0    0 -0.000173987 9.05196e-05 0.000147441 -8.15113e-05 -4.46987e-05 0.000115975 0.00014127    0
                                446835.3          0.00383698 -0.00202901 0.00114092    0    0 -0.000270626 0.00014079 0.000228886 -0.000126767 -6.9522e-05 0.000180296 0.000220839    0
                                206587.2          0.00679834 -0.00360678 0.0020326    0    0 -0.000482515 0.000251012 0.000409389 -0.000226052 -0.00012395 0.000321718 0.000390633    0
                                98757.81          0.0109637 -0.00584843 0.00330776    0    0 -0.000786133 0.00040891 0.000663725 -0.000368167 -0.00020192 0.000523464 0.000644348    0
                                48564.43          0.0187407 -0.0100701 0.00572342    0    0 -0.0013626 0.0007087 0.00115896 -0.00063835 -0.000349962 0.000909017 0.00109672    0
                                24424.96          0.0310036 -0.016854 0.0096517    0    0 -0.00230351 0.00119777 0.00193865 -0.00107836 -0.000591461 0.00153238 0.001903    0
                                12525.38          0.0524219 -0.028982 0.0167807    0    0 -0.00402052 0.00209014 0.0034339 -0.00188332 -0.00103215 0.00268451 0.00320541    0
                                6537.632          0.0859613 -0.048841 0.0287693    0    0 -0.00693277 0.00360215 0.00580526 -0.00324293 -0.00177877 0.00460459 0.00579939    0
                                3471.048          0.136025 -0.0806938 0.0488121    0    0 -0.0118742 0.00616623 0.0102121 -0.00555998 -0.00304516 0.00793907 0.00932424    0
                                1873.554          0.193348 -0.12339 0.0778536    0    0 -0.0192212 0.00996871 0.015944 -0.00897556 -0.00492282 0.0127268 0.016461    0
                                1027.361          0.227593 -0.163082 0.109533    0    0 -0.0276846 0.0143385 0.024239 -0.0129538 -0.00708217 0.018581 0.0209006    0
                                571.5133          0.190252 -0.157236 0.113437    0    0 -0.0295015 0.0152421 0.0233942 -0.0137143 -0.00752771 0.0192975 0.027892    0
                                321.8489          0.0994145 -0.0502621 0.0266904    0    0 -0.00612079 0.00320513 0.00858811 -0.00295664 -0.00158503 0.00471453 -0.00323006    0
                                182.0648          0.0542076 0.163764 -0.217086    0    0 0.0710282 -0.0363114 -0.0693523 0.0332518 0.0179692 -0.0490346 -0.0427434    0
                                105.2926          0.0661117 0.315138 -0.516696    0    0 0.191035 -0.0972727 -0.150568 0.0886492 0.0481772 -0.125333 -0.205688    0
                                61.64459          0.049466 0.235842 -0.51181    0    0 0.212809 -0.108578 -0.229444 0.101626 0.0539141 -0.154176 -0.097879    0
                                36.48822          0.0219524 0.111643 -0.0502064    0    0 0.00871198 -0.00576248 0.0731743 0.00164663 0.00292899 0.014924 -0.268777    0
                                23.1195           0.02028 0.137792 0.484645    0    0 -0.398442 0.212277 0.236435 -0.195641 -0.107039 0.253841 1.00672    0
                                15.04288          0.0215366 0.142117 0.546843    0    0 -0.605908 0.334791 1.38372 -0.373815 -0.170524 0.69413 0.52303    0
                                12.33283             0    0    0    1    0    0    0    0    0    0    0    0    0
                                9.682888          0.0107731 0.075513 0.297632    0    0 -0.30154 0.155237 -0.556175 -0.12424 -0.0777365 0.0434939 0.489172    0
                                7.789695             0    0    0    0    1    0    0    0    0    0    0    0    0
                                5.766888          0.00207212 0.0120692 0.030547    0    0 0.381287 -0.244639 -0.853703 0.35168 0.127701 -0.669862 -4.09642    0
                                3.535186          -0.000646201 -0.00425539 -0.0418608    0    0 0.683846 -0.569287 -4.33511 0.780069 0.316273 -1.59287 -1.03237    0
                                2.117304          -0.000112535 -0.00175157 -0.0200668    0    0 0.339275 -0.428867 7.08243 0.524685 0.250789 0.169514 11.8352    0
                                1.220142          -0.00011652 -0.000538038 -0.00425129    0    0 0.0656626 0.118435 0.362469 -1.25418 -0.0866814 3.28998 -12.7027    0
                                0.693518          2.75735e-05 -4.19308e-05 -0.00102235    0    0 0.0424336 0.5421 -6.25234 -1.00495 -0.376682 -0.568621 2.10011    0
                                0.3921002         -3.64326e-05 -0.000147652 -0.00117164    0    0 0.0338768 0.425366 2.04777 0.328869 -0.406795 -2.31448 6.48257    0
                                0.2218203         1.32725e-05 9.07956e-06 -0.000127343    0    0 0.00773111 0.0829624 3.10265 0.592732 -0.227107 -0.606433 -3.6728    0
                                0.1297452         -8.19934e-06 -1.89282e-05 -8.82078e-05    0    0 0.00151783 0.03421 -1.11088 0.877862 0.0927262 1.71222 -2.89369    0
                                0.06459418        2.02909e-06 -1.84487e-06 -5.18819e-05    0    0 0.00364422 0.122019 -1.71792 0.113229 0.47695 0.833023 3.19004    0
                                0.03263654        -1.91861e-06 -1.00339e-05 -8.351e-05    0    0 0.00397608 0.132758 0.491339 -0.652534 0.523226 -0.728275 0.331889    0
                                0.01620678        3.52677e-08 -1.38752e-06 -1.6135e-05    0    0 0.000918824 0.0308674 0.59403 -0.298271 0.122136 -0.457315 -1.2206    1
[INPUT] 1    0    [30   /12  ]  45772940          4.28672e-06 -3.52742e-06    0    0 9.83404e-07 -4.54847e-07 -8.12591e-07 3.30175e-07 -5.3866e-07 -8.55127e-07 1.03425e-07    0
                                11267910          7.50719e-06 -6.17961e-06    0    0 1.72323e-06 -7.97018e-07 -1.42088e-06 5.78622e-07 -9.43758e-07 -1.49355e-06 1.81229e-07    0
                                3184119           2.10166e-05 -1.73056e-05    0    0 4.82689e-06 -2.23252e-06 -3.99347e-06 1.62053e-06 -2.6442e-06 -4.20503e-06 5.07643e-07    0
                                995659.1          4.71792e-05 -3.88774e-05    0    0 1.08497e-05 -5.01792e-06 -8.93031e-06 3.64329e-06 -5.94122e-06 -9.37934e-06 1.141e-06    0
                                336900.2          0.000113474 -9.35865e-05    0    0 2.61327e-05 -1.20865e-05 -2.16882e-05 8.77226e-06 -1.43191e-05 -2.28743e-05 2.74835e-06    0
                                121817.4          0.000269084 -0.000222262    0    0 6.21331e-05 -2.87337e-05 -5.0927e-05 2.08675e-05 -3.4014e-05 -5.33692e-05 6.53369e-06    0
                                46758.25          0.00066244 -0.000548172    0    0 0.000153438 -7.09619e-05 -0.000128087 5.14917e-05 -8.41104e-05 -0.000135541 1.61366e-05    0
                                19008.05          0.00166738 -0.00138399    0    0 0.00038824 -0.000179512 -0.000316169 0.000130423 -0.000212451 -0.000330103 4.08198e-05    0
                                8177.681          0.00429431 -0.00357924    0    0 0.00100706 -0.000465683 -0.000846994 0.000337829 -0.000552357 -0.000900318 0.000105902    0
                                3714.54           0.0110962 -0.00931461    0    0 0.0026339 -0.00121744 -0.00213139 0.000885009 -0.00144082 -0.00221716 0.000276858    0
                                1772.283          0.0280232 -0.0237958    0    0 0.00678442 -0.00313594 -0.00574743 0.0022749 -0.00372341 -0.00613849 0.000713257    0
                                882.5461          0.0660246 -0.0572166    0    0 0.0165434 -0.00764064 -0.0133214 0.00555919 -0.00904911 -0.0138241 0.00173797    0
                                455.6431          0.136159 -0.121671    0    0 0.0359314 -0.0165915 -0.0308237 0.0120419 -0.0197525 -0.0331741 0.00377521    0
                                242.1035          0.226689 -0.211315    0    0 0.0642174 -0.0296176 -0.0509545 0.0215908 -0.035109 -0.0524455 0.00674099    0
                                131.73            0.271795 -0.258507    0    0 0.0796561 -0.0367582 -0.0720829 0.0266486 -0.0440316 -0.0797843 0.00836913    0
                                72.75022          0.209144 -0.120945    0    0 0.0184544 -0.00847662 0.000149216 0.00626092 -0.00893593 0.0113554 0.00189175    0
                                40.52936          0.126843 0.216539    0    0 -0.151754 0.0701718 0.111935 -0.0530037 0.0868896 0.100801 -0.0161407    0
                                23.0774           0.11334 0.472137    0    0 -0.334248 0.158455 0.40098 -0.118089 0.204717 0.529533 -0.0367049    0
                                13.35775          0.0755778 0.335142    1    0 -0.204583 0.0902188 0.0587175 -0.0712862 0.113267 -0.049826 -0.0206855    0
                                7.753092          0.0199549 0.0817126    0    1 0.243213 -0.141427 -0.478896 0.135134 -0.272749 -0.744874 0.034573    0
                                4.398293          9.68138e-05 -0.0153304    0    0 0.529601 -0.319741 -1.25442 0.256056 -0.483327 -1.84983 0.0800307    0
                                2.486183          -0.00135023 -0.0160078    0    0 0.352158 -0.237053 1.21794 0.236336 -0.285851 4.92618 0.0592895    0
                                1.373227          -0.000295836 -0.00404849    0    0 0.0923965 0.124957 1.87304 -0.391266 1.17494 -3.10546 -0.0460638    0
                                0.742075          -8.79157e-05 -0.000812556    0    0 0.0269856 0.437202 -2.4444 -0.542491 0.546745 -1.83205 -0.13964    0
                                0.4002429         -2.41956e-05 -0.000506104    0    0 0.0214106 0.430494 -0.42368 -0.0290693 -0.995401 4.09931 -0.166806    0
                                0.2127324         -2.24396e-05 -0.000210561    0    0 0.00882208 0.188018 1.62602 0.312467 -0.716882 -1.92199 -0.0759644    0
                                0.1021071         1.77801e-06 -2.60036e-05    0    0 0.0013096 0.027032 -0.0221234 0.526903 0.558325 -0.935829 0.218222    0
                                0.05060605        -2.06969e-06 -1.4841e-06    0    0 9.81554e-06 0.0010736 -0.68546 0.254581 0.489249 1.07075 0.499805    0
                                0.0253062         9.09979e-07 -2.85274e-07    0    0 4.9736e-05 0.000780093 -0.0128007 0.0267425 0.0317096 0.0144801 0.371234    0
                                0.01260472        -2.56299e-07 -3.53229e-10    0    0 -9.64188e-06 -0.000121463 -0.0170157 0.000878824 0.00621395 0.0320299 0.0653485    1
[INPUT] 2    0    [19   /10  ]  35377.3           1.46644e-05    0    0 -6.73787e-06 1.62467e-06 2.83381e-06 3.29663e-06 3.51784e-06 -6.61564e-06    0
                                8721.55           0.000103521    0    0 -4.75642e-05 1.14566e-05 1.98012e-05 2.90014e-05 3.91796e-05 -2.34624e-05    0
                                2992.095          0.000571656    0    0 -0.00026345 6.35571e-05 0.000110987 0.00012467 0.000126812 -0.000275085    0
                                1222.639          0.0026784    0    0 -0.00123709 0.000298159 0.000515236 0.000751024 0.00101151 -0.000628101    0
                                558.4783          0.0106709    0    0 -0.00496132 0.00119807 0.00208992 0.00238699 0.00248277 -0.00497628    0
                                275.1934          0.0350804    0    0 -0.0164348 0.00396794 0.00685975 0.00988695 0.0131882 -0.00888648    0
                                142.7508          0.09386    0    0 -0.0447048 0.0108272 0.018842 0.0214879 0.0223967 -0.0450059    0
                                76.94398          0.196265    0    0 -0.0944517 0.0228707 0.0395818 0.0587449 0.0801659 -0.0468439    0
                                42.43062          0.304723    0    0 -0.143532 0.0347417 0.0613889 0.0637617 0.0558852 -0.167845    0
                                23.78767          0.325009    0    0 -0.132235 0.0311431 0.0545149 0.110343 0.190151 -0.0327243    0
                                13.41403          0.196656    1    0 0.0395094 -0.0152449 -0.0247286 -0.107318 -0.233691 -0.130788    0
                                7.488764          0.053535    0    1 0.30012 -0.0856651 -0.158386 -0.136032 -0.139813 1.28511    0
                                4.103708          0.00130939    0    0 0.420905 -0.118327 -0.218842 -0.560186 -1.01368 -0.582364    0
                                2.206525          -0.00260257    0    0 0.290635 -0.0583369 -0.187071 0.360521 2.16739 -2.11476    0
                                1.138806          -0.000934099    0    0 0.0924448 0.121905 0.666749 1.19729 -0.877905 3.52206    0
                                0.5352784         -6.83774e-05    0    0 0.00953908 0.329589 0.510381 -1.07799 -1.10354 -2.92474    0
                                0.2391903         -2.86355e-06    0    0 0.000390672 0.415159 -0.387516 -0.407928 1.68388 1.49491    0
                                0.1024463         5.7939e-06    0    0 8.78497e-05 0.301527 -0.455173 0.645507 -0.734043 -0.0329333    0
                                0.04150073        1.62104e-07    0    0 1.14266e-05 0.0857632 -0.122246 0.163832 -0.270486 -0.538226    1
[INPUT] 3    0    [15   /9   ]  568.7998             0    0    0 0.00023254 -0.000236439 0.000262188 -0.000408112 -0.000519876    0
                                195.6137             0    0    0 0.00212826 -0.00221259 0.00251086 -0.00287335 -0.00303995    0
                                84.20871             0    0    0 0.0112895 -0.0115772 0.0129683 -0.0189302 -0.0235287    0
                                40.74521             0    0    0 0.038121 -0.0397423 0.0450074 -0.0520746 -0.0578107    0
                                20.91498             0    0    0 0.0949052 -0.0978614 0.110756 -0.167247 -0.207514    0
                                11.15541             1    0    0 0.182275 -0.188713 0.206184 -0.222849 -0.218629    0
                                6.535968             0    1    0    0    0    0    0    0    0
                                5.963908             0    0    0 0.263882 -0.230698 0.179784 -0.253531 -0.199278    0
                                3.653029             0    0    1    0    0    0    0    0    0
                                3.1244               0    0    0 0.300102 -0.171621 0.028031 0.528033 1.31347    0
                                1.583183             0    0    0 0.2641 0.146496 -0.597016 0.600649 -0.990512    0
                                0.7651053            0    0    0 0.176728 0.435032 -0.23229 -0.943151 -0.409627    0
                                0.3476696            0    0    0 0.0797514 0.353315 0.491245 -0.0865746 1.17576    0
                                0.1471379            0    0    0 0.0169181 0.15326 0.419409 0.601698 -0.690347    0
                                0.05354545           0    0    0 0.000740533 0.0150775 0.061836 0.131989 -0.250927    1
[INPUT] 4    0    [7    /7   ]  23.98256             1    0    0    0    0    0    0
                                10.06886             0    1    0    0    0    0    0
                                5.079998             0    0    1    0    0    0    0
                                2.332546             0    0    0    1    0    0    0
                                1.071018             0    0    0    0    1    0    0
                                0.357157             0    0    0    0    0    1    0
                                0.153518             0    0    0    0    0    0    1
[INPUT] 5    0    [4    /4   ]  10.7467              1    0    0    0
                                4.345423             0    1    0    0
                                1.570805             0    0    1    0
                                0.266198             0    0    0    1
[INPUT] 6    0    [1    /1   ]  2.062092             1

nuclear repulsion = 0
point group symmetry = SO3
symmetry origin: [0. 0. 0.]
symmetry axis x: [1. 0. 0.]
symmetry axis y: [0. 1. 0.]
symmetry axis z: [0. 0. 1.]
num. orbitals of irrep s+0 = 13
num. orbitals of irrep p-1 = 12
num. orbitals of irrep p+0 = 12
num. orbitals of irrep p+1 = 12
num. orbitals of irrep d-2 = 10
num. orbitals of irrep d-1 = 10
num. orbitals of irrep d+0 = 10
num. orbitals of irrep d+1 = 10
num. orbitals of irrep d+2 = 10
num. orbitals of irrep f-3 = 9
num. orbitals of irrep f-2 = 9
num. orbitals of irrep f-1 = 9
num. orbitals of irrep f+0 = 9
num. orbitals of irrep f+1 = 9
num. orbitals of irrep f+2 = 9
num. orbitals of irrep f+3 = 9
num. orbitals of irrep g-4 = 7
num. orbitals of irrep g-3 = 7
num. orbitals of irrep g-2 = 7
num. orbitals of irrep g-1 = 7
num. orbitals of irrep g+0 = 7
num. orbitals of irrep g+1 = 7
num. orbitals of irrep g+2 = 7
num. orbitals of irrep g+3 = 7
num. orbitals of irrep g+4 = 7
num. orbitals of irrep h-5 = 4
num. orbitals of irrep h-4 = 4
num. orbitals of irrep h-3 = 4
num. orbitals of irrep h-2 = 4
num. orbitals of irrep h-1 = 4
num. orbitals of irrep h+0 = 4
num. orbitals of irrep h+1 = 4
num. orbitals of irrep h+2 = 4
num. orbitals of irrep h+3 = 4
num. orbitals of irrep h+4 = 4
num. orbitals of irrep h+5 = 4
num. orbitals of irrep i-6 = 1
num. orbitals of irrep i-5 = 1
num. orbitals of irrep i-4 = 1
num. orbitals of irrep i-3 = 1
num. orbitals of irrep i-2 = 1
num. orbitals of irrep i-1 = 1
num. orbitals of irrep i+0 = 1
num. orbitals of irrep i+1 = 1
num. orbitals of irrep i+2 = 1
num. orbitals of irrep i+3 = 1
num. orbitals of irrep i+4 = 1
num. orbitals of irrep i+5 = 1
num. orbitals of irrep i+6 = 1
number of shells = 7
number of NR pGTOs = 447
number of NR cGTOs = 282
basis = {'Gd': [[0, [69231600.0, 0.000315963, -0.000166112, 9.30392e-05, 0.0, 0.0, -2.204e-05, 1.14673e-05, 1.8665e-05, -1.03256e-05, -5.66255e-06, 1.46891e-05, 1.79245e-05, 0.0], [18430150.0, 0.000309799, -0.000162906, 9.12569e-05, 0.0, 0.0, -2.16189e-05, 1.12481e-05, 1.83038e-05, -1.01281e-05, -5.55433e-06, 1.44075e-05, 1.75926e-05, 0.0], [6323406.0, 0.000891516, -0.000469028, 0.000262828, 0.0, 0.0, -6.22716e-05, 3.23991e-05, 5.27448e-05, -2.91738e-05, -1.59987e-05, 4.15041e-05, 5.06226e-05, 0.0], [2418291.0, 0.00124416, -0.000655289, 0.000367479, 0.0, 0.0, -8.70882e-05, 4.53098e-05, 7.37129e-05, -4.07979e-05, -2.2374e-05, 5.80332e-05, 7.09226e-05, 0.0], [1011436.0, 0.002479, -0.00130748, 0.000733917, 0.0, 0.0, -0.000173987, 9.05196e-05, 0.000147441, -8.15113e-05, -4.46987e-05, 0.000115975, 0.00014127, 0.0], [446835.3, 0.00383698, -0.00202901, 0.00114092, 0.0, 0.0, -0.000270626, 0.00014079, 0.000228886, -0.000126767, -6.9522e-05, 0.000180296, 0.000220839, 0.0], [206587.2, 0.00679834, -0.00360678, 0.0020326, 0.0, 0.0, -0.000482515, 0.000251012, 0.000409389, -0.000226052, -0.00012395, 0.000321718, 0.000390633, 0.0], [98757.81, 0.0109637, -0.00584843, 0.00330776, 0.0, 0.0, -0.000786133, 0.00040891, 0.000663725, -0.000368167, -0.00020192, 0.000523464, 0.000644348, 0.0], [48564.43, 0.0187407, -0.0100701, 0.00572342, 0.0, 0.0, -0.0013626, 0.0007087, 0.00115896, -0.00063835, -0.000349962, 0.000909017, 0.00109672, 0.0], [24424.96, 0.0310036, -0.016854, 0.0096517, 0.0, 0.0, -0.00230351, 0.00119777, 0.00193865, -0.00107836, -0.000591461, 0.00153238, 0.001903, 0.0], [12525.38, 0.0524219, -0.028982, 0.0167807, 0.0, 0.0, -0.00402052, 0.00209014, 0.0034339, -0.00188332, -0.00103215, 0.00268451, 0.00320541, 0.0], [6537.632, 0.0859613, -0.048841, 0.0287693, 0.0, 0.0, -0.00693277, 0.00360215, 0.00580526, -0.00324293, -0.00177877, 0.00460459, 0.00579939, 0.0], [3471.048, 0.136025, -0.0806938, 0.0488121, 0.0, 0.0, -0.0118742, 0.00616623, 0.0102121, -0.00555998, -0.00304516, 0.00793907, 0.00932424, 0.0], [1873.554, 0.193348, -0.12339, 0.0778536, 0.0, 0.0, -0.0192212, 0.00996871, 0.015944, -0.00897556, -0.00492282, 0.0127268, 0.016461, 0.0], [1027.361, 0.227593, -0.163082, 0.109533, 0.0, 0.0, -0.0276846, 0.0143385, 0.024239, -0.0129538, -0.00708217, 0.018581, 0.0209006, 0.0], [571.5133, 0.190252, -0.157236, 0.113437, 0.0, 0.0, -0.0295015, 0.0152421, 0.0233942, -0.0137143, -0.00752771, 0.0192975, 0.027892, 0.0], [321.8489, 0.0994145, -0.0502621, 0.0266904, 0.0, 0.0, -0.00612079, 0.00320513, 0.00858811, -0.00295664, -0.00158503, 0.00471453, -0.00323006, 0.0], [182.0648, 0.0542076, 0.163764, -0.217086, 0.0, 0.0, 0.0710282, -0.0363114, -0.0693523, 0.0332518, 0.0179692, -0.0490346, -0.0427434, 0.0], [105.2926, 0.0661117, 0.315138, -0.516696, 0.0, 0.0, 0.191035, -0.0972727, -0.150568, 0.0886492, 0.0481772, -0.125333, -0.205688, 0.0], [61.64459, 0.049466, 0.235842, -0.51181, 0.0, 0.0, 0.212809, -0.108578, -0.229444, 0.101626, 0.0539141, -0.154176, -0.097879, 0.0], [36.48822, 0.0219524, 0.111643, -0.0502064, 0.0, 0.0, 0.00871198, -0.00576248, 0.0731743, 0.00164663, 0.00292899, 0.014924, -0.268777, 0.0], [23.1195, 0.02028, 0.137792, 0.484645, 0.0, 0.0, -0.398442, 0.212277, 0.236435, -0.195641, -0.107039, 0.253841, 1.00672, 0.0], [15.04288, 0.0215366, 0.142117, 0.546843, 0.0, 0.0, -0.605908, 0.334791, 1.38372, -0.373815, -0.170524, 0.69413, 0.52303, 0.0], [12.33283, 0.0, 0.0, 0.0, 1.0, 0.0, 0.0, 0.0, 0.0, 0.0, 0.0, 0.0, 0.0, 0.0], [9.682888, 0.0107731, 0.075513, 0.297632, 0.0, 0.0, -0.30154, 0.155237, -0.556175, -0.12424, -0.0777365, 0.0434939, 0.489172, 0.0], [7.789695, 0.0, 0.0, 0.0, 0.0, 1.0, 0.0, 0.0, 0.0, 0.0, 0.0, 0.0, 0.0, 0.0], [5.766888, 0.00207212, 0.0120692, 0.030547, 0.0, 0.0, 0.381287, -0.244639, -0.853703, 0.35168, 0.127701, -0.669862, -4.09642, 0.0], [3.535186, -0.000646201, -0.00425539, -0.0418608, 0.0, 0.0, 0.683846, -0.569287, -4.33511, 0.780069, 0.316273, -1.59287, -1.03237, 0.0], [2.117304, -0.000112535, -0.00175157, -0.0200668, 0.0, 0.0, 0.339275, -0.428867, 7.08243, 0.524685, 0.250789, 0.169514, 11.8352, 0.0], [1.220142, -0.00011652, -0.000538038, -0.00425129, 0.0, 0.0, 0.0656626, 0.118435, 0.362469, -1.25418, -0.0866814, 3.28998, -12.7027, 0.0], [0.693518, 2.75735e-05, -4.19308e-05, -0.00102235, 0.0, 0.0, 0.0424336, 0.5421, -6.25234, -1.00495, -0.376682, -0.568621, 2.10011, 0.0], [0.3921002, -3.64326e-05, -0.000147652, -0.00117164, 0.0, 0.0, 0.0338768, 0.425366, 2.04777, 0.328869, -0.406795, -2.31448, 6.48257, 0.0], [0.2218203, 1.32725e-05, 9.07956e-06, -0.000127343, 0.0, 0.0, 0.00773111, 0.0829624, 3.10265, 0.592732, -0.227107, -0.606433, -3.6728, 0.0], [0.1297452, -8.19934e-06, -1.89282e-05, -8.82078e-05, 0.0, 0.0, 0.00151783, 0.03421, -1.11088, 0.877862, 0.0927262, 1.71222, -2.89369, 0.0], [0.06459418, 2.02909e-06, -1.84487e-06, -5.18819e-05, 0.0, 0.0, 0.00364422, 0.122019, -1.71792, 0.113229, 0.47695, 0.833023, 3.19004, 0.0], [0.03263654, -1.91861e-06, -1.00339e-05, -8.351e-05, 0.0, 0.0, 0.00397608, 0.132758, 0.491339, -0.652534, 0.523226, -0.728275, 0.331889, 0.0], [0.01620678, 3.52677e-08, -1.38752e-06, -1.6135e-05, 0.0, 0.0, 0.000918824, 0.0308674, 0.59403, -0.298271, 0.122136, -0.457315, -1.2206, 1.0]], [1, [45772940.0, 4.28672e-06, -3.52742e-06, 0.0, 0.0, 9.83404e-07, -4.54847e-07, -8.12591e-07, 3.30175e-07, -5.3866e-07, -8.55127e-07, 1.03425e-07, 0.0], [11267910.0, 7.50719e-06, -6.17961e-06, 0.0, 0.0, 1.72323e-06, -7.97018e-07, -1.42088e-06, 5.78622e-07, -9.43758e-07, -1.49355e-06, 1.81229e-07, 0.0], [3184119.0, 2.10166e-05, -1.73056e-05, 0.0, 0.0, 4.82689e-06, -2.23252e-06, -3.99347e-06, 1.62053e-06, -2.6442e-06, -4.20503e-06, 5.07643e-07, 0.0], [995659.1, 4.71792e-05, -3.88774e-05, 0.0, 0.0, 1.08497e-05, -5.01792e-06, -8.93031e-06, 3.64329e-06, -5.94122e-06, -9.37934e-06, 1.141e-06, 0.0], [336900.2, 0.000113474, -9.35865e-05, 0.0, 0.0, 2.61327e-05, -1.20865e-05, -2.16882e-05, 8.77226e-06, -1.43191e-05, -2.28743e-05, 2.74835e-06, 0.0], [121817.4, 0.000269084, -0.000222262, 0.0, 0.0, 6.21331e-05, -2.87337e-05, -5.0927e-05, 2.08675e-05, -3.4014e-05, -5.33692e-05, 6.53369e-06, 0.0], [46758.25, 0.00066244, -0.000548172, 0.0, 0.0, 0.000153438, -7.09619e-05, -0.000128087, 5.14917e-05, -8.41104e-05, -0.000135541, 1.61366e-05, 0.0], [19008.05, 0.00166738, -0.00138399, 0.0, 0.0, 0.00038824, -0.000179512, -0.000316169, 0.000130423, -0.000212451, -0.000330103, 4.08198e-05, 0.0], [8177.681, 0.00429431, -0.00357924, 0.0, 0.0, 0.00100706, -0.000465683, -0.000846994, 0.000337829, -0.000552357, -0.000900318, 0.000105902, 0.0], [3714.54, 0.0110962, -0.00931461, 0.0, 0.0, 0.0026339, -0.00121744, -0.00213139, 0.000885009, -0.00144082, -0.00221716, 0.000276858, 0.0], [1772.283, 0.0280232, -0.0237958, 0.0, 0.0, 0.00678442, -0.00313594, -0.00574743, 0.0022749, -0.00372341, -0.00613849, 0.000713257, 0.0], [882.5461, 0.0660246, -0.0572166, 0.0, 0.0, 0.0165434, -0.00764064, -0.0133214, 0.00555919, -0.00904911, -0.0138241, 0.00173797, 0.0], [455.6431, 0.136159, -0.121671, 0.0, 0.0, 0.0359314, -0.0165915, -0.0308237, 0.0120419, -0.0197525, -0.0331741, 0.00377521, 0.0], [242.1035, 0.226689, -0.211315, 0.0, 0.0, 0.0642174, -0.0296176, -0.0509545, 0.0215908, -0.035109, -0.0524455, 0.00674099, 0.0], [131.73, 0.271795, -0.258507, 0.0, 0.0, 0.0796561, -0.0367582, -0.0720829, 0.0266486, -0.0440316, -0.0797843, 0.00836913, 0.0], [72.75022, 0.209144, -0.120945, 0.0, 0.0, 0.0184544, -0.00847662, 0.000149216, 0.00626092, -0.00893593, 0.0113554, 0.00189175, 0.0], [40.52936, 0.126843, 0.216539, 0.0, 0.0, -0.151754, 0.0701718, 0.111935, -0.0530037, 0.0868896, 0.100801, -0.0161407, 0.0], [23.0774, 0.11334, 0.472137, 0.0, 0.0, -0.334248, 0.158455, 0.40098, -0.118089, 0.204717, 0.529533, -0.0367049, 0.0], [13.35775, 0.0755778, 0.335142, 1.0, 0.0, -0.204583, 0.0902188, 0.0587175, -0.0712862, 0.113267, -0.049826, -0.0206855, 0.0], [7.753092, 0.0199549, 0.0817126, 0.0, 1.0, 0.243213, -0.141427, -0.478896, 0.135134, -0.272749, -0.744874, 0.034573, 0.0], [4.398293, 9.68138e-05, -0.0153304, 0.0, 0.0, 0.529601, -0.319741, -1.25442, 0.256056, -0.483327, -1.84983, 0.0800307, 0.0], [2.486183, -0.00135023, -0.0160078, 0.0, 0.0, 0.352158, -0.237053, 1.21794, 0.236336, -0.285851, 4.92618, 0.0592895, 0.0], [1.373227, -0.000295836, -0.00404849, 0.0, 0.0, 0.0923965, 0.124957, 1.87304, -0.391266, 1.17494, -3.10546, -0.0460638, 0.0], [0.742075, -8.79157e-05, -0.000812556, 0.0, 0.0, 0.0269856, 0.437202, -2.4444, -0.542491, 0.546745, -1.83205, -0.13964, 0.0], [0.4002429, -2.41956e-05, -0.000506104, 0.0, 0.0, 0.0214106, 0.430494, -0.42368, -0.0290693, -0.995401, 4.09931, -0.166806, 0.0], [0.2127324, -2.24396e-05, -0.000210561, 0.0, 0.0, 0.00882208, 0.188018, 1.62602, 0.312467, -0.716882, -1.92199, -0.0759644, 0.0], [0.1021071, 1.77801e-06, -2.60036e-05, 0.0, 0.0, 0.0013096, 0.027032, -0.0221234, 0.526903, 0.558325, -0.935829, 0.218222, 0.0], [0.05060605, -2.06969e-06, -1.4841e-06, 0.0, 0.0, 9.81554e-06, 0.0010736, -0.68546, 0.254581, 0.489249, 1.07075, 0.499805, 0.0], [0.0253062, 9.09979e-07, -2.85274e-07, 0.0, 0.0, 4.9736e-05, 0.000780093, -0.0128007, 0.0267425, 0.0317096, 0.0144801, 0.371234, 0.0], [0.01260472, -2.56299e-07, -3.53229e-10, 0.0, 0.0, -9.64188e-06, -0.000121463, -0.0170157, 0.000878824, 0.00621395, 0.0320299, 0.0653485, 1.0]], [2, [35377.3, 1.46644e-05, 0.0, 0.0, -6.73787e-06, 1.62467e-06, 2.83381e-06, 3.29663e-06, 3.51784e-06, -6.61564e-06, 0.0], [8721.55, 0.000103521, 0.0, 0.0, -4.75642e-05, 1.14566e-05, 1.98012e-05, 2.90014e-05, 3.91796e-05, -2.34624e-05, 0.0], [2992.095, 0.000571656, 0.0, 0.0, -0.00026345, 6.35571e-05, 0.000110987, 0.00012467, 0.000126812, -0.000275085, 0.0], [1222.639, 0.0026784, 0.0, 0.0, -0.00123709, 0.000298159, 0.000515236, 0.000751024, 0.00101151, -0.000628101, 0.0], [558.4783, 0.0106709, 0.0, 0.0, -0.00496132, 0.00119807, 0.00208992, 0.00238699, 0.00248277, -0.00497628, 0.0], [275.1934, 0.0350804, 0.0, 0.0, -0.0164348, 0.00396794, 0.00685975, 0.00988695, 0.0131882, -0.00888648, 0.0], [142.7508, 0.09386, 0.0, 0.0, -0.0447048, 0.0108272, 0.018842, 0.0214879, 0.0223967, -0.0450059, 0.0], [76.94398, 0.196265, 0.0, 0.0, -0.0944517, 0.0228707, 0.0395818, 0.0587449, 0.0801659, -0.0468439, 0.0], [42.43062, 0.304723, 0.0, 0.0, -0.143532, 0.0347417, 0.0613889, 0.0637617, 0.0558852, -0.167845, 0.0], [23.78767, 0.325009, 0.0, 0.0, -0.132235, 0.0311431, 0.0545149, 0.110343, 0.190151, -0.0327243, 0.0], [13.41403, 0.196656, 1.0, 0.0, 0.0395094, -0.0152449, -0.0247286, -0.107318, -0.233691, -0.130788, 0.0], [7.488764, 0.053535, 0.0, 1.0, 0.30012, -0.0856651, -0.158386, -0.136032, -0.139813, 1.28511, 0.0], [4.103708, 0.00130939, 0.0, 0.0, 0.420905, -0.118327, -0.218842, -0.560186, -1.01368, -0.582364, 0.0], [2.206525, -0.00260257, 0.0, 0.0, 0.290635, -0.0583369, -0.187071, 0.360521, 2.16739, -2.11476, 0.0], [1.138806, -0.000934099, 0.0, 0.0, 0.0924448, 0.121905, 0.666749, 1.19729, -0.877905, 3.52206, 0.0], [0.5352784, -6.83774e-05, 0.0, 0.0, 0.00953908, 0.329589, 0.510381, -1.07799, -1.10354, -2.92474, 0.0], [0.2391903, -2.86355e-06, 0.0, 0.0, 0.000390672, 0.415159, -0.387516, -0.407928, 1.68388, 1.49491, 0.0], [0.1024463, 5.7939e-06, 0.0, 0.0, 8.78497e-05, 0.301527, -0.455173, 0.645507, -0.734043, -0.0329333, 0.0], [0.04150073, 1.62104e-07, 0.0, 0.0, 1.14266e-05, 0.0857632, -0.122246, 0.163832, -0.270486, -0.538226, 1.0]], [3, [568.7998, 0.0, 0.0, 0.0, 0.00023254, -0.000236439, 0.000262188, -0.000408112, -0.000519876, 0.0], [195.6137, 0.0, 0.0, 0.0, 0.00212826, -0.00221259, 0.00251086, -0.00287335, -0.00303995, 0.0], [84.20871, 0.0, 0.0, 0.0, 0.0112895, -0.0115772, 0.0129683, -0.0189302, -0.0235287, 0.0], [40.74521, 0.0, 0.0, 0.0, 0.038121, -0.0397423, 0.0450074, -0.0520746, -0.0578107, 0.0], [20.91498, 0.0, 0.0, 0.0, 0.0949052, -0.0978614, 0.110756, -0.167247, -0.207514, 0.0], [11.15541, 1.0, 0.0, 0.0, 0.182275, -0.188713, 0.206184, -0.222849, -0.218629, 0.0], [6.535968, 0.0, 1.0, 0.0, 0.0, 0.0, 0.0, 0.0, 0.0, 0.0], [5.963908, 0.0, 0.0, 0.0, 0.263882, -0.230698, 0.179784, -0.253531, -0.199278, 0.0], [3.653029, 0.0, 0.0, 1.0, 0.0, 0.0, 0.0, 0.0, 0.0, 0.0], [3.1244, 0.0, 0.0, 0.0, 0.300102, -0.171621, 0.028031, 0.528033, 1.31347, 0.0], [1.583183, 0.0, 0.0, 0.0, 0.2641, 0.146496, -0.597016, 0.600649, -0.990512, 0.0], [0.7651053, 0.0, 0.0, 0.0, 0.176728, 0.435032, -0.23229, -0.943151, -0.409627, 0.0], [0.3476696, 0.0, 0.0, 0.0, 0.0797514, 0.353315, 0.491245, -0.0865746, 1.17576, 0.0], [0.1471379, 0.0, 0.0, 0.0, 0.0169181, 0.15326, 0.419409, 0.601698, -0.690347, 0.0], [0.05354545, 0.0, 0.0, 0.0, 0.000740533, 0.0150775, 0.061836, 0.131989, -0.250927, 1.0]], [4, [23.98256, 1.0, 0.0, 0.0, 0.0, 0.0, 0.0, 0.0], [10.06886, 0.0, 1.0, 0.0, 0.0, 0.0, 0.0, 0.0], [5.079998, 0.0, 0.0, 1.0, 0.0, 0.0, 0.0, 0.0], [2.332546, 0.0, 0.0, 0.0, 1.0, 0.0, 0.0, 0.0], [1.071018, 0.0, 0.0, 0.0, 0.0, 1.0, 0.0, 0.0], [0.357157, 0.0, 0.0, 0.0, 0.0, 0.0, 1.0, 0.0], [0.153518, 0.0, 0.0, 0.0, 0.0, 0.0, 0.0, 1.0]], [5, [10.7467, 1.0, 0.0, 0.0, 0.0], [4.345423, 0.0, 1.0, 0.0, 0.0], [1.570805, 0.0, 0.0, 1.0, 0.0], [0.266198, 0.0, 0.0, 0.0, 1.0]], [6, [2.062092, 1.0]]]}
ecp = {}
CPU time:         0.98


******** <class 'pyscf.scf.hf_symm.SymAdaptedROHF'> ********
method = SymAdaptedROHF-ROHF-RHF
initial guess = minao
damping factor = 0
level_shift factor = 0
DIIS = <class 'pyscf.scf.diis.CDIIS'>
diis_start_cycle = 1
diis_space = 8
SCF conv_tol = 1e-09
SCF conv_tol_grad = None
SCF max_cycles = 300
direct_scf = True
direct_scf_tol = 1e-13
chkfile to save SCF result = Gd.chkfile
max_memory 4000 MB (current use 79 MB)
num. doubly occ = 28  num. singly occ = 8
Freeze 0 electrons in irreps []
    64 free electrons in irreps s+0 p-1 p+0 p+1 d-2 d-1 d+0 d+1 d+2 f-3 f-2 f-1 f+0 f+1 f+2 f+3 g-4 g-3 g-2 g-1 g+0 g+1 g+2 g+3 g+4 h-5 h-4 h-3 h-2 h-1 h+0 h+1 h+2 h+3 h+4 h+5 i-6 i-5 i-4 i-3 i-2 i-1 i+0 i+1 i+2 i+3 i+4 i+5 i+6
Set gradient conv threshold to 3.16228e-05
    CPU time for vj and vk    506.57 sec, wall time     53.81 sec
E1 = -14260.973033465378  Ecoul = 4252.040534891614
init E= -10008.9324985738
cond(S) = 34680.86383613032
    CPU time for initialize scf    508.38 sec, wall time     53.92 sec
HOMO (d+2) = 0.117200213180014  LUMO (d-2) = 0.117200213180015
double occ irrep_nelec = [6, 4, 4, 4, 2, 2, 2, 2, 2, 0, 0, 0, 0, 0, 0, 0, 0, 0, 0, 0, 0, 0, 0, 0, 0, 0, 0, 0, 0, 0, 0, 0, 0, 0, 0, 0, 0, 0, 0, 0, 0, 0, 0, 0, 0, 0, 0, 0, 0]
single occ irrep_nelec = [1, 2, 2, 2, 0, 0, 0, 0, 1, 0, 0, 0, 0, 0, 0, 0, 0, 0, 0, 0, 0, 0, 0, 0, 0, 0, 0, 0, 0, 0, 0, 0, 0, 0, 0, 0, 0, 0, 0, 0, 0, 0, 0, 0, 0, 0, 0, 0, 0]
                  Roothaan           | alpha              | beta
  Highest 2-occ = -0.0212233037199553 | -0.0212233037199628 | -0.0212233037199628
  Lowest 0-occ =   0.117200213180015 |  0.117200213180016 |  0.117200213180016
  1-occ =         0.0812899473235097 | 0.0812899473235821 | 0.0812899473235821
  1-occ =         0.0256525890110967 | 0.0256525890110967 | 0.0256525890110967
  1-occ =          0.104248457631772 |  0.104248457631778 |  0.104248457631778
  1-occ =         0.0256525890111205 | 0.0256525890111213 | 0.0256525890111213
  1-occ =          0.104248457631975 |  0.104248457631973 |  0.104248457631973
  1-occ =         0.0256525890111091 | 0.0256525890111086 | 0.0256525890111086
  1-occ =          0.104248457631982 |  0.104248457631988 |  0.104248457631988
  1-occ =          0.117200213180014 |  0.117200213180014 |  0.117200213180014
  Roothaan mo_energy =
[-1.50014453e+03 -2.50424465e+02 -5.66620266e+01 -1.07019869e+01
 -1.09813614e+00 -2.12233037e-02  8.12899473e-02  4.21584134e-01
  1.46942462e+00  4.49148667e+00  1.22639429e+01  3.27796553e+01
  5.44960445e+02 -2.59010411e+02 -5.33687434e+01 -8.70858001e+00
 -5.00280595e-01  2.56525890e-02  1.04248458e-01  3.70815717e-01
  1.27045113e+00  3.73240119e+00  1.04293505e+01  2.77996924e+01
  8.36994239e+01 -2.59010411e+02 -5.33687434e+01 -8.70858001e+00
 -5.00280595e-01  2.56525890e-02  1.04248458e-01  3.70815717e-01
  1.27045113e+00  3.73240119e+00  1.04293505e+01  2.77996924e+01
  8.36994239e+01 -2.59010411e+02 -5.33687434e+01 -8.70858001e+00
 -5.00280595e-01  2.56525890e-02  1.04248458e-01  3.70815717e-01
  1.27045113e+00  3.73240119e+00  1.04293505e+01  2.77996924e+01
  8.36994239e+01 -4.22515605e+01 -4.36675186e+00  1.17200213e-01
  3.29093491e-01  7.68755017e-01  1.91924217e+00  4.85829359e+00
  1.17484610e+01  2.78784682e+01  6.35853635e+01 -4.22515605e+01
 -4.36675186e+00  1.17200213e-01  3.29093491e-01  7.68755017e-01
  1.91924217e+00  4.85829359e+00  1.17484610e+01  2.78784682e+01
  6.35853635e+01 -4.22515605e+01 -4.36675186e+00  1.17200213e-01
  3.29093491e-01  7.68755017e-01  1.91924217e+00  4.85829359e+00
  1.17484610e+01  2.78784682e+01  6.35853635e+01 -4.22515605e+01
 -4.36675186e+00  1.17200213e-01  3.29093491e-01  7.68755017e-01
  1.91924217e+00  4.85829359e+00  1.17484610e+01  2.78784682e+01
  6.35853635e+01 -4.22515605e+01 -4.36675186e+00  1.17200213e-01
  3.29093491e-01  7.68755017e-01  1.91924217e+00  4.85829359e+00
  1.17484610e+01  2.78784682e+01  6.35853635e+01  2.19623268e-01
  6.50977472e-01  1.04065672e+00  1.99527969e+00  4.38747597e+00
  9.39102788e+00  1.98572579e+01  4.05343152e+01  8.49734691e+01
  2.19623268e-01  6.50977472e-01  1.04065672e+00  1.99527969e+00
  4.38747597e+00  9.39102788e+00  1.98572579e+01  4.05343152e+01
  8.49734691e+01  2.19623268e-01  6.50977472e-01  1.04065672e+00
  1.99527969e+00  4.38747597e+00  9.39102788e+00  1.98572579e+01
  4.05343152e+01  8.49734691e+01  2.19623268e-01  6.50977472e-01
  1.04065672e+00  1.99527969e+00  4.38747597e+00  9.39102788e+00
  1.98572579e+01  4.05343152e+01  8.49734691e+01  2.19623268e-01
  6.50977472e-01  1.04065672e+00  1.99527969e+00  4.38747597e+00
  9.39102788e+00  1.98572579e+01  4.05343152e+01  8.49734691e+01
  2.19623268e-01  6.50977472e-01  1.04065672e+00  1.99527969e+00
  4.38747597e+00  9.39102788e+00  1.98572579e+01  4.05343152e+01
  8.49734691e+01  2.19623268e-01  6.50977472e-01  1.04065672e+00
  1.99527969e+00  4.38747597e+00  9.39102788e+00  1.98572579e+01
  4.05343152e+01  8.49734691e+01  7.54886753e-01  2.00775067e+00
  4.93739476e+00  1.04284639e+01  2.12961559e+01  4.38839145e+01
  9.80042857e+01  7.54886753e-01  2.00775067e+00  4.93739476e+00
  1.04284639e+01  2.12961559e+01  4.38839145e+01  9.80042857e+01
  7.54886753e-01  2.00775067e+00  4.93739476e+00  1.04284639e+01
  2.12961559e+01  4.38839145e+01  9.80042857e+01  7.54886753e-01
  2.00775067e+00  4.93739476e+00  1.04284639e+01  2.12961559e+01
  4.38839145e+01  9.80042857e+01  7.54886753e-01  2.00775067e+00
  4.93739476e+00  1.04284639e+01  2.12961559e+01  4.38839145e+01
  9.80042857e+01  7.54886753e-01  2.00775067e+00  4.93739476e+00
  1.04284639e+01  2.12961559e+01  4.38839145e+01  9.80042857e+01
  7.54886753e-01  2.00775067e+00  4.93739476e+00  1.04284639e+01
  2.12961559e+01  4.38839145e+01  9.80042857e+01  7.54886753e-01
  2.00775067e+00  4.93739476e+00  1.04284639e+01  2.12961559e+01
  4.38839145e+01  9.80042857e+01  7.54886753e-01  2.00775067e+00
  4.93739476e+00  1.04284639e+01  2.12961559e+01  4.38839145e+01
  9.80042857e+01  1.64307177e+00  8.34088404e+00  2.23083929e+01
  5.41505097e+01  1.64307177e+00  8.34088404e+00  2.23083929e+01
  5.41505097e+01  1.64307177e+00  8.34088404e+00  2.23083929e+01
  5.41505097e+01  1.64307177e+00  8.34088404e+00  2.23083929e+01
  5.41505097e+01  1.64307177e+00  8.34088404e+00  2.23083929e+01
  5.41505097e+01  1.64307177e+00  8.34088404e+00  2.23083929e+01
  5.41505097e+01  1.64307177e+00  8.34088404e+00  2.23083929e+01
  5.41505097e+01  1.64307177e+00  8.34088404e+00  2.23083929e+01
  5.41505097e+01  1.64307177e+00  8.34088404e+00  2.23083929e+01
  5.41505097e+01  1.64307177e+00  8.34088404e+00  2.23083929e+01
  5.41505097e+01  1.64307177e+00  8.34088404e+00  2.23083929e+01
  5.41505097e+01  1.33613674e+01  1.33613674e+01  1.33613674e+01
  1.33613674e+01  1.33613674e+01  1.33613674e+01  1.33613674e+01
  1.33613674e+01  1.33613674e+01  1.33613674e+01  1.33613674e+01
  1.33613674e+01  1.33613674e+01]
    CPU time for vj and vk    450.53 sec, wall time     40.19 sec
E1 = -13641.62949373321  Ecoul = 3406.5737412312646
cycle= 1 E= -10235.0557525019  delta_E= -226  |g|= 21.3  |ddm|=  769
    CPU time for cycle= 1    451.47 sec, wall time     40.30 sec
HOMO (d+2) = -4.56875060063787  LUMO (d-1) = -4.56948599376199
double occ irrep_nelec = [4, 3, 3, 3, 2, 2, 2, 2, 2, 0, 1, 1, 1, 1, 1, 0, 0, 0, 0, 0, 0, 0, 0, 0, 0, 0, 0, 0, 0, 0, 0, 0, 0, 0, 0, 0, 0, 0, 0, 0, 0, 0, 0, 0, 0, 0, 0, 0, 0]
single occ irrep_nelec = [1, 1, 1, 1, 0, 0, 1, 0, 1, 1, 0, 0, 0, 0, 0, 1, 0, 0, 0, 0, 0, 0, 0, 0, 0, 0, 0, 0, 0, 0, 0, 0, 0, 0, 0, 0, 0, 0, 0, 0, 0, 0, 0, 0, 0, 0, 0, 0, 0]
                  Roothaan           | alpha              | beta
  Highest 2-occ =  -9.20562121337982 |  -9.20593659629274 |  -9.20530300343981
  Lowest 0-occ =   -4.56948599376199 |  -4.57236305000399 |  -4.56660893751998
  1-occ =          -7.44659791794817 |  -7.45548756147967 |   -7.4388861529517
  1-occ =          -6.50317104947347 |  -6.51012182309304 |  -6.49425091448557
  1-occ =          -6.50441064878089 |  -6.51151381137431 |  -6.49588941683416
  1-occ =          -6.50317104947349 |  -6.51012182309307 |  -6.49425091448556
  1-occ =          -4.56988188843234 |   -4.5727657370701 |  -4.56699803979458
  1-occ =          -4.56875060063787 |    -4.572967010744 |  -4.56511227601011
  1-occ =          -9.20539474928707 |   -9.2057164944311 |  -9.20507300414303
  1-occ =          -9.20539474928706 |   -9.2057164944311 |  -9.20507300414303
  Roothaan mo_energy =
[-1.53029450e+03 -2.71367633e+02 -7.30325590e+01 -2.26519369e+01
 -7.44659792e+00 -2.72386818e+00 -1.05309180e+00 -3.65030326e-01
 -9.79529825e-02  5.38625858e-01  5.10648635e+00  2.22995277e+01
  5.27953423e+02 -2.82048936e+02 -7.03235763e+01 -2.06894457e+01
 -6.50317105e+00 -2.36242785e+00 -8.55581034e-01 -2.61864990e-01
 -5.00448875e-02  2.31766050e-01  3.60397255e+00  1.72479948e+01
  6.80037750e+01 -2.82048951e+02 -7.03236722e+01 -2.06898319e+01
 -6.50441065e+00 -2.36627884e+00 -8.62491803e-01 -2.65949438e-01
 -5.54459110e-02  2.24058382e-01  3.60029027e+00  1.72465750e+01
  6.80033357e+01 -2.82048936e+02 -7.03235763e+01 -2.06894457e+01
 -6.50317105e+00 -2.36242785e+00 -8.55581034e-01 -2.61864990e-01
 -5.00448875e-02  2.31766050e-01  3.60397255e+00  1.72479948e+01
  6.80037750e+01 -5.96234766e+01 -1.60206481e+01 -4.56829849e+00
 -1.59250265e+00 -5.25178252e-01 -9.49928168e-02  5.05920665e-01
  4.38630222e+00  1.74063651e+01  4.94947844e+01 -5.96235315e+01
 -1.60209380e+01 -4.56948599e+00 -1.59579631e+00 -5.31603962e-01
 -1.01674829e-01  5.01547260e-01  4.38447022e+00  1.74055887e+01
  4.94944489e+01 -5.96235498e+01 -1.60210346e+01 -4.56988189e+00
 -1.59689491e+00 -5.33747932e-01 -1.03900476e-01  5.00090447e-01
  4.38385970e+00  1.74053300e+01  4.94943371e+01 -5.96235315e+01
 -1.60209380e+01 -4.56948599e+00 -1.59579631e+00 -5.31603962e-01
 -1.01674829e-01  5.01547260e-01  4.38447022e+00  1.74055887e+01
  4.94944489e+01 -5.96234919e+01 -1.60207265e+01 -4.56875060e+00
 -1.59734233e+00 -5.62049548e-01 -1.15427278e-01  5.10045997e-01
  4.38720398e+00  1.74066107e+01  4.94948624e+01 -9.20539475e+00
 -2.62219266e+00 -8.52711377e-01 -1.90921353e-01  1.82615516e-01
  2.54758117e+00  1.03802746e+01  2.87821870e+01  7.03812930e+01
 -9.20563341e+00 -2.62344567e+00 -8.55779062e-01 -1.91982646e-01
  1.77166716e-01  2.54474377e+00  1.03791238e+01  2.87816499e+01
  7.03810659e+01 -9.20576442e+00 -2.62410278e+00 -8.57498259e-01
 -1.94993411e-01  1.75362312e-01  2.54390735e+00  1.03787090e+01
  2.87814310e+01  7.03809631e+01 -9.20580971e+00 -2.62433450e+00
 -8.58088190e-01 -1.95680656e-01  1.74566219e-01  2.54351328e+00
  1.03785340e+01  2.87813442e+01  7.03809243e+01 -9.20576442e+00
 -2.62410278e+00 -8.57498259e-01 -1.94993411e-01  1.75362312e-01
  2.54390735e+00  1.03787090e+01  2.87814310e+01  7.03809631e+01
 -9.20562121e+00 -2.62335078e+00 -8.55656829e-01 -1.94357138e-01
  1.78631926e-01  2.54560905e+00  1.03793994e+01  2.87817532e+01
  7.03810993e+01 -9.20539475e+00 -2.62219266e+00 -8.52711377e-01
 -1.90921353e-01  1.82615516e-01  2.54758117e+00  1.03802746e+01
  2.87821870e+01  7.03812930e+01 -1.14627912e+00 -2.94638692e-01
  3.82363015e-01  3.25943448e+00  1.16749786e+01  3.19290801e+01
  8.35105517e+01 -1.14782401e+00 -2.98583186e-01  3.78865918e-01
  3.25817696e+00  1.16744097e+01  3.19288007e+01  8.35104278e+01
 -1.14904681e+00 -3.01880702e-01  3.75887388e-01  3.25715247e+00
  1.16739635e+01  3.19285863e+01  8.35103337e+01 -1.14947355e+00
 -3.02620068e-01  3.75360674e-01  3.25686726e+00  1.16737996e+01
  3.19284961e+01  8.35102921e+01 -1.14967101e+00 -3.03089208e-01
  3.74959226e-01  3.25671310e+00  1.16737263e+01  3.19284592e+01
  8.35102755e+01 -1.14947355e+00 -3.02620068e-01  3.75360674e-01
  3.25686726e+00  1.16737996e+01  3.19284961e+01  8.35102921e+01
 -1.14869228e+00 -3.00450257e-01  3.77340783e-01  3.25753254e+00
  1.16740833e+01  3.19286307e+01  8.35103509e+01 -1.14782401e+00
 -2.98583186e-01  3.78865918e-01  3.25817696e+00  1.16744097e+01
  3.19288007e+01  8.35104278e+01 -1.14627912e+00 -2.94638692e-01
  3.82363015e-01  3.25943448e+00  1.16749786e+01  3.19290801e+01
  8.35105517e+01  3.11110052e-02  2.73136183e+00  1.32270176e+01
  4.18854450e+01  2.75041230e-02  2.73045993e+00  1.32266279e+01
  4.18852713e+01  2.49240612e-02  2.72978783e+00  1.32263332e+01
  4.18851391e+01  2.23565933e-02  2.72921374e+00  1.32260955e+01
  4.18850352e+01  2.22168340e-02  2.72905115e+00  1.32260055e+01
  4.18849913e+01  2.18965382e-02  2.72896142e+00  1.32259652e+01
  4.18849730e+01  2.22168340e-02  2.72905115e+00  1.32260055e+01
  4.18849913e+01  2.40471243e-02  2.72943322e+00  1.32261590e+01
  4.18850575e+01  2.49240612e-02  2.72978783e+00  1.32263332e+01
  4.18851391e+01  2.75041230e-02  2.73045993e+00  1.32266279e+01
  4.18852713e+01  3.11110052e-02  2.73136183e+00  1.32270176e+01
  4.18854450e+01  7.25175596e+00  7.25111063e+00  7.25059824e+00
  7.25020941e+00  7.24986410e+00  7.24977543e+00  7.24972196e+00
  7.24977543e+00  7.25000964e+00  7.25020941e+00  7.25059824e+00
  7.25111063e+00  7.25175596e+00]
    CPU time for vj and vk    445.11 sec, wall time     40.67 sec
E1 = -14911.18173014031  Ecoul = 4688.376829956066
cycle= 2 E= -10222.8049001842  delta_E= 12.3  |g|= 34.2  |ddm|= 75.6
    CPU time for cycle= 2    446.10 sec, wall time     40.79 sec
HOMO (s+0) = 0.0280874141784689  LUMO (f-3) = -5.45814835722252
double occ irrep_nelec = [4, 3, 3, 3, 2, 2, 2, 2, 2, 0, 1, 1, 1, 1, 1, 0, 0, 0, 0, 0, 0, 0, 0, 0, 0, 0, 0, 0, 0, 0, 0, 0, 0, 0, 0, 0, 0, 0, 0, 0, 0, 0, 0, 0, 0, 0, 0, 0, 0]
single occ irrep_nelec = [2, 2, 2, 2, 0, 0, 0, 0, 0, 0, 0, 0, 0, 0, 0, 0, 0, 0, 0, 0, 0, 0, 0, 0, 0, 0, 0, 0, 0, 0, 0, 0, 0, 0, 0, 0, 0, 0, 0, 0, 0, 0, 0, 0, 0, 0, 0, 0, 0]
                  Roothaan           | alpha              | beta
  Highest 2-occ =  -5.56506826363589 |   7.49316450701133 |   7.67113255233033
  Lowest 0-occ =   -5.45814835722252 |  0.777941868592731 |   0.80545483835336
  1-occ =         -0.155985205684606 |   0.43382511523194 |  0.443803464375591
  1-occ =         0.0280874141784689 |  0.716906982531842 |  0.730571719804719
  1-occ =         -0.0869771711489836 |  0.338723152870684 |  0.346328066022657
  1-occ =          0.026466356322337 |  0.437461143303091 |  0.445974917784589
  1-occ =         -0.0903689600734095 |  0.337047457121147 |  0.343977143007754
  1-occ =         0.0224255981829963 |  0.438921732796891 |  0.446768908721961
  1-occ =         -0.0869771711489556 |  0.338723152869966 |  0.346328066021894
  1-occ =         0.0264663563227222 |  0.437461143304878 |  0.445974917786253
  Roothaan mo_energy =
[-1.52365829e+03 -2.65095334e+02 -6.74657823e+01 -1.86974393e+01
 -5.38413786e+00 -1.66722858e+00 -5.93629205e-01 -1.55985206e-01
  2.80874142e-02  1.33770831e+00  7.05343130e+00  2.55610359e+01
  5.33241552e+02 -2.75632174e+02 -6.46721840e+01 -1.67523262e+01
 -4.53193344e+00 -1.37140619e+00 -4.46398655e-01 -8.69771711e-02
  2.64663563e-02  8.14887344e-01  5.37679106e+00  2.04702387e+01
  7.29279953e+01 -2.75621488e+02 -6.46299759e+01 -1.67081679e+01
 -4.51561262e+00 -1.36883783e+00 -4.48875546e-01 -9.03689601e-02
  2.24255982e-02  8.16170350e-01  5.39591810e+00  2.05126921e+01
  7.29762649e+01 -2.75632174e+02 -6.46721840e+01 -1.67523262e+01
 -4.53193344e+00 -1.37140619e+00 -4.46398655e-01 -8.69771711e-02
  2.64663563e-02  8.14887344e-01  5.37679106e+00  2.04702387e+01
  7.29279953e+01 -5.38442202e+01 -1.21602179e+01 -2.76853671e+00
 -8.07449648e-01 -1.91668441e-01  8.75877734e-02  1.36267548e+00
  6.33450576e+00  2.05873333e+01  5.39795731e+01 -5.38283233e+01
 -1.21490271e+01 -2.75933584e+00 -8.07857673e-01 -1.96323569e-01
  8.41609144e-02  1.36645914e+00  6.34935678e+00  2.06180757e+01
  5.40171233e+01 -5.38223570e+01 -1.21412430e+01 -2.80788147e+00
 -8.15803803e-01 -1.99897285e-01  8.11034377e-02  1.36080811e+00
  6.35099676e+00  2.06250275e+01  5.40243017e+01 -5.38283233e+01
 -1.21490271e+01 -2.75933584e+00 -8.07857673e-01 -1.96323569e-01
  8.41609144e-02  1.36645914e+00  6.34935678e+00  2.06180757e+01
  5.40171233e+01 -5.38463215e+01 -1.21628490e+01 -2.81886810e+00
 -8.25787376e-01 -2.32689650e-01  8.83325339e-02  1.35786093e+00
  6.33320618e+00  2.05885768e+01  5.39800480e+01 -5.45814836e+00
 -1.19433235e+00 -2.83347116e-01  3.15940611e-02  9.13380204e-01
  4.29185361e+00  1.31805250e+01  3.25354422e+01  7.52059081e+01
 -5.58225604e+00 -1.19113147e+00 -2.84104191e-01  2.98284488e-02
  9.12244189e-01  4.29484815e+00  1.31910826e+01  3.25588113e+01
  7.52347725e+01 -5.56804361e+00 -1.19117659e+00 -2.85509908e-01
  2.80622391e-02  9.13648861e-01  4.30209681e+00  1.32042836e+01
  3.25752984e+01  7.52502970e+01 -5.56506826e+00 -1.19146517e+00
 -2.85926870e-01  2.75377864e-02  9.13799847e-01  4.30417521e+00
  1.32082689e+01  3.25802292e+01  7.52549043e+01 -5.56804361e+00
 -1.19117659e+00 -2.85509908e-01  2.80622391e-02  9.13648861e-01
  4.30209681e+00  1.32042836e+01  3.25752984e+01  7.52502970e+01
 -5.58121772e+00 -1.19265472e+00 -2.85179637e-01  2.90357127e-02
  9.13347469e-01  4.29674978e+00  1.31939352e+01  3.25609644e+01
  7.52355794e+01 -5.45814836e+00 -1.19433235e+00 -2.83347116e-01
  3.15940611e-02  9.13380204e-01  4.29185361e+00  1.31805250e+01
  3.25354422e+01  7.52059081e+01 -2.71644903e-01  1.89486281e-01
  1.39974654e+00  5.22642563e+00  1.45936695e+01  3.58408718e+01
  8.84602429e+01 -2.73431688e-01  1.86951620e-01  1.39994923e+00
  5.22741116e+00  1.46002896e+01  3.58596810e+01  8.84865288e+01
 -2.74621386e-01  1.85000430e-01  1.40105631e+00  5.23177383e+00
  1.46090673e+01  3.58741716e+01  8.85037509e+01 -2.74082182e-01
  1.85473487e-01  1.40372468e+00  5.23830839e+00  1.46176456e+01
  3.58846312e+01  8.85148842e+01 -2.74064044e-01  1.85388429e-01
  1.40441542e+00  5.24022225e+00  1.46202714e+01  3.58878460e+01
  8.85182960e+01 -2.74082182e-01  1.85473487e-01  1.40372468e+00
  5.23830839e+00  1.46176456e+01  3.58846312e+01  8.85148842e+01
 -2.73390710e-01  1.86717294e-01  1.40279293e+00  5.23467991e+00
  1.46114542e+01  3.58759224e+01  8.85051880e+01 -2.73431688e-01
  1.86951620e-01  1.39994923e+00  5.22741116e+00  1.46002896e+01
  3.58596810e+01  8.84865288e+01 -2.71644903e-01  1.89486281e-01
  1.39974654e+00  5.22642563e+00  1.45936695e+01  3.58408718e+01
  8.84602429e+01  3.94931711e-01  4.19146280e+00  1.59192953e+01
  4.59382767e+01  3.92135107e-01  4.19276264e+00  1.59294902e+01
  4.59599489e+01  3.90407194e-01  4.19593923e+00  1.59392992e+01
  4.59764978e+01  3.88588566e-01  4.19795562e+00  1.59457642e+01
  4.59873057e+01  3.88912280e-01  4.20192365e+00  1.59524907e+01
  4.59950876e+01  3.88761436e-01  4.20284995e+00  1.59542867e+01
  4.59973874e+01  3.88912280e-01  4.20192365e+00  1.59524907e+01
  4.59950876e+01  3.90237137e-01  4.20081064e+00  1.59488324e+01
  4.59890072e+01  3.90407194e-01  4.19593923e+00  1.59392992e+01
  4.59764978e+01  3.92135107e-01  4.19276264e+00  1.59294902e+01
  4.59599489e+01  3.94931711e-01  4.19146280e+00  1.59192953e+01
  4.59382767e+01  8.84846372e+00  8.84954266e+00  8.85261811e+00
  8.85640544e+00  8.85804017e+00  8.86225832e+00  8.86310575e+00
  8.86225832e+00  8.86170201e+00  8.85640544e+00  8.85261811e+00
  8.84954266e+00  8.84846372e+00]
    CPU time for vj and vk    451.52 sec, wall time     40.31 sec
E1 = -14336.81665997675  Ecoul = 4085.510741733873
cycle= 3 E= -10251.3059182429  delta_E= -28.5  |g|= 15.3  |ddm|=  178
    CPU time for cycle= 3    452.54 sec, wall time     40.43 sec
HOMO (d+0) = -3.36108641262267  LUMO (f-3) = -5.47001526608319
double occ irrep_nelec = [4, 3, 3, 3, 2, 2, 2, 2, 2, 0, 1, 1, 1, 1, 1, 0, 0, 0, 0, 0, 0, 0, 0, 0, 0, 0, 0, 0, 0, 0, 0, 0, 0, 0, 0, 0, 0, 0, 0, 0, 0, 0, 0, 0, 0, 0, 0, 0, 0]
single occ irrep_nelec = [1, 1, 1, 1, 1, 1, 1, 0, 1, 0, 0, 0, 0, 0, 0, 0, 0, 0, 0, 0, 0, 0, 0, 0, 0, 0, 0, 0, 0, 0, 0, 0, 0, 0, 0, 0, 0, 0, 0, 0, 0, 0, 0, 0, 0, 0, 0, 0, 0]
                  Roothaan           | alpha              | beta
  Highest 2-occ =  -6.06650210960335 |  -0.82083165700084 |  -0.81793512704286
  Lowest 0-occ =   -5.47001526608319 |  -1.05416598998182 |  -1.04696598587927
  1-occ =          -5.61612356958601 |  -2.61737673381571 |  -2.60583201042372
  1-occ =          -4.92483855450896 |   -2.1299422878114 |   -2.1203792602948
  1-occ =          -4.80106794900732 |  -1.98900991959647 |  -1.97950116550343
  1-occ =          -4.92483855450896 |  -2.12994228781138 |  -2.12037926029478
  1-occ =          -3.49798041915158 |  -1.12454132672323 |  -1.11741147952138
  1-occ =          -3.42767800804337 |  -1.05416598998183 |  -1.04696598587928
  1-occ =          -3.36108641262267 |  -1.07825686747637 |  -1.07092964773824
  1-occ =          -3.44990419821598 |  -1.16760540194008 |  -1.16036550902554
  Roothaan mo_energy =
[-1.52298808e+03 -2.64493946e+02 -6.70072267e+01 -1.87343397e+01
 -5.61612357e+00 -2.25750103e+00 -9.74760395e-01 -3.93773691e-01
 -1.19767842e-01  8.30153151e-01  6.53698054e+00  2.53813698e+01
  5.33606437e+02 -2.75017296e+02 -6.42610109e+01 -1.68866693e+01
 -4.92483855e+00 -1.96671087e+00 -8.05534799e-01 -2.99000256e-01
 -6.82347767e-02  3.56832242e-01  4.78949443e+00  2.01967231e+01
  7.31352437e+01 -2.74963473e+02 -6.40325776e+01 -1.66214518e+01
 -4.80106795e+00 -1.91849217e+00 -7.86901129e-01 -2.92851703e-01
 -6.82134923e-02  3.89289606e-01  4.93575222e+00  2.04711639e+01
  7.34122101e+01 -2.75017296e+02 -6.42610109e+01 -1.68866693e+01
 -4.92483855e+00 -1.96671087e+00 -8.05534799e-01 -2.99000256e-01
 -6.82347767e-02  3.56832242e-01  4.78949443e+00  2.01967231e+01
  7.31352437e+01 -5.34128522e+01 -1.23485908e+01 -3.49798042e+00
 -1.38406679e+00 -5.05702841e-01 -1.20969597e-01  7.72641355e-01
  5.68769610e+00  2.02227657e+01  5.40077116e+01 -5.33223575e+01
 -1.22881630e+01 -3.42767801e+00 -1.35844281e+00 -4.96825648e-01
 -1.18706247e-01  8.11655072e-01  5.79907549e+00  2.04237555e+01
  5.42303780e+01 -5.32775542e+01 -1.22248756e+01 -3.36108641e+00
 -1.34092000e+00 -4.91518498e-01 -1.17105148e-01  8.28771007e-01
  5.82611765e+00  2.04600030e+01  5.42696375e+01 -5.33223575e+01
 -1.22881630e+01 -3.42767801e+00 -1.35844281e+00 -4.96825648e-01
 -1.18706247e-01  8.11655072e-01  5.79907549e+00  2.04237555e+01
  5.42303780e+01 -5.34107529e+01 -1.23458480e+01 -3.44990420e+00
 -1.37629619e+00 -5.19205894e-01 -1.25509829e-01  7.81109247e-01
  5.69124661e+00  2.02218951e+01  5.40072964e+01 -5.47001527e+00
 -1.92866712e+00 -7.27405770e-01 -1.78964127e-01  3.92505221e-01
  3.67167700e+00  1.27149131e+01  3.23275171e+01  7.53162305e+01
 -6.15646753e+00 -1.92445745e+00 -7.23998192e-01 -1.77488942e-01
  4.00227692e-01  3.71495750e+00  1.28240255e+01  3.25015685e+01
  7.54927862e+01 -6.08075884e+00 -1.90142805e+00 -7.16137819e-01
 -1.75778953e-01  4.14153030e-01  3.75295997e+00  1.28851785e+01
  3.25835783e+01  7.55747886e+01 -6.06650211e+00 -1.89494964e+00
 -7.13976069e-01 -1.75243902e-01  4.17895603e-01  3.76310286e+00
  1.29017995e+01  3.26067219e+01  7.55987122e+01 -6.08075884e+00
 -1.90142805e+00 -7.16137819e-01 -1.75778953e-01  4.14153030e-01
  3.75295997e+00  1.28851785e+01  3.25835783e+01  7.55747886e+01
 -6.15738576e+00 -1.92280428e+00 -7.23776964e-01 -1.78395210e-01
  4.00943522e-01  3.71384262e+00  1.28212884e+01  3.24993861e+01
  7.54919512e+01 -5.47001527e+00 -1.92866712e+00 -7.27405770e-01
 -1.78964127e-01  3.92505221e-01  3.67167700e+00  1.27149131e+01
  3.23275171e+01  7.53162305e+01 -9.68535811e-01 -2.75563980e-01
  6.69815846e-01  4.50359185e+00  1.41356211e+01  3.56741963e+01
  8.85872178e+01 -9.54529795e-01 -2.70488008e-01  6.87068660e-01
  4.53938222e+00  1.42115137e+01  3.58138357e+01  8.87502381e+01
 -9.44658391e-01 -2.66635138e-01  7.02367946e-01  4.57632287e+00
  1.42760152e+01  3.59070815e+01  8.88498658e+01 -9.39569179e-01
 -2.64027296e-01  7.11154401e-01  4.59711857e+00  1.43125398e+01
  3.59569523e+01  8.89016696e+01 -9.37884214e-01 -2.63254096e-01
  7.14119918e-01  4.60433733e+00  1.43247023e+01  3.59729402e+01
  8.89180917e+01 -9.39569179e-01 -2.64027296e-01  7.11154401e-01
  4.59711857e+00  1.43125398e+01  3.59569523e+01  8.89016696e+01
 -9.45167038e-01 -2.66218639e-01  7.01710140e-01  4.57354683e+00
  1.42735680e+01  3.59052738e+01  8.88483484e+01 -9.54529795e-01
 -2.70488008e-01  6.87068660e-01  4.53938222e+00  1.42115137e+01
  3.58138357e+01  8.87502381e+01 -9.68535811e-01 -2.75563980e-01
  6.69815846e-01  4.50359185e+00  1.41356211e+01  3.56741963e+01
  8.85872178e+01 -1.10615308e-01  3.20303473e+00  1.52923506e+01
  4.57989279e+01 -1.07908640e-01  3.24571342e+00  1.53910821e+01
  4.59480226e+01 -1.06156835e-01  3.27344973e+00  1.54585180e+01
  4.60496770e+01 -1.05286940e-01  3.29180534e+00  1.55031444e+01
  4.61157424e+01 -1.04519231e-01  3.29946157e+00  1.55252325e+01
  4.61510244e+01 -1.04341190e-01  3.30229476e+00  1.55327785e+01
  4.61626057e+01 -1.04519231e-01  3.29946157e+00  1.55252325e+01
  4.61510244e+01 -1.04890330e-01  3.28901014e+00  1.54999154e+01
  4.61139404e+01 -1.06156835e-01  3.27344973e+00  1.54585180e+01
  4.60496770e+01 -1.07908640e-01  3.24571342e+00  1.53910821e+01
  4.59480226e+01 -1.10615308e-01  3.20303473e+00  1.52923506e+01
  4.57989279e+01  7.83597165e+00  7.88521626e+00  7.91861028e+00
  7.94055649e+00  7.95605787e+00  7.96157528e+00  7.96391053e+00
  7.96157528e+00  7.95231276e+00  7.94055649e+00  7.91861028e+00
  7.88521626e+00  7.83597165e+00]
    CPU time for vj and vk    458.57 sec, wall time     37.07 sec
E1 = -14606.338064817806  Ecoul = 4347.392210236045
cycle= 4 E= -10258.9458545818  delta_E= -7.64  |g|= 13.3  |ddm|=  178
    CPU time for cycle= 4    459.51 sec, wall time     37.25 sec
HOMO (p+0) = -0.0261410084099947  LUMO (f+0) = -3.12932807246305
double occ irrep_nelec = [5, 3, 3, 3, 2, 2, 2, 2, 2, 0, 1, 1, 0, 1, 1, 0, 0, 0, 0, 0, 0, 0, 0, 0, 0, 0, 0, 0, 0, 0, 0, 0, 0, 0, 0, 0, 0, 0, 0, 0, 0, 0, 0, 0, 0, 0, 0, 0, 0]
single occ irrep_nelec = [1, 2, 2, 2, 1, 0, 0, 0, 0, 0, 0, 0, 0, 0, 0, 0, 0, 0, 0, 0, 0, 0, 0, 0, 0, 0, 0, 0, 0, 0, 0, 0, 0, 0, 0, 0, 0, 0, 0, 0, 0, 0, 0, 0, 0, 0, 0, 0, 0]
                  Roothaan           | alpha              | beta
  Highest 2-occ =  -3.13759921937108 |   3.33812118382945 |   3.47068744657462
  Lowest 0-occ =   -3.12932807246305 |  0.404692690436423 |  0.425517483447653
  1-occ =         -0.0616248372079158 |  0.244935224736318 |  0.254267346147557
  1-occ =          -2.87194721780931 |  0.202252004456801 |   1.51684008613538
  1-occ =         -0.0263110330579955 |  0.159638507740047 |  0.165614252946795
  1-occ =          -2.75283891502925 |  0.355799705893157 |   1.55905486256599
  1-occ =         -0.0261410084099947 |  0.159245835825652 |  0.164823206298854
  1-occ =          -2.87720992137915 |  0.242733919547577 |   1.46230174169409
  1-occ =         -0.0272031072671705 |  0.159574739877534 |  0.165075837351466
  1-occ =         -0.0374381710975821 |  0.398785734090494 |  0.418734827103042
  Roothaan mo_energy =
[-1.51945634e+03 -2.61058611e+02 -6.36882675e+01 -1.56356976e+01
 -3.52129087e+00 -9.21997512e-01 -2.72274236e-01 -6.16248372e-02
  2.34903055e-01  2.24829461e+00  8.83421584e+00  2.82297246e+01
  5.36885496e+02 -2.71547814e+02 -6.09260187e+01 -1.37876985e+01
 -2.87194722e+00 -7.11524863e-01 -1.85719559e-01 -2.63110331e-02
  1.60309543e-01  1.57143908e+00  7.01818963e+00  2.30365322e+01
  7.63406592e+01 -2.71494504e+02 -6.06945309e+01 -1.35168226e+01
 -2.75283892e+00 -6.90747087e-01 -1.79792038e-01 -2.61410084e-02
  1.70494892e-01  1.62910314e+00  7.17627264e+00  2.33222930e+01
  7.66241661e+01 -2.71549890e+02 -6.09340207e+01 -1.38038408e+01
 -2.87720992e+00 -7.20939858e-01 -1.88833831e-01 -2.72031073e-02
  1.55765389e-01  1.55583140e+00  6.99619857e+00  2.30172622e+01
  7.63288172e+01 -5.00629036e+01 -9.27941579e+00 -1.58839288e+00
 -3.69897583e-01 -3.74381711e-02  3.70184691e-01  2.29754658e+00
  8.05206502e+00  2.30852468e+01  5.71509644e+01 -4.99672566e+01
 -9.21696477e+00 -1.52484244e+00 -3.57191970e-01 -3.44886815e-02
  3.88940147e-01  2.36296172e+00  8.18664843e+00  2.33092263e+01
  5.73909619e+01 -4.99234350e+01 -9.15520779e+00 -1.48619241e+00
 -3.48690457e-01 -3.19755217e-02  4.02174797e-01  2.39423555e+00
  8.21319786e+00  2.33417567e+01  5.74272895e+01 -4.99683558e+01
 -9.22303382e+00 -1.42439017e+00 -3.45719703e-01 -3.14274529e-02
  3.98428854e-01  2.36281136e+00  8.17023212e+00  2.32933919e+01
  5.73806701e+01 -5.00602650e+01 -9.27587329e+00 -1.55598714e+00
 -3.73407200e-01 -4.50260312e-02  3.82892921e-01  2.31995382e+00
  8.05899033e+00  2.30846213e+01  5.71506638e+01 -2.48676870e+00
 -3.93323367e-01 -2.57367107e-02  3.35089935e-01  1.84747417e+00
  5.92050100e+00  1.54548130e+01  3.53334456e+01  7.85172271e+01
 -3.22167664e+00 -3.94751829e-01 -2.60309631e-02  3.32273861e-01
  1.85092505e+00  5.96320584e+00  1.55707305e+01  3.55179331e+01
  7.87022990e+01 -3.13759922e+00 -3.84712834e-01 -2.38192171e-02
  3.42153006e-01  1.88062208e+00  6.01863439e+00  1.56479266e+01
  3.56131949e+01  7.87927685e+01 -3.12932807e+00 -3.84761774e-01
 -2.39475035e-02  3.42914355e-01  1.88348106e+00  6.02343906e+00
  1.56581641e+01  3.56314398e+01  7.88137198e+01 -3.15000110e+00
 -3.88696578e-01 -2.49644813e-02  3.39600121e-01  1.87268941e+00
  6.00204132e+00  1.56299856e+01  3.55990048e+01  7.87840904e+01
 -3.22253896e+00 -3.94855334e-01 -2.69188676e-02  3.33251825e-01
  1.85218977e+00  5.96227884e+00  1.55675900e+01  3.55154324e+01
  7.87013808e+01 -2.48676870e+00 -3.93323367e-01 -2.57367107e-02
  3.35089935e-01  1.84747417e+00  5.92050100e+00  1.54548130e+01
  3.53334456e+01  7.85172271e+01  6.65107302e-02  6.44195432e-01
  2.45427929e+00  6.97597759e+00  1.69838514e+01  3.87478835e+01
  9.18166502e+01  6.79615301e-02  6.51471379e-01  2.47493094e+00
  7.00690996e+00  1.70629414e+01  3.88957004e+01  9.19859904e+01
  6.90675520e-02  6.57158883e-01  2.49543207e+00  7.04747993e+00
  1.71332528e+01  3.89953357e+01  9.20901838e+01  7.21057164e-02
  6.64547155e-01  2.51550378e+00  7.08262101e+00  1.71822458e+01
  3.90557529e+01  9.21495761e+01  7.03583333e-02  6.61626748e-01
  2.51199174e+00  7.08100525e+00  1.71876149e+01  3.90663543e+01
  9.21619532e+01  6.80153695e-02  6.56432690e-01  2.49984696e+00
  7.06165895e+00  1.71655542e+01  3.90422902e+01  9.21396189e+01
  6.93798524e-02  6.56979142e-01  2.49422328e+00  7.04422313e+00
  1.71304332e+01  3.89932769e+01  9.20884164e+01  6.79615301e-02
  6.51471379e-01  2.47493094e+00  7.00690996e+00  1.70629414e+01
  3.88957004e+01  9.19859904e+01  6.65107302e-02  6.44195432e-01
  2.45427929e+00  6.97597759e+00  1.69838514e+01  3.87478835e+01
  9.18166502e+01  6.80226358e-01  5.46402196e+00  1.81537165e+01
  4.89230778e+01  6.81636855e-01  5.50328345e+00  1.82555820e+01
  4.90800218e+01  6.83043392e-01  5.53133167e+00  1.83273985e+01
  4.91877311e+01  6.84068001e-01  5.55169665e+00  1.83764052e+01
  4.92583001e+01  6.87695309e-01  5.57216466e+00  1.84110794e+01
  4.93025457e+01  6.85266205e-01  5.56442984e+00  1.84097075e+01
  4.93085829e+01  6.82295824e-01  5.54965339e+00  1.83911920e+01
  4.92896680e+01  6.84371266e-01  5.54853391e+00  1.83726981e+01
  4.92562289e+01  6.83043392e-01  5.53133167e+00  1.83273985e+01
  4.91877311e+01  6.81636855e-01  5.50328345e+00  1.82555820e+01
  4.90800218e+01  6.80226358e-01  5.46402196e+00  1.81537165e+01
  4.89230778e+01  1.02461907e+01  1.02924235e+01  1.03260251e+01
  1.03498442e+01  1.03678601e+01  1.03876483e+01  1.03778654e+01
  1.03621199e+01  1.03636363e+01  1.03498442e+01  1.03260251e+01
  1.02924235e+01  1.02461907e+01]
    CPU time for vj and vk    456.01 sec, wall time     42.41 sec
E1 = -14286.234036843372  Ecoul = 4018.150093348106
cycle= 5 E= -10268.0839434953  delta_E= -9.14  |g|= 5.15  |ddm|= 26.6
    CPU time for cycle= 5    456.92 sec, wall time     42.56 sec
HOMO (d+0) = -1.30828887291486  LUMO (f-3) = -2.07693570943908
double occ irrep_nelec = [5, 3, 3, 3, 2, 2, 2, 2, 2, 0, 1, 1, 0, 1, 1, 0, 0, 0, 0, 0, 0, 0, 0, 0, 0, 0, 0, 0, 0, 0, 0, 0, 0, 0, 0, 0, 0, 0, 0, 0, 0, 0, 0, 0, 0, 0, 0, 0, 0]
single occ irrep_nelec = [0, 1, 1, 1, 1, 1, 1, 1, 1, 0, 0, 0, 0, 0, 0, 0, 0, 0, 0, 0, 0, 0, 0, 0, 0, 0, 0, 0, 0, 0, 0, 0, 0, 0, 0, 0, 0, 0, 0, 0, 0, 0, 0, 0, 0, 0, 0, 0, 0]
                  Roothaan           | alpha              | beta
  Highest 2-occ =  -2.92413225088661 |  -1.32775421443308 |  -1.28117398012488
  Lowest 0-occ =   -2.07693570943908 | -0.600366944792928 | -0.557452107065528
  1-occ =          -2.77932733775538 |  -2.27767824868313 |  -1.51431750798647
  1-occ =          -2.71020515946852 |  -2.18882409805454 |  -1.43590035619934
  1-occ =          -2.77829874315593 |  -2.27770641262193 |  -1.51419043769693
  1-occ =          -1.34551133931803 | -0.847968766594563 | -0.649378369290684
  1-occ =           -1.3149917118159 | -0.811992335006447 | -0.621423339913712
  1-occ =          -1.30828887291486 | -0.808997368044071 |   -0.6189646135234
  1-occ =          -1.32748682401866 | -0.805661615510282 | -0.612952755423386
  1-occ =          -1.34460171787522 |  -0.84836849078323 | -0.655828425844438
  Roothaan mo_energy =
[-1.51807058e+03 -2.59922186e+02 -6.28315839e+01 -1.50995471e+01
 -3.72726258e+00 -9.07563957e-01 -2.87679066e-01 -1.03047958e-01
  2.56295850e-01  2.34686977e+00  9.11464209e+00  2.87082832e+01
  5.37761034e+02 -2.70326645e+02 -6.00001355e+01 -1.32064718e+01
 -2.77932734e+00 -7.09755319e-01 -1.97815009e-01 -6.09889211e-02
  1.59796234e-01  1.65504148e+00  7.28909516e+00  2.35508901e+01
  7.71626599e+01 -2.70300280e+02 -5.98824242e+01 -1.30528468e+01
 -2.71020516e+00 -6.96607765e-01 -1.94747648e-01 -6.48900629e-02
  1.62807495e-01  1.69901095e+00  7.39453356e+00  2.37164558e+01
  7.73127946e+01 -2.70326495e+02 -5.99993055e+01 -1.32036468e+01
 -2.77829874e+00 -7.08313184e-01 -1.97130033e-01 -6.07504989e-02
  1.60147066e-01  1.65763816e+00  7.29284095e+00  2.35540539e+01
  7.71642954e+01 -4.90912932e+01 -8.70844013e+00 -1.34551134e+00
 -3.67858466e-01 -1.13532527e-01  3.83297305e-01  2.44647298e+00
  8.38053806e+00  2.36219353e+01  5.79161842e+01 -4.90537713e+01
 -8.71399163e+00 -1.31499171e+00 -3.66087837e-01 -5.07385724e-02
  3.98804179e-01  2.49047595e+00  8.47135468e+00  2.37700148e+01
  5.80691867e+01 -4.90121892e+01 -8.60351026e+00 -1.30828887e+00
 -3.66076365e-01 -5.25971263e-02  3.99573512e-01  2.49134350e+00
  8.46046278e+00  2.37372239e+01  5.80314680e+01 -4.90533794e+01
 -8.71166402e+00 -1.32748682e+00 -3.68565417e-01 -5.15753340e-02
  3.96067126e-01  2.48986202e+00  8.47443666e+00  2.37729238e+01
  5.80709448e+01 -4.90905755e+01 -8.70785365e+00 -1.34460172e+00
 -3.73426473e-01 -4.98668933e-02  3.90636129e-01  2.44937374e+00
  8.38086813e+00  2.36215693e+01  5.79161175e+01 -2.07693571e+00
 -3.84142361e-01 -4.79542019e-02  3.58422938e-01  1.97988315e+00
  6.21388311e+00  1.59303556e+01  3.59651555e+01  7.93373094e+01
 -2.92413225e+00 -3.90502592e-01 -5.23953167e-02  3.50139461e-01
  1.97726735e+00  6.24403205e+00  1.60141417e+01  3.60967570e+01
  7.94640534e+01 -2.95357464e+00 -3.91078887e-01 -5.25925693e-02
  3.49689031e-01  1.98034656e+00  6.24956195e+00  1.60257476e+01
  3.61158272e+01  7.94856248e+01 -1.68666808e+00 -3.64385923e-01
 -4.29879718e-02  3.86485606e-01  2.05377245e+00  6.32697354e+00
  1.60725860e+01  3.61244853e+01  7.94784618e+01 -2.95188231e+00
 -3.90385876e-01 -5.23582915e-02  3.50159269e-01  1.98166880e+00
  6.25230403e+00  1.60286643e+01  3.61180629e+01  7.94869161e+01
 -2.92462892e+00 -3.91842606e-01 -5.04248858e-02  3.49276301e-01
  1.97728245e+00  6.24331825e+00  1.60132475e+01  3.60961610e+01
  7.94638698e+01 -2.07693571e+00 -3.84142361e-01 -4.79542019e-02
  3.58422938e-01  1.97988315e+00  6.21388311e+00  1.59303556e+01
  3.59651555e+01  7.93373094e+01  2.15161587e-02  6.39591091e-01
  2.59250193e+00  7.28479404e+00  1.74596839e+01  3.93914763e+01
  9.26435197e+01  1.93348397e-02  6.43363547e-01  2.60395288e+00
  7.30003527e+00  1.75123125e+01  3.94960453e+01  9.27602278e+01
  1.87503641e-02  6.45526158e-01  2.60837251e+00  7.30226815e+00
  1.75275611e+01  3.95340775e+01  9.28073994e+01  1.64491624e-02
  6.46193950e-01  2.62512993e+00  7.34573342e+00  1.75737969e+01
  3.95581360e+01  9.28151818e+01  1.64986317e-02  6.47930342e-01
  2.63688464e+00  7.37489990e+00  1.76026654e+01  3.95698610e+01
  9.28148769e+01  1.70977402e-02  6.47561624e-01  2.62780818e+00
  7.34918013e+00  1.75765806e+01  3.95601943e+01  9.28163936e+01
  1.65992404e-02  6.44037905e-01  2.60766621e+00  7.30127664e+00
  1.75268624e+01  3.95336124e+01  9.28070436e+01  1.93348397e-02
  6.43363547e-01  2.60395288e+00  7.30003527e+00  1.75123125e+01
  3.94960453e+01  9.27602278e+01  2.15161587e-02  6.39591091e-01
  2.59250193e+00  7.28479404e+00  1.74596839e+01  3.93914763e+01
  9.26435197e+01  6.33275947e-01  5.65420625e+00  1.86003496e+01
  4.95932471e+01  6.32991530e-01  5.69045102e+00  1.86811884e+01
  4.97087317e+01  6.32522809e-01  5.71026683e+00  1.87224755e+01
  4.97692543e+01  6.32812266e-01  5.71999818e+00  1.87425375e+01
  4.97926834e+01  6.31026079e-01  5.72100466e+00  1.87487633e+01
  4.97962297e+01  6.31286877e-01  5.72369478e+00  1.87526975e+01
  4.97970866e+01  6.31913731e-01  5.72482966e+00  1.87521327e+01
  4.97981255e+01  6.31078080e-01  5.71897954e+00  1.87416945e+01
  4.97922664e+01  6.32522809e-01  5.71026683e+00  1.87224755e+01
  4.97692543e+01  6.32991530e-01  5.69045102e+00  1.86811884e+01
  4.97087317e+01  6.33275947e-01  5.65420625e+00  1.86003496e+01
  4.95932471e+01  1.04757064e+01  1.05200943e+01  1.05494937e+01
  1.05637150e+01  1.05680013e+01  1.05643985e+01  1.05657173e+01
  1.05687448e+01  1.05668652e+01  1.05637150e+01  1.05494937e+01
  1.05200943e+01  1.04757064e+01]
    CPU time for vj and vk    435.84 sec, wall time     37.52 sec
E1 = -14410.738997755756  Ecoul = 4140.492263588563
cycle= 6 E= -10270.2467341672  delta_E= -2.16  |g|=  4.2  |ddm|= 25.8
    CPU time for cycle= 6    436.79 sec, wall time     37.64 sec
HOMO (p+0) = -0.0229957403919999  LUMO (f-3) = -0.919696576929401
double occ irrep_nelec = [5, 3, 3, 3, 2, 2, 2, 2, 2, 0, 1, 1, 0, 1, 1, 0, 0, 0, 0, 0, 0, 0, 0, 0, 0, 0, 0, 0, 0, 0, 0, 0, 0, 0, 0, 0, 0, 0, 0, 0, 0, 0, 0, 0, 0, 0, 0, 0, 0]
single occ irrep_nelec = [1, 2, 2, 2, 1, 0, 0, 0, 0, 0, 0, 0, 0, 0, 0, 0, 0, 0, 0, 0, 0, 0, 0, 0, 0, 0, 0, 0, 0, 0, 0, 0, 0, 0, 0, 0, 0, 0, 0, 0, 0, 0, 0, 0, 0, 0, 0, 0, 0]
                  Roothaan           | alpha              | beta
  Highest 2-occ =  -1.76301801590932 |  0.730660474394199 |  0.827279752799624
  Lowest 0-occ =  -0.919696576929401 |  0.215398967107299 |  0.238610994363246
  1-occ =         -0.0547078778115766 |   0.10556831151568 |  0.114214979992652
  1-occ =          -1.76062423954596 | -0.686627146149253 |  0.366394647811403
  1-occ =         -0.0238782738923274 | 0.0849697334449016 | 0.0908568918627923
  1-occ =          -1.69230314285876 | -0.607216883423434 |  0.437504868066795
  1-occ =         -0.0229957403919999 | 0.0812291263608019 | 0.0865881906254911
  1-occ =          -1.75830595356669 | -0.687155658406392 |  0.366656163304444
  1-occ =         -0.0236025102448975 | 0.0846437363494054 | 0.0904785695578323
  1-occ =         -0.037069459491856 |  0.202227318469757 |  0.221901785937724
  Roothaan mo_energy =
[-1.51683628e+03 -2.58669212e+02 -6.15812338e+01 -1.38900448e+01
 -2.65081196e+00 -3.33821226e-01 -5.47078778e-02  7.67204495e-02
  7.13951472e-01  3.16128161e+00  1.01451410e+01  2.98553514e+01
  5.38990923e+02 -2.69076257e+02 -5.87499940e+01 -1.20017690e+01
 -1.76062424e+00 -2.09010331e-01 -2.38782739e-02  7.27082351e-02
  5.52076577e-01  2.43091937e+00  8.30145482e+00  2.46928816e+01
  7.83801193e+01 -2.69048995e+02 -5.86290476e+01 -1.18432579e+01
 -1.69230314e+00 -2.00387538e-01 -2.29957404e-02  7.59521554e-02
  5.73129898e-01  2.48971315e+00  8.41796074e+00  2.48658656e+01
  7.85346882e+01 -2.69075323e+02 -5.87463232e+01 -1.19940170e+01
 -1.75830595e+00 -2.06764699e-01 -2.36025102e-02  7.38298833e-02
  5.55623994e-01  2.43896618e+00  8.31194084e+00  2.47019387e+01
  7.83856249e+01 -4.78398174e+01 -7.51185172e+00 -5.81852885e-01
 -3.70694595e-02  1.71757530e-01  9.45570135e-01  3.33113358e+00
  9.44588270e+00  2.47822680e+01  5.91287282e+01 -4.78016469e+01
 -7.51762347e+00 -5.54793322e-01 -3.13794791e-02  1.86396386e-01
  9.73442588e-01  3.38121898e+00  9.54048682e+00  2.49324295e+01
  5.92825260e+01 -4.77594873e+01 -7.40345383e+00 -5.46444469e-01
 -3.12318538e-02  1.87623201e-01  9.77245546e-01  3.38280866e+00
  9.53042838e+00  2.49005397e+01  5.92459892e+01 -4.78010454e+01
 -7.51404088e+00 -5.83149323e-01 -3.37599882e-02  1.80741013e-01
  9.57470396e-01  3.37566778e+00  9.54794056e+00  2.49398803e+01
  5.92873643e+01 -4.78395984e+01 -7.51164777e+00 -5.82160886e-01
 -3.86588570e-02  1.82880819e-01  9.54193227e-01  3.33227266e+00
  9.44598962e+00  2.47821205e+01  5.91286922e+01 -9.19696577e-01
  4.17540760e-02  2.57047408e-01  9.64508974e-01  2.84826061e+00
  7.25209340e+00  1.70647818e+01  3.71519078e+01  8.05623363e+01
 -1.76301802e+00  4.09206897e-02  2.53542547e-01  9.53978113e-01
  2.84622814e+00  7.28705947e+00  1.71536553e+01  3.72868914e+01
  8.06908281e+01 -1.79696551e+00  4.02207601e-02  2.54146426e-01
  9.55565794e-01  2.84920829e+00  7.29024787e+00  1.71627362e+01
  3.73041702e+01  8.07116211e+01 -5.17141185e-01  4.50235039e-02
  2.75872333e-01  1.01659533e+00  2.93585126e+00  7.37313382e+00
  1.72119471e+01  3.73140713e+01  8.07052775e+01 -1.79137835e+00
  4.09740993e-02  2.55707446e-01  9.57373613e-01  2.85247166e+00
  7.29789183e+00  1.71711495e+01  3.73108267e+01  8.07156785e+01
 -1.76321818e+00  4.05150845e-02  2.54176189e-01  9.53574072e-01
  2.84632689e+00  7.28681230e+00  1.71533495e+01  3.72866893e+01
  8.06907642e+01 -9.19696577e-01  4.17540760e-02  2.57047408e-01
  9.64508974e-01  2.84826061e+00  7.25209340e+00  1.70647818e+01
  3.71519078e+01  8.05623363e+01  4.07330664e-01  1.28429779e+00
  3.54649570e+00  8.37328098e+00  1.86180688e+01  4.05939846e+01
  9.38779702e+01  4.08022791e-01  1.29265048e+00  3.56146780e+00
  8.39334678e+00  1.86753267e+01  4.07018894e+01  9.39965902e+01
  4.08595516e-01  1.29685805e+00  3.56738075e+00  8.39614372e+00
  1.86910313e+01  4.07407125e+01  9.40446030e+01  4.07684247e-01
  1.29776783e+00  3.58400109e+00  8.43858757e+00  1.87350581e+01
  4.07623928e+01  9.40507400e+01  4.08324735e-01  1.30100962e+00
  3.59909084e+00  8.47209794e+00  1.87665281e+01  4.07759040e+01
  9.40519492e+01  4.08961361e-01  1.30175624e+00  3.59146590e+00
  8.44852537e+00  1.87429163e+01  4.07686964e+01  9.40553405e+01
  4.07943904e-01  1.29652804e+00  3.56716508e+00  8.39580302e+00
  1.86907882e+01  4.07405514e+01  9.40444876e+01  4.08022791e-01
  1.29265048e+00  3.56146780e+00  8.39334678e+00  1.86753267e+01
  4.07018894e+01  9.39965902e+01  4.07330664e-01  1.28429779e+00
  3.54649570e+00  8.37328098e+00  1.86180688e+01  4.05939846e+01
  9.38779702e+01  1.13464112e+00  6.71272706e+00  1.97585095e+01
  5.08049255e+01  1.13800025e+00  6.75350278e+00  1.98435378e+01
  5.09229320e+01  1.13995702e+00  6.77539492e+00  1.98865340e+01
  5.09847647e+01  1.14109907e+00  6.78560030e+00  1.99067019e+01
  5.10082944e+01  1.14001684e+00  6.78380290e+00  1.99100731e+01
  5.10096766e+01  1.14126877e+00  6.78990398e+00  1.99169415e+01
  5.10124520e+01  1.14238705e+00  6.79436840e+00  1.99194945e+01
  5.10157104e+01  1.14065512e+00  6.78524027e+00  1.99064146e+01
  5.10081548e+01  1.13995702e+00  6.77539492e+00  1.98865340e+01
  5.09847647e+01  1.13800025e+00  6.75350278e+00  1.98435378e+01
  5.09229320e+01  1.13464112e+00  6.71272706e+00  1.97585095e+01
  5.08049255e+01  1.15671390e+01  1.16165428e+01  1.16486786e+01
  1.16639165e+01  1.16678627e+01  1.16604895e+01  1.16654862e+01
  1.16725017e+01  1.16674508e+01  1.16639165e+01  1.16486786e+01
  1.16165428e+01  1.15671390e+01]
    CPU time for vj and vk    443.98 sec, wall time     37.66 sec
E1 = -14242.997197779487  Ecoul = 3973.503320988837
cycle= 7 E= -10269.4938767906  delta_E= 0.753  |g|= 2.12  |ddm|=  6.7
    CPU time for cycle= 7    444.99 sec, wall time     37.81 sec
HOMO (d+1) = -0.814682434457502  LUMO (f+0) = -0.940017388090838
double occ irrep_nelec = [5, 4, 3, 4, 2, 2, 2, 2, 2, 0, 0, 1, 0, 1, 0, 0, 0, 0, 0, 0, 0, 0, 0, 0, 0, 0, 0, 0, 0, 0, 0, 0, 0, 0, 0, 0, 0, 0, 0, 0, 0, 0, 0, 0, 0, 0, 0, 0, 0]
single occ irrep_nelec = [0, 0, 1, 0, 1, 0, 0, 1, 1, 1, 1, 0, 0, 0, 1, 1, 0, 0, 0, 0, 0, 0, 0, 0, 0, 0, 0, 0, 0, 0, 0, 0, 0, 0, 0, 0, 0, 0, 0, 0, 0, 0, 0, 0, 0, 0, 0, 0, 0]
                  Roothaan           | alpha              | beta
  Highest 2-occ =  -2.08048028155185 |  -1.81541992595762 |  -1.67704230013268
  Lowest 0-occ =  -0.940017388090838 | -0.895005541614926 | -0.722706010263802
  1-occ =          -2.02216628539135 |  -2.31136885215967 |  -1.59811972774359
  1-occ =         -0.849517282465592 | -0.933227093979274 | -0.744770724448354
  1-occ =         -0.814682434457502 | -0.895123296887527 | -0.722273119446534
  1-occ =         -0.845818313231121 | -0.929643326604578 | -0.753087140377813
  1-occ =          -1.17434460547216 | -0.924582401303302 | -0.869145401861204
  1-occ =          -2.06466522070926 |  -1.80742478406094 |  -1.76022984094043
  1-occ =          -2.06465114817948 |  -1.80725822997404 |  -1.76072818741708
  1-occ =          -1.17434460547213 |  -0.92458240130326 | -0.869145401861176
  Roothaan mo_energy =
[-1.51689448e+03 -2.58708840e+02 -6.16071718e+01 -1.40286767e+01
 -2.95905890e+00 -5.73013241e-01 -1.87113216e-01  5.67268555e-02
  5.24740016e-01  2.86007955e+00  9.86753333e+00  2.96818168e+01
  5.38924193e+02 -2.69124389e+02 -5.87854642e+01 -1.21554870e+01
 -2.10675596e+00 -4.02321899e-01 -1.30518997e-01  6.91455439e-02
  3.87724993e-01  2.12911592e+00  8.00901797e+00  2.45039060e+01
  7.82966875e+01 -2.69091658e+02 -5.86391586e+01 -1.19665290e+01
 -2.02216629e+00 -3.89825420e-01 -1.25750108e-01  6.36205642e-02
  3.98852791e-01  2.18935392e+00  8.14399366e+00  2.47112154e+01
  7.84833449e+01 -2.69124106e+02 -5.87846804e+01 -1.21552464e+01
 -2.10683392e+00 -4.02318139e-01 -1.29876161e-01  6.86958199e-02
  3.88078924e-01  2.12963588e+00  8.00949004e+00  2.45044102e+01
  7.82973550e+01 -4.78793106e+01 -7.69072132e+00 -8.49517282e-01
 -2.47436770e-01  1.10408344e-01  7.21837573e-01  2.99002118e+00
  9.12882363e+00  2.45648147e+01  5.90088177e+01 -4.78269246e+01
 -7.68395203e+00 -8.12551699e-01 -1.31919329e-01  7.94274701e-02
  7.26085684e-01  3.04657884e+00  9.24422146e+00  2.47441701e+01
  5.91893690e+01 -4.77852454e+01 -7.57400798e+00 -8.06910973e-01
 -1.34063882e-01  7.82419534e-02  7.25734950e-01  3.04470285e+00
  9.23493706e+00  2.47204770e+01  5.91643821e+01 -4.78271486e+01
[...]
  4.22079307e+01  9.56021211e+01  7.13212837e-01  1.85972012e+00
  4.48023239e+00  9.57686165e+00  2.00437688e+01  4.21934962e+01
  9.55827563e+01  7.16622972e-01  1.86458294e+00  4.48357021e+00
  9.57382557e+00  2.00294114e+01  4.21695680e+01  9.55575729e+01
  7.12043704e-01  1.85644414e+00  4.47139797e+00  9.56132736e+00
  2.00253364e+01  4.21769068e+01  9.55699049e+01  7.09765559e-01
  1.85252320e+00  4.46897702e+00  9.56096521e+00  2.00192322e+01
  4.21613247e+01  9.55514706e+01  7.04725961e-01  1.84188023e+00
  4.45005638e+00  9.53560011e+00  1.99919161e+01  4.21346777e+01
  9.55290018e+01  1.55029741e+00  7.74570117e+00  2.11435666e+01
  5.24001750e+01  1.55860606e+00  7.76378809e+00  2.11650763e+01
  5.24221391e+01  1.56283986e+00  7.77461159e+00  2.11807264e+01
  5.24417418e+01  1.56461919e+00  7.78088677e+00  2.11915322e+01
  5.24552394e+01  1.55939843e+00  7.78447451e+00  2.12129540e+01
  5.24871290e+01  1.56527028e+00  7.78515844e+00  2.12000397e+01
  5.24648560e+01  1.57094696e+00  7.78381899e+00  2.11828846e+01
  5.24380348e+01  1.56461854e+00  7.78088386e+00  2.11915263e+01
  5.24552194e+01  1.56284072e+00  7.77461131e+00  2.11807260e+01
  5.24417435e+01  1.55860606e+00  7.76378809e+00  2.11650763e+01
  5.24221391e+01  1.55029741e+00  7.74570117e+00  2.11435666e+01
  5.24001750e+01  1.26772189e+01  1.26934247e+01  1.27069661e+01
  1.27158539e+01  1.27205678e+01  1.27268112e+01  1.27230041e+01
  1.27182282e+01  1.27205628e+01  1.27158556e+01  1.27069661e+01
  1.26934247e+01  1.26772189e+01]
    CPU time for vj and vk    444.12 sec, wall time     37.38 sec
E1 = -14313.050956303417  Ecoul = 4038.2917161728064
cycle= 91 E= -10274.7592401306  delta_E= 0.00031  |g|= 0.043  |ddm|= 0.0874
    CPU time for cycle= 91    444.98 sec, wall time     37.50 sec
HOMO (f+0) = 0.0210732463665849  LUMO (p-1) = 0.0153409411459741
double occ irrep_nelec = [5, 4, 4, 4, 2, 2, 2, 2, 2, 0, 0, 1, 0, 0, 0, 0, 0, 0, 0, 0, 0, 0, 0, 0, 0, 0, 0, 0, 0, 0, 0, 0, 0, 0, 0, 0, 0, 0, 0, 0, 0, 0, 0, 0, 0, 0, 0, 0, 0]
single occ irrep_nelec = [1, 0, 0, 0, 0, 0, 0, 1, 0, 1, 1, 0, 1, 1, 1, 1, 0, 0, 0, 0, 0, 0, 0, 0, 0, 0, 0, 0, 0, 0, 0, 0, 0, 0, 0, 0, 0, 0, 0, 0, 0, 0, 0, 0, 0, 0, 0, 0, 0]
                  Roothaan           | alpha              | beta
  Highest 2-occ = -0.505836079812483 | -0.606414275125492 | -0.418751506384275
  Lowest 0-occ =  0.0153409411459741 | 0.00798548209684411 | 0.0249389433271891
  1-occ =         -0.0668977466502629 | -0.153838741047897 | 0.0255877180364995
  1-occ =         0.0123400324031901 | -0.178883823370432 |  0.196726533005812
  1-occ =         -0.0386068238998377 | -0.729595330217826 |  0.642009804668397
  1-occ =         -0.010781583213761 | -0.697272570338025 |  0.665900885759689
  1-occ =         0.0210732463665849 | -0.668698510017813 |  0.701023459333504
  1-occ =         -0.0171996230137301 |  -0.69803959602378 |  0.653941717225156
  1-occ =         -0.0104075343604594 |  -0.69691960878481 |  0.667276969599839
  1-occ =         -0.039096807457549 | -0.727434360639974 |  0.642652251443164
  Roothaan mo_energy =
[-1.51511883e+03 -2.56998598e+02 -5.99592531e+01 -1.24219493e+01
 -1.67255397e+00 -6.68977467e-02  6.94454392e-02  3.50665956e-01
  1.24415626e+00  3.98814708e+00  1.12646079e+01  3.12136878e+01
  5.40581609e+02 -2.67383468e+02 -5.70762268e+01 -1.04822461e+01
 -1.00614195e+00  1.53409411e-02  7.67071244e-02  2.95178189e-01
  1.04486779e+00  3.22920817e+00  9.43125739e+00  2.61116953e+01
  7.99908095e+01 -2.67380207e+02 -5.70619859e+01 -1.04589291e+01
 -9.90889303e-01  1.80278162e-02  8.15293212e-02  3.05853370e-01
  1.06617889e+00  3.25879309e+00  9.46253328e+00  2.61406803e+01
  8.00111145e+01 -2.67392646e+02 -5.71181544e+01 -1.05346906e+01
 -1.02637837e+00  1.72431622e-02  7.95215158e-02  3.00021115e-01
  1.04988595e+00  3.22497294e+00  9.40275699e+00  2.60563425e+01
  7.99380299e+01 -4.61869394e+01 -6.07071031e+00  8.41026548e-02
  1.96429334e-01  5.52680825e-01  1.56339719e+00  4.22383911e+00
  1.06239232e+01  2.62000242e+01  6.07039593e+01 -4.61639215e+01
 -6.05448779e+00  8.64858551e-02  2.02219214e-01  5.60469279e-01
  1.57813122e+00  4.25147762e+00  1.06686935e+01  2.62629504e+01
  6.07650599e+01 -4.61666959e+01 -6.05120777e+00  9.05904637e-02
  2.08567603e-01  5.65959103e-01  1.58352796e+00  4.25416779e+00
  1.06658088e+01  2.62534133e+01  6.07539336e+01 -4.61801300e+01
 -6.05502817e+00  1.23400324e-02  1.48504901e-01  5.40697174e-01
  1.57487783e+00  4.24571104e+00  1.06450674e+01  2.62155558e+01
  6.07138841e+01 -4.61869288e+01 -6.07067304e+00  8.40856381e-02
  1.96396575e-01  5.52696389e-01  1.56342100e+00  4.22384775e+00
  1.06239206e+01  2.62000005e+01  6.07039319e+01 -3.86068239e-02
  2.03807108e-01  6.24740599e-01  1.58743017e+00  3.72257971e+00
  8.37853956e+00  1.84129561e+01  3.86632650e+01  8.21850645e+01
 -1.07815832e-02  2.06175299e-01  6.27830556e-01  1.59991035e+00
  3.74363286e+00  8.40556056e+00  1.84428568e+01  3.86940281e+01
  8.22105935e+01 -5.05836080e-01  2.05729868e-01  6.28593737e-01
  1.59035918e+00  3.72847559e+00  8.40056546e+00  1.84605821e+01
  3.87328040e+01  8.22509579e+01  2.10732464e-02  2.07617392e-01
  6.32806152e-01  1.61014839e+00  3.75742192e+00  8.42382180e+00
  1.84654276e+01  3.87193780e+01  8.22327381e+01 -1.71996230e-02
  2.08262228e-01  6.33983106e-01  1.60539829e+00  3.74948760e+00
  8.40897483e+00  1.84428883e+01  3.86911927e+01  8.22068278e+01
 -1.04075344e-02  2.05496519e-01  6.28869517e-01  1.59963670e+00
  3.74369121e+00  8.40560812e+00  1.84428763e+01  3.86940206e+01
  8.22105794e+01 -3.90968075e-02  2.04814010e-01  6.24687248e-01
  1.58744576e+00  3.72260704e+00  8.37857209e+00  1.84129749e+01
  3.86632675e+01  8.21850600e+01  7.05811803e-01  1.84335937e+00
  4.45278193e+00  9.53992678e+00  1.99973827e+01  4.21410389e+01
  9.55360573e+01  7.10853550e-01  1.85396170e+00  4.47161935e+00
  9.56522039e+00  2.00247351e+01  4.21677852e+01  9.55586357e+01
  7.13144314e-01  1.85788662e+00  4.47400974e+00  9.56555576e+00
  2.00308568e+01  4.21834610e+01  9.55771930e+01  7.10384851e-01
  1.85446834e+00  4.47289323e+00  9.57182505e+00  2.00505422e+01
  4.22146350e+01  9.56095145e+01  7.14301632e-01  1.86114500e+00
  4.48281269e+00  9.58115768e+00  2.00494131e+01  4.22001712e+01
  9.55901342e+01  7.17736367e-01  1.86596469e+00  4.48605814e+00
  9.57797773e+00  2.00349345e+01  4.21761423e+01  9.55648767e+01
  7.13128590e-01  1.85785634e+00  4.47403474e+00  9.56558769e+00
  2.00308780e+01  4.21834592e+01  9.55771783e+01  7.10846307e-01
  1.85396429e+00  4.47162503e+00  9.56523766e+00  2.00247492e+01
  4.21677894e+01  9.55586338e+01  7.05811803e-01  1.84335937e+00
  4.45278193e+00  9.53992678e+00  1.99973827e+01  4.21410389e+01
  9.55360573e+01  1.55160102e+00  7.74886721e+00  2.11488231e+01
  5.24066988e+01  1.55989697e+00  7.76684860e+00  2.11703515e+01
  5.24287615e+01  1.56411731e+00  7.77765144e+00  2.11860554e+01
  5.24484674e+01  1.56588658e+00  7.78394044e+00  2.11969228e+01
  5.24620498e+01  1.56065611e+00  7.78770199e+00  2.12184936e+01
  5.24940618e+01  1.56652730e+00  7.78824162e+00  2.12054972e+01
  5.24717536e+01  1.57220734e+00  7.78674132e+00  2.11882246e+01
  5.24448529e+01  1.56588189e+00  7.78394047e+00  2.11969197e+01
  5.24620359e+01  1.56411603e+00  7.77765181e+00  2.11860560e+01
  5.24484653e+01  1.55989697e+00  7.76684860e+00  2.11703515e+01
  5.24287615e+01  1.55160102e+00  7.74886721e+00  2.11488231e+01
  5.24066988e+01  1.26807718e+01  1.26968777e+01  1.27103901e+01
  1.27192939e+01  1.27240360e+01  1.27304716e+01  1.27265123e+01
  1.27215624e+01  1.27240337e+01  1.27192919e+01  1.27103901e+01
  1.26968777e+01  1.26807718e+01]
    CPU time for vj and vk    457.31 sec, wall time     40.02 sec
E1 = -14312.446431707263  Ecoul = 4037.6888317571875
cycle= 92 E= -10274.7575999501  delta_E= 0.00164  |g|= 0.0633  |ddm|= 0.16
    CPU time for cycle= 92    458.27 sec, wall time     40.15 sec
HOMO (f+0) = 0.0153391996303312  LUMO (p-1) = 0.0155207553768436
double occ irrep_nelec = [5, 4, 4, 4, 2, 2, 2, 2, 2, 0, 0, 1, 0, 0, 0, 0, 0, 0, 0, 0, 0, 0, 0, 0, 0, 0, 0, 0, 0, 0, 0, 0, 0, 0, 0, 0, 0, 0, 0, 0, 0, 0, 0, 0, 0, 0, 0, 0, 0]
single occ irrep_nelec = [1, 0, 0, 0, 0, 0, 0, 1, 0, 1, 1, 0, 1, 1, 1, 1, 0, 0, 0, 0, 0, 0, 0, 0, 0, 0, 0, 0, 0, 0, 0, 0, 0, 0, 0, 0, 0, 0, 0, 0, 0, 0, 0, 0, 0, 0, 0, 0, 0]
                  Roothaan           | alpha              | beta
  Highest 2-occ =  -0.51100355102529 | -0.613408098128386 | -0.425864962380659
  Lowest 0-occ =  0.0155207553768436 | 0.0080715315326042 | 0.0248663408260923
  1-occ =         -0.0666254731325407 | -0.154645619373977 | 0.0260695236889828
  1-occ =         0.0106835182410693 | -0.179276071807605 |  0.194396252423561
  1-occ =         -0.0437225365612963 | -0.735710461675617 |   0.63418737999645
  1-occ =         -0.0167604967305794 | -0.703815557778054 |  0.659541617597616
  1-occ =         0.0153391996303312 | -0.675756107207272 |  0.693766142630102
  1-occ =         -0.0231074469651526 |  -0.70264454942193 |  0.648387849893206
  1-occ =         -0.0156138157552193 | -0.704768057011414 |  0.659105796602822
  1-occ =         -0.0442092441628736 | -0.736483522250008 |  0.634959197968465
  Roothaan mo_energy =
[-1.51512908e+03 -2.57008554e+02 -5.99682052e+01 -1.24282741e+01
 -1.67535402e+00 -6.66254731e-02  6.88396080e-02  3.50161926e-01
  1.24317167e+00  3.98586853e+00  1.12607736e+01  3.12080305e+01
  5.40573125e+02 -2.67393556e+02 -5.70851293e+01 -1.04882141e+01
 -1.00830557e+00  1.55207554e-02  7.67308064e-02  2.94997309e-01
  1.04412547e+00  3.22739683e+00  9.42795939e+00  2.61064323e+01
  7.99830284e+01 -2.67390383e+02 -5.70712548e+01 -1.04654261e+01
 -9.93179299e-01  1.82411989e-02  8.15777518e-02  3.05697082e-01
  1.06532412e+00  3.25659232e+00  9.45866911e+00  2.61347995e+01
  8.00028515e+01 -2.67402787e+02 -5.71272693e+01 -1.05410060e+01
 -1.02865995e+00  1.74453986e-02  7.95447116e-02  2.99846959e-01
  1.04903035e+00  3.22281220e+00  9.39901099e+00  2.60506636e+01
  7.99299565e+01 -4.61961167e+01 -6.07655767e+00  8.41684643e-02
  1.95972155e-01  5.52143357e-01  1.56219482e+00  4.22150739e+00
  1.06202135e+01  2.61946643e+01  6.06966914e+01 -4.61731812e+01
 -6.06043697e+00  8.65691227e-02  2.01767467e-01  5.59941209e-01
  1.57692190e+00  4.24911193e+00  1.06649147e+01  2.62574886e+01
  6.07576900e+01 -4.61760453e+01 -6.05728037e+00  9.07152307e-02
  2.08036562e-01  5.65383190e-01  1.58222295e+00  4.25163806e+00
  1.06618217e+01  2.62477141e+01  6.07463493e+01 -4.61894267e+01
 -6.06101312e+00  1.06835182e-02  1.49870256e-01  5.41612353e-01
  1.57400410e+00  4.24313525e+00  1.06409147e+01  2.62097396e+01
  6.07062518e+01 -4.61961233e+01 -6.07658946e+00  8.41805599e-02
  1.95948803e-01  5.52141362e-01  1.56220871e+00  4.22151685e+00
  1.06202323e+01  2.61946900e+01  6.06967186e+01 -4.37225366e-02
  2.03680618e-01  6.24838130e-01  1.58643271e+00  3.72030178e+00
  8.37497893e+00  1.84081168e+01  3.86571446e+01  8.21773500e+01
 -1.67604967e-02  2.07526570e-01  6.28339237e-01  1.59882682e+00
  3.74128889e+00  8.40182208e+00  1.84377761e+01  3.86876440e+01
  8.22026633e+01 -5.11003551e-01  2.06022203e-01  6.28610619e-01
  1.58920637e+00  3.72604694e+00  8.39687403e+00  1.84555725e+01
  3.87264716e+01  8.22430460e+01  1.53391996e-02  2.07994132e-01
  6.33855924e-01  1.60895318e+00  3.75504028e+00  8.42002116e+00
  1.84602532e+01  3.87128680e+01  8.22246817e+01 -2.31074470e-02
  2.09841219e-01  6.33880017e-01  1.60443942e+00  3.74696495e+00
  8.40498989e+00  1.84375433e+01  3.86845534e+01  8.21986929e+01
 -1.56138158e-02  2.05332072e-01  6.28974285e-01  1.59856788e+00
  3.74123765e+00  8.40178673e+00  1.84377650e+01  3.86876553e+01
  8.22026825e+01 -4.42092442e-02  2.04832487e-01  6.24810613e-01
  1.58645870e+00  3.72034521e+00  8.37502389e+00  1.84081425e+01
  3.86571486e+01  8.21773447e+01  7.06167879e-01  1.84278133e+00
  4.45073932e+00  9.53657134e+00  1.99925691e+01  4.21347540e+01
  9.55282042e+01  7.11224268e-01  1.85335389e+00  4.46941674e+00
  9.56164236e+00  2.00197064e+01  4.21612799e+01  9.55505872e+01
  7.13517581e-01  1.85728182e+00  4.47174446e+00  9.56191677e+00
  2.00257390e+01  4.21768270e+01  9.55690126e+01  7.10761591e-01
  1.85388490e+00  4.47077633e+00  9.56833732e+00  2.00455275e+01
  4.22080908e+01  9.56014060e+01  7.14696104e-01  1.86049984e+00
  4.48053761e+00  9.57749885e+00  2.00442466e+01  4.21934681e+01
  9.55818821e+01  7.18141476e-01  1.86529182e+00  4.48361333e+00
  9.57412957e+00  2.00296193e+01  4.21693100e+01  9.55565224e+01
  7.13519761e-01  1.85725537e+00  4.47175231e+00  9.56189852e+00
  2.00257240e+01  4.21768302e+01  9.55690251e+01  7.11218745e-01
  1.85335587e+00  4.46942494e+00  9.56166457e+00  2.00197257e+01
  4.21612859e+01  9.55505846e+01  7.06167879e-01  1.84278133e+00
  4.45073932e+00  9.53657134e+00  1.99925691e+01  4.21347540e+01
  9.55282042e+01  1.55166443e+00  7.74651064e+00  2.11446117e+01
  5.24002783e+01  1.55996086e+00  7.76426358e+00  2.11659226e+01
  5.24221412e+01  1.56418609e+00  7.77496499e+00  2.11815010e+01
  5.24417136e+01  1.56595751e+00  7.78121921e+00  2.11922990e+01
  5.24551973e+01  1.56073834e+00  7.78520396e+00  2.12140317e+01
  5.24873253e+01  1.56660006e+00  7.78551941e+00  2.12008447e+01
  5.24648541e+01  1.57227081e+00  7.78379256e+00  2.11833960e+01
  5.24378199e+01  1.56595540e+00  7.78122311e+00  2.11923074e+01
  5.24552115e+01  1.56418554e+00  7.77496524e+00  2.11815017e+01
  5.24417110e+01  1.55996086e+00  7.76426358e+00  2.11659226e+01
  5.24221412e+01  1.55166443e+00  7.74651064e+00  2.11446117e+01
  5.24002783e+01  1.26782247e+01  1.26940892e+01  1.27074751e+01
  1.27163245e+01  1.27210446e+01  1.27277327e+01  1.27235276e+01
  1.27183292e+01  1.27210535e+01  1.27163217e+01  1.27074751e+01
  1.26940892e+01  1.26782247e+01]
    CPU time for vj and vk    436.83 sec, wall time     36.79 sec
E1 = -14313.099662001703  Ecoul = 4038.340334292783
cycle= 93 E= -10274.7593277089  delta_E= -0.00173  |g|= 0.0439  |ddm|= 0.131
    CPU time for cycle= 93    437.77 sec, wall time     36.94 sec
HOMO (f+0) = 0.0159746344729017  LUMO (p-1) = 0.0158838983944101
double occ irrep_nelec = [5, 4, 4, 4, 2, 2, 2, 2, 2, 0, 0, 1, 0, 0, 0, 0, 0, 0, 0, 0, 0, 0, 0, 0, 0, 0, 0, 0, 0, 0, 0, 0, 0, 0, 0, 0, 0, 0, 0, 0, 0, 0, 0, 0, 0, 0, 0, 0, 0]
single occ irrep_nelec = [1, 0, 0, 0, 0, 0, 0, 1, 0, 1, 1, 0, 1, 1, 1, 1, 0, 0, 0, 0, 0, 0, 0, 0, 0, 0, 0, 0, 0, 0, 0, 0, 0, 0, 0, 0, 0, 0, 0, 0, 0, 0, 0, 0, 0, 0, 0, 0, 0]
                  Roothaan           | alpha              | beta
  Highest 2-occ = -0.510352490021503 | -0.606349209240734 | -0.418647510168549
  Lowest 0-occ =  0.0158838983944101 | 0.00841163558896983 | 0.0249338903980427
  1-occ =         -0.0658476313324717 | -0.154737838566468 |  0.027551743194535
  1-occ =         0.00979460905595923 | -0.177172750064112 |  0.193843971402834
  1-occ =         -0.042605885050888 | -0.727940232005645 |  0.642457341112583
  1-occ =         -0.0155590273564749 | -0.697281191938303 |  0.666442660660121
  1-occ =         0.0159746344729017 | -0.668333717788685 |  0.702860161790565
  1-occ =         -0.0222513549412685 | -0.698764782784652 |  0.656335085592333
  1-occ =         -0.0147808170992838 | -0.695764631542221 |  0.665257493012981
  1-occ =         -0.0428300836388141 | -0.728647360974486 |  0.641608931937503
  Roothaan mo_energy =
[-1.51512538e+03 -2.57005347e+02 -5.99654697e+01 -1.24268337e+01
 -1.67582171e+00 -6.58476313e-02  6.80282362e-02  3.50028734e-01
  1.24329187e+00  3.98580734e+00  1.12611722e+01  3.12092769e+01
  5.40575667e+02 -2.67390170e+02 -5.70821677e+01 -1.04864773e+01
 -1.00832691e+00  1.58838984e-02  7.69634128e-02  2.95255659e-01
  1.04444074e+00  3.22767681e+00  9.42869582e+00  2.61079989e+01
  7.99855841e+01 -2.67387058e+02 -5.70685218e+01 -1.04640794e+01
 -9.93299277e-01  1.86183334e-02  8.18163431e-02  3.05962229e-01
  1.06547643e+00  3.25639206e+00  9.45882381e+00  2.61358741e+01
  8.00050865e+01 -2.67399464e+02 -5.71245449e+01 -1.05396504e+01
 -1.02878322e+00  1.78242167e-02  7.97661915e-02  3.00109868e-01
  1.04918714e+00  3.22262280e+00  9.39918501e+00  2.60517537e+01
  7.99321904e+01 -4.61931634e+01 -6.07503770e+00  8.46862074e-02
  1.96348415e-01  5.52574814e-01  1.56242392e+00  4.22165311e+00
  1.06207831e+01  2.61959852e+01  6.06988342e+01 -4.61702446e+01
 -6.05897465e+00  8.71036664e-02  2.02152023e-01  5.60371116e-01
  1.57714306e+00  4.24923939e+00  1.06654728e+01  2.62588239e+01
  6.07598667e+01 -4.61731753e+01 -6.05590767e+00  9.12608469e-02
  2.08312630e-01  5.65762970e-01  1.58232501e+00  4.25156758e+00
  1.06621455e+01  2.62488014e+01  6.07483098e+01 -4.61865106e+01
 -6.05957451e+00  9.79460906e-03  1.52198451e-01  5.43866950e-01
  1.57464609e+00  4.24297257e+00  1.06410050e+01  2.62106728e+01
  6.07081517e+01 -4.61931760e+01 -6.07508108e+00  8.46985256e-02
  1.96332393e-01  5.52573239e-01  1.56243440e+00  4.22165919e+00
  1.06207996e+01  2.61960166e+01  6.06988719e+01 -4.26058851e-02
  2.04779913e-01  6.25433228e-01  1.58669630e+00  3.72053431e+00
  8.37561542e+00  1.84093071e+01  3.86588726e+01  8.21797284e+01
 -1.55590274e-02  2.07828919e-01  6.29065071e-01  1.59908322e+00
  3.74137988e+00  8.40219966e+00  1.84387350e+01  3.86892193e+01
  8.22049656e+01 -5.10352490e-01  2.06582902e-01  6.29302248e-01
  1.58943396e+00  3.72615043e+00  8.39736267e+00  1.84566519e+01
  3.87281443e+01  8.22454060e+01  1.59746345e-02  2.08958269e-01
  6.35355961e-01  1.60904786e+00  3.75515259e+00  8.42043530e+00
  1.84612025e+01  3.87143773e+01  8.22269009e+01 -2.22513549e-02
  2.10465223e-01  6.34466853e-01  1.60467980e+00  3.74682653e+00
  8.40507708e+00  1.84382224e+01  3.86858875e+01  8.22008201e+01
 -1.47808171e-02  2.06155709e-01  6.29494918e-01  1.59878039e+00
  3.74124814e+00  8.40212138e+00  1.84387043e+01  3.86892276e+01
  8.22049893e+01 -4.28300836e-02  2.04908839e-01  6.25483665e-01
  1.58671808e+00  3.72055022e+00  8.37561977e+00  1.84093091e+01
  3.86588742e+01  8.21797295e+01  7.07069680e-01  1.84305843e+00
  4.45063539e+00  9.53709307e+00  1.99937361e+01  4.21365847e+01
  9.55307049e+01  7.12149923e-01  1.85357161e+00  4.46908748e+00
  9.56188759e+00  2.00206870e+01  4.21629779e+01  9.55529963e+01
  7.14462858e-01  1.85747810e+00  4.47133110e+00  9.56204888e+00
  2.00266082e+01  4.21784393e+01  9.55713669e+01  7.11677631e-01
  1.85413035e+00  4.47059815e+00  9.56875118e+00  2.00465905e+01
  4.22098460e+01  9.56038660e+01  7.15627894e-01  1.86065475e+00
  4.48013133e+00  9.57770052e+00  2.00451564e+01  4.21950676e+01
  9.55841964e+01  7.19102033e-01  1.86538864e+00  4.48296363e+00
  9.57404705e+00  2.00303191e+01  4.21707450e+01  9.55587129e+01
  7.14465455e-01  1.85745996e+00  4.47134206e+00  9.56202114e+00
  2.00265774e+01  4.21784376e+01  9.55713845e+01  7.12153619e-01
  1.85356976e+00  4.46908627e+00  9.56188608e+00  2.00206878e+01
  4.21629788e+01  9.55529965e+01  7.07069680e-01  1.84305843e+00
  4.45063539e+00  9.53709307e+00  1.99937361e+01  4.21365847e+01
  9.55307049e+01  1.55242218e+00  7.74640598e+00  2.11455726e+01
  5.24021927e+01  1.56070678e+00  7.76386236e+00  2.11666899e+01
  5.24239496e+01  1.56492762e+00  7.77444365e+00  2.11821690e+01
  5.24434519e+01  1.56669540e+00  7.78066770e+00  2.11929284e+01
  5.24568920e+01  1.56148842e+00  7.78495958e+00  2.12148710e+01
  5.24891589e+01  1.56733120e+00  7.78497708e+00  2.12014646e+01
  5.24665183e+01  1.57298711e+00  7.78294246e+00  2.11837971e+01
  5.24393305e+01  1.56669330e+00  7.78067201e+00  2.11929360e+01
  5.24569096e+01  1.56492858e+00  7.77444321e+00  2.11821691e+01
  5.24434523e+01  1.56070678e+00  7.76386236e+00  2.11666899e+01
  5.24239496e+01  1.55242218e+00  7.74640598e+00  2.11455726e+01
  5.24021927e+01  1.26782826e+01  1.26938474e+01  1.27070866e+01
  1.27158798e+01  1.27205946e+01  1.27276117e+01  1.27230885e+01
  1.27175629e+01  1.27206014e+01  1.27158801e+01  1.27070866e+01
  1.26938474e+01  1.26782826e+01]
