<?xml version="1.0"?>
<molpro xmlns="http://www.molpro.net/schema/molpro-output"
  xmlns:xsd="http://www.w3.org/1999/XMLSchema"
  xmlns:cml="http://www.xml-cml.org/schema"
  xmlns:stm="http://www.xml-cml.org/schema"
  xmlns:xhtml="http://www.w3.org/1999/xhtml">
 <!--

 Nodes     nprocs
 nid00810    11
 Number of processes for MPI-2 version of Molpro:   nprocs(total)=   12   nprocs(compute)=   11   nprocs(helper)=    1

 Using customized tuning parameters: mindgm=7; mindgv=16; mindgc=1; mindgr=1; noblas=0; minvec=7
 default implementation of scratch files=sf

 --><job>
  <!--

 Variables initialized (889), CPU time= 0.01 sec
 Commands  initialized (702), CPU time= 0.01 sec, 572 directives.
 Default parameters read. Elapsed time= 0.13 sec

 Checking input...
 Passed
1


                                         ***  PROGRAM SYSTEM MOLPRO  ***
                                       Copyright, TTI GmbH Stuttgart, 2015
                                    Version 2015.1 linked Dec 29 2018 15:55:43


 **********************************************************************************************************************************
 LABEL *   Calculation for Nb atom, singlet and triplet
  64 bit mpp version                                                                     DATE: 30-Sep-22          TIME: 06:25:08
 **********************************************************************************************************************************

 SHA1:             19cd028119e0e09f93f0674bd8af7968d9b3eff6
 **********************************************************************************************************************************
  -->
  <!--

Geometry recognized as XYZ


 THRESHOLDS:

 ZERO    =  1.00D-12  ONEINT  =  1.00D-12  TWOINT  =  1.00D-15  PREFAC  =  1.00D-14  LOCALI  =  1.00D-09  EORDER  =  1.00D-04
 ENERGY  =  0.00D+00  ETEST   =  0.00D+00  EDENS   =  0.00D+00  THRDEDEF=  1.00D-06  GRADIENT=  1.00D-02  STEP    =  1.00D-03
 ORBITAL =  1.00D-05  CIVEC   =  1.00D-05  COEFF   =  1.00D-04  PRINTCI =  5.00D-02  PUNCHCI =  9.90D+01  OPTGRAD =  3.00D-04
 OPTENERG=  1.00D-06  OPTSTEP =  3.00D-04  THRGRAD =  1.00D-10  COMPRESS=  1.00D-11  VARMIN  =  1.00D-07  VARMAX  =  1.00D-03
 THRDOUB =  0.00D+00  THRDIV  =  1.00D-05  THRRED  =  1.00D-07  THRPSP  =  1.00D+00  THRDC   =  1.00D-10  THRCS   =  1.00D-10
 THRNRM  =  1.00D-08  THREQ   =  0.00D+00  THRDE   =  1.00D+00  THRREF  =  1.00D-05  SPARFAC =  1.00D+00  THRDLP  =  1.00D-07
 THRDIA  =  1.00D-10  THRDLS  =  1.00D-07  THRGPS  =  0.00D+00  THRKEX  =  0.00D+00  THRDIS  =  2.00D-01  THRVAR  =  1.00D-10
 THRLOC  =  1.00D-06  THRGAP  =  1.00D-06  THRLOCT = -1.00D+00  THRGAPT = -1.00D+00  THRORB  =  1.00D-06  THRMLTP =  0.00D+00
 THRCPQCI=  1.00D-10  KEXTA   =  0.00D+00  THRCOARS=  0.00D+00  SYMTOL  =  1.00D-06  GRADTOL =  1.00D-06  THROVL  =  1.00D-08
 THRORTH =  1.00D-08  GRID    =  1.00D-06  GRIDMAX =  1.00D-03  DTMAX   =  0.00D+00  THROCCDE=  1.00D-01  THROCCDE=  1.00D-01



 THRESHOLDS:

 ZERO    =  1.00D-12  ONEINT  =  1.00D-15  TWOINT  =  1.00D-15  PREFAC  =  1.00D-14  LOCALI  =  1.00D-09  EORDER  =  1.00D-04
 ENERGY  =  0.00D+00  ETEST   =  0.00D+00  EDENS   =  0.00D+00  THRDEDEF=  1.00D-06  GRADIENT=  1.00D-02  STEP    =  1.00D-03
 ORBITAL =  1.00D-05  CIVEC   =  1.00D-05  COEFF   =  1.00D-04  PRINTCI =  5.00D-02  PUNCHCI =  9.90D+01  OPTGRAD =  3.00D-04
 OPTENERG=  1.00D-06  OPTSTEP =  3.00D-04  THRGRAD =  1.00D-10  COMPRESS=  1.00D-11  VARMIN  =  1.00D-07  VARMAX  =  1.00D-03
 THRDOUB =  0.00D+00  THRDIV  =  1.00D-05  THRRED  =  1.00D-07  THRPSP  =  1.00D+00  THRDC   =  1.00D-10  THRCS   =  1.00D-10
 THRNRM  =  1.00D-08  THREQ   =  0.00D+00  THRDE   =  1.00D+00  THRREF  =  1.00D-05  SPARFAC =  1.00D+00  THRDLP  =  1.00D-07
 THRDIA  =  1.00D-10  THRDLS  =  1.00D-07  THRGPS  =  0.00D+00  THRKEX  =  0.00D+00  THRDIS  =  2.00D-01  THRVAR  =  1.00D-10
 THRLOC  =  1.00D-06  THRGAP  =  1.00D-06  THRLOCT = -1.00D+00  THRGAPT = -1.00D+00  THRORB  =  1.00D-06  THRMLTP =  0.00D+00
 THRCPQCI=  1.00D-10  KEXTA   =  0.00D+00  THRCOARS=  0.00D+00  SYMTOL  =  1.00D-06  GRADTOL =  1.00D-06  THROVL  =  1.00D-08
 THRORTH =  1.00D-08  GRID    =  1.00D-06  GRIDMAX =  1.00D-03  DTMAX   =  0.00D+00  THROCCDE=  1.00D-01  THROCCDE=  1.00D-01



 Variable memory set to 1000000000 words,  buffer space   230000 words

 SETTING BASIS          =    USERDEF

 DO I                   =         1.00000000

 Running procedure=ID4S1
  --><jobstep command="RHF-SCF" commandset="SCFPRO">
   <!--


 Recomputing integrals since basis changed


 Using spherical harmonics



 PROGRAM * SEWARD (Integral evaluation for generally contracted gaussian basis sets)     Author: Roland Lindh, 1990

 Geometry written to block  1 of record 700

 Orientation using atomic masses
 Molecule type: Atom
 Symmetry elements: X,Y,Z
 Rotational constants:       0.0000000      0.0000000      0.0000000 GHz  (calculated with average atomic masses)

 Point group  D2h


   --><cml:molecule>
    <cml:symmetry pointGroup="D2h"/>
    <cml:atomArray>
     <cml:atom id="a1" elementType="Nb" x3="0.0" y3="0.0" z3="0.0"/>
    </cml:atomArray>
    <cml:bondArray>
    </cml:bondArray>
   </cml:molecule><!--

 ATOMIC COORDINATES

 NR  ATOM    CHARGE       X              Y              Z

   1  NB     13.00    0.000000000    0.000000000    0.000000000

 NUCLEAR CHARGE:                   13
 NUMBER OF PRIMITIVE AOS:         364
 NUMBER OF SYMMETRY AOS:          302
 NUMBER OF CONTRACTIONS:          302   (  93Ag  +  37B3u +  37B2u +  31B1g +  37B1u +  31B2g +  31B3g +   5Au  )
 NUMBER OF CORE ORBITALS:           4   (   1Ag  +   1B3u +   1B2u +   0B1g +   1B1u +   0B2g +   0B3g +   0Au  )
 NUMBER OF VALENCE ORBITALS:        6   (   3Ag  +   0B3u +   0B2u +   1B1g +   0B1u +   1B2g +   1B3g +   0Au  )


 NUCLEAR REPULSION ENERGY    0.00000000

 EXTRA SYMMETRY OF AOS IN SYMMETRY 1:   1 1 1 1 1 1 1 1 1 1   1 1 1 1 1 1 1 1 1 1   1 1 1 1 1 1 1 1 1 1   1 1 1 1 1 1 2 1 2 1
                                        2 1 2 1 2 1 2 1 2 1   2 1 2 1 2 1 2 1 2 1   2 1 2 1 2 1 2 1 2 1   2 1 2 1 2 1 2 1 2 1
                                        2 3 4 5 3 4 5 3 4 5   3 4 5
 EXTRA SYMMETRY OF AOS IN SYMMETRY 2:   1 1 1 1 1 1 1 1 1 1   1 1 1 1 1 1 1 1 1 1   1 1 1 1 1 1 1 2 3 2   3 2 3 2 3 2 3
 EXTRA SYMMETRY OF AOS IN SYMMETRY 3:   1 1 1 1 1 1 1 1 1 1   1 1 1 1 1 1 1 1 1 1   1 1 1 1 1 1 1 2 3 2   3 2 3 2 3 2 3
 EXTRA SYMMETRY OF AOS IN SYMMETRY 4:   1 1 1 1 1 1 1 1 1 1   1 1 1 1 1 1 1 1 1 1   1 1 1 2 3 2 3 2 3 2   3
 EXTRA SYMMETRY OF AOS IN SYMMETRY 5:   1 1 1 1 1 1 1 1 1 1   1 1 1 1 1 1 1 1 1 1   1 1 1 1 1 1 1 2 3 2   3 2 3 2 3 2 3
 EXTRA SYMMETRY OF AOS IN SYMMETRY 6:   1 1 1 1 1 1 1 1 1 1   1 1 1 1 1 1 1 1 1 1   1 1 1 2 3 2 3 2 3 2   3
 EXTRA SYMMETRY OF AOS IN SYMMETRY 7:   1 1 1 1 1 1 1 1 1 1   1 1 1 1 1 1 1 1 1 1   1 1 1 2 3 2 3 2 3 2   3

 Eigenvalues of metric

         1 0.110E-07 0.110E-07 0.137E-06 0.116E-05 0.371E-05 0.732E-05 0.290E-04 0.310E-04
         2 0.498E-06 0.369E-05 0.503E-04 0.593E-03 0.140E-02 0.379E-02 0.874E-02 0.123E-01
         3 0.498E-06 0.369E-05 0.503E-04 0.593E-03 0.140E-02 0.379E-02 0.874E-02 0.123E-01
         4 0.110E-07 0.310E-04 0.253E-03 0.976E-03 0.212E-02 0.511E-02 0.139E-01 0.302E-01
         5 0.498E-06 0.369E-05 0.503E-04 0.593E-03 0.140E-02 0.379E-02 0.874E-02 0.123E-01
         6 0.110E-07 0.310E-04 0.253E-03 0.976E-03 0.212E-02 0.511E-02 0.139E-01 0.302E-01
         7 0.110E-07 0.310E-04 0.253E-03 0.976E-03 0.212E-02 0.511E-02 0.139E-01 0.302E-01
         8 0.144E+00 0.373E+00 0.826E+00 0.148E+01 0.218E+01


 Contracted 2-electron integrals neglected if value below      1.0D-15

 Warning: maximum contribution to expansion of semi-local PP integrals   0.2D+10

 AO integral compression algorithm  1   Integral accuracy      1.0D-15

     1119.093 MB (compressed) written to integral file ( 49.0%)

     Node minimum: 42.729 MB, node maximum: 174.850 MB


 NUMBER OF SORTED TWO-ELECTRON INTEGRALS:   12463883.     BUFFER LENGTH:  32768
 NUMBER OF SEGMENTS:   1  SEGMENT LENGTH:   12463883      RECORD LENGTH: 524288

 Memory used in sort:      13.02 MW

 SORT1 READ   285316239. AND WROTE     7838161. INTEGRALS IN     23 RECORDS. CPU TIME:     5.11 SEC, REAL TIME:     5.30 SEC
 SORT2 READ    87160121. AND WROTE   137103552. INTEGRALS IN   4455 RECORDS. CPU TIME:     0.38 SEC, REAL TIME:     0.55 SEC

 Node minimum:    12426462.  Node maximum:    12574472. integrals

 OPERATOR DM      FOR CENTER  0  COORDINATES:    0.000000    0.000000    0.000000


 **********************************************************************************************************************************
 DATASETS  * FILE   NREC   LENGTH (MB)   RECORD NAMES
              1      19       20.62       500      610      700      900      950      970     1000      129      960     1100
                                          VAR    BASINP    GEOM    SYMINP    ZMAT    AOBASIS   BASIS     P2S    ABASIS      S
                                         1400     1410     1420     1200     1210     1080     1600     1650     1700
                                           T        V       ECP      H0       H01     AOSYM     SMH    MOLCAS    OPER

 PROGRAMS   *        TOTAL       INT
 CPU TIMES  *        72.89     72.42
 REAL TIME  *        74.82 SEC
 DISK USED  *         2.16 GB
 GA USED    *         0.00 MB       (max)       0.00 MB       (current)
 **********************************************************************************************************************************


 PROGRAM * RHF-SCF (OPEN SHELL)       Authors: W. Meyer, H.-J. Werner


 NUMBER OF ELECTRONS:       9+    4-    SPACE SYMMETRY=1    SPIN SYMMETRY: Sextet
 CONVERGENCE THRESHOLDS:    1.00E-05 (Density)    1.00E-07 (Energy)
 MAX. NUMBER OF ITERATIONS:       60
 INTERPOLATION TYPE:            DIIS
 INTERPOLATION STEPS:              2 (START)      1 (STEP)
 LEVEL SHIFTS:                 -0.60 (CLOSED) -0.30 (OPEN)

 Number of closed-shell orbitals:    4 (   1   1   1   0   1   0   0   0 )
 Number of open-shell orbitals:      5 (   2   0   0   1   0   1   1   0 )



 Extra symmetries of mos in symmetry 1:   1   1   3   2
     Symmetry restrictions:    1             1
 Orbital guess generated from atomic densities. Full valence occupancy:    4   1   1   1   1   1   1   0


 Molecular orbital dump at record        3202.2

 ITERATION    DDIFF          GRAD             ENERGY        2-EL.EN.            DIPOLE MOMENTS         DIIS   ORB.
    1      0.000D+00      0.000D+00       -54.86655642     68.305857    0.00000    0.00000    0.00000    0    start
    2      0.000D+00      0.149D-01       -55.15438578     75.040068    0.00000    0.00000    0.00000    1    diag,B
    3      0.106D-01      0.558D-02       -55.19601517     75.347662    0.00000    0.00000    0.00000    2    diag,B
    4      0.357D-02      0.295D-02       -55.40246663     74.950692    0.00000    0.00000    0.00000    3    diag,B
    5      0.979D-02      0.457D-02       -55.21547148     75.914708    0.00000    0.00000    0.00000    4    diag,B
    6      0.104D-01      0.249D-02       -55.26201875     76.302787    0.00000    0.00000    0.00000    5    diag,B
    7      0.341D-02      0.393D-02       -55.22813536     76.027723    0.00000    0.00000    0.00000    6    fixocc
    8      0.107D-01      0.252D-02       -55.20814872     76.318018    0.00000    0.00000    0.00000    7    diag,B
    9      0.123D-01      0.201D-02       -55.20620256     76.298618    0.00000    0.00000    0.00000    8    diag,B
   10      0.308D-03      0.189D-02       -55.20618238     76.086686    0.00000    0.00000    0.00000    9    orth
   11      0.375D-01      0.154D-02       -55.19533954     76.201718    0.00000    0.00000    0.00000    9    diag,B
   12      0.296D-01      0.840D-03     32783.12501636     90.187492    0.00000    0.00000    0.00000    9    diag,B
   13      0.605D+02      0.333D-01     15347.23288200     90.175977    0.00000    0.00000    0.00000    9    diag,B
   14      0.766D+02      0.332D-01     32783.12807905     90.218717    0.00000    0.00000    0.00000    9    diag,B
   15      0.766D+02      0.336D-01     15347.23943109     90.249951    0.00000    0.00000    0.00000    9    diag,B
   16      0.765D+02      0.697D-01     32783.12790228     90.216680    0.00000    0.00000    0.00000    9    diag,B
   17      0.765D+02      0.336D-01     15347.23708795     90.215843    0.00000    0.00000    0.00000    9    diag,B
   18      0.766D+02      0.337D-01     32783.12790653     90.216728    0.00000    0.00000    0.00000    9    diag,B
   19      0.766D+02      0.336D-01     15347.23708737     90.215840    0.00000    0.00000    0.00000    9    diag,B
   20      0.766D+02      0.337D-01     32783.12790637     90.216727    0.00000    0.00000    0.00000    9    orth
   21      0.766D+02      0.336D-01     15347.23708731     90.215841    0.00000    0.00000    0.00000    9    diag,B
   22      0.766D+02      0.337D-01     32783.12790630     90.216727    0.00000    0.00000    0.00000    9    diag,B
   23      0.766D+02      0.336D-01     15347.23708676     90.215840    0.00000    0.00000    0.00000    9    diag,B
   24      0.766D+02      0.337D-01     32783.12790657     90.216728    0.00000    0.00000    0.00000    9    diag,B
   25      0.766D+02      0.336D-01     15347.23708735     90.215841    0.00000    0.00000    0.00000    9    diag,B
   26      0.766D+02      0.337D-01     32783.12790644     90.216727    0.00000    0.00000    0.00000    9    diag,B
   27      0.766D+02      0.336D-01     15347.23708731     90.215841    0.00000    0.00000    0.00000    9    diag,B
   28      0.766D+02      0.337D-01     32783.12790665     90.216728    0.00000    0.00000    0.00000    9    diag,B
   29      0.766D+02      0.336D-01     15347.23708786     90.215842    0.00000    0.00000    0.00000    9    diag,B
   30      0.766D+02      0.337D-01     32783.12790653     90.216728    0.00000    0.00000    0.00000    9    orth
   31      0.766D+02      0.336D-01     15347.23708802     90.215842    0.00000    0.00000    0.00000    9    diag,B
   32      0.766D+02      0.337D-01     32783.12790635     90.216727    0.00000    0.00000    0.00000    9    diag,B
   33      0.766D+02      0.336D-01     15347.23708695     90.215840    0.00000    0.00000    0.00000    9    diag,B
   34      0.766D+02      0.337D-01     32783.12790642     90.216727    0.00000    0.00000    0.00000    9    diag,B
   35      0.766D+02      0.336D-01     15347.23708683     90.215840    0.00000    0.00000    0.00000    9    diag,B
   36      0.766D+02      0.337D-01     32783.12790667     90.216728    0.00000    0.00000    0.00000    9    diag,B
   37      0.766D+02      0.336D-01     15347.23708891     90.215844    0.00000    0.00000    0.00000    9    diag,B
   38      0.766D+02      0.337D-01     32783.12790657     90.216728    0.00000    0.00000    0.00000    9    diag,B
   39      0.766D+02      0.336D-01     15347.23708790     90.215842    0.00000    0.00000    0.00000    9    diag,B
   40      0.766D+02      0.337D-01     32783.12790655     90.216728    0.00000    0.00000    0.00000    9    orth


 ?APPARENTLY NO CONVERGENCE, EXIT AFTER THREE FURTHER ITERATIONS


   41      0.766D+02      0.336D-01     15347.23708657     90.215839    0.00000    0.00000    0.00000    9    diag,B
   42      0.766D+02      0.337D-01     32783.12797253     90.221802    0.00000    0.00000    0.00000    9    orth
   43      0.766D+02      0.336D-01     15346.90391620     82.710187    0.00000    0.00000    0.00000    0    orth

 Final alpha occupancy:   3   1   1   1   1   1   1   0
 Final beta  occupancy:   1   1   1   0   1   0   0   0

 !RHF STATE 1.1 Energy                15346.9039162022
   --><property name="Energy" method="RHF" principal="true" stateSymmetry="1" stateNumber="1"
     value="15346.9039162022"/><!--
 Nuclear energy                         0.00000000
 One-electron energy                15305.54882268
 Two-electron energy                   41.35509353
 Virial quotient                        1.53223586
 !RHF STATE 1.1 Dipole moment           0.00000000     0.00000000     0.00000000
 Dipole moment /Debye                   0.00000000     0.00000000     0.00000000
   --><property name="Dipole moment" method="RHF" principal="true" stateSymmetry="1"
     stateNumber="1" value="0.0 0.0 0.0"/><!--

 ELECTRON ORBITALS
 =================


   Orb  Occ    Energy  Couls-En    Coefficients

                                   1 1s      1 1s      1 1s      1 1s      1 1s      1 1s      1 1s      1 1s      1 1s      1 1s
                                   1 1s      1 1s      1 1s      1 1s      1 1s      1 1s      1 1s      1 1s      1 1s      1 1s
                                   1 1s      1 1s      1 1s      1 1s      1 1s      1 1s      1 1s      1 1s      1 1s      1 1s
                                   1 1s      1 1s      1 1s      1 1s      1 1s      1 3d0     1 3d2+    1 3d0     1 3d2+    1 3d0
                                   1 3d2+    1 3d0     1 3d2+    1 3d0     1 3d2+    1 3d0     1 3d2+    1 3d0     1 3d2+    1 3d0
                                   1 3d2+    1 3d0     1 3d2+    1 3d0     1 3d2+    1 3d0     1 3d2+    1 3d0     1 3d2+    1 3d0
                                   1 3d2+    1 3d0     1 3d2+    1 3d0     1 3d2+    1 3d0     1 3d2+    1 3d0     1 3d2+    1 3d0
                                   1 3d2+    1 3d0     1 3d2+    1 3d0     1 3d2+    1 3d0     1 3d2+    1 3d0     1 3d2+    1 3d0
                                   1 3d2+    1 5g0     1 5g4+    1 5g2+    1 5g0     1 5g4+    1 5g2+    1 5g0     1 5g4+    1 5g2+
                                   1 5g0     1 5g4+    1 5g2+

   1.1   2    -2.0282  -11.3928 -0.000000  0.000000 -0.000000  0.000000 -0.000000  0.000000 -0.000000  0.000000 -0.000001  0.000001
                                -0.000004  0.000013 -0.000047  0.000309 -0.000905  0.000929 -0.001450  0.005861 -0.031625 -0.011210
                                 0.310531 -0.512439 -0.243287  0.074658  0.434205  0.435035  0.197669  0.171517  0.011920  0.010769
                                 0.002449  0.000890 -0.000150  0.000074 -0.000023 -0.000000  0.000000  0.000000 -0.000000 -0.000000
                                 0.000000  0.000000 -0.000000 -0.000000  0.000000  0.000000 -0.000000 -0.000001  0.000001  0.000003
                                -0.000001 -0.000002  0.000000 -0.001508  0.000420  0.000000 -0.000000  0.000004 -0.000001  0.001700
                                -0.000491 -0.000125  0.000023  0.000251 -0.000086 -0.000240  0.000078 -0.000217  0.000074  0.000022
                                -0.000013 -0.000067  0.000019  0.000009 -0.000005 -0.000003  0.000002  0.000003 -0.000000 -0.000001
                                 0.000000 -0.000363 -0.000300 -0.000001 -0.001565 -0.001317  0.000001 -0.000657 -0.000530  0.000001
                                 0.000212  0.000051  0.000012

   2.1   +    -0.1452   -3.8611  0.000000 -0.000000  0.000000 -0.000000  0.000000 -0.000000  0.000000 -0.000000  0.000000 -0.000001
                                 0.000002 -0.000007  0.000024 -0.000160  0.000459 -0.000477  0.000660 -0.002438  0.013598 -0.004203
                                -0.096448  0.186116  0.076345 -0.039273 -0.165759 -0.242066 -0.122465 -0.248549 -0.006734  0.352949
                                 0.722128  0.208052 -0.001387  0.001815 -0.001083  0.000000 -0.000000  0.000000 -0.000000  0.000000
                                -0.000000  0.000001 -0.000000  0.000002 -0.000001  0.000006 -0.000003  0.000044 -0.000018  0.000039
                                -0.000016 -0.000124  0.000051 -0.044579  0.016718  0.000000 -0.000000 -0.001573  0.000690  0.045308
                                -0.016930 -0.010339  0.004082  0.001992 -0.000687 -0.009623  0.004006 -0.009411  0.003898 -0.007030
                                 0.001606 -0.010310  0.002927  0.000543 -0.000317 -0.000901  0.000373  0.000301 -0.000086  0.000002
                                 0.000007 -0.000179 -0.000205  0.000020 -0.002461 -0.002318  0.000054 -0.003403 -0.002745  0.000108
                                -0.001106 -0.000842 -0.000095

   3.1   + 15434.373730827.8146  0.000005 -0.000057  0.000410 -0.002357  0.011310 -0.047116  0.174652 -0.603061  2.000084 -6.641240
                                13.926242-18.220457 23.094849-52.155770 78.632882-49.933748 16.363899-12.033847 15.892899-20.585432
                                21.392041-17.372608 12.354472-14.762039 15.495537-16.862383 14.658554 -6.511043  2.889827 -0.918137
                                 0.194600 -0.056161  0.021747 -0.008037  0.002196 -0.000000  0.000000  0.000000 -0.000000 -0.000000
                                 0.000000  0.000000 -0.000000 -0.000000  0.000000  0.000000 -0.000000 -0.000000  0.000000  0.000000
                                -0.000000 -0.000000  0.000000  0.000003 -0.000001  0.000000 -0.000000 -0.000000  0.000000 -0.000003
                                 0.000001  0.000000 -0.000000 -0.000000  0.000000  0.000000 -0.000000 -0.000000  0.000000  0.000000
                                -0.000000 -0.000000  0.000000  0.000000 -0.000000 -0.000000  0.000000  0.000000 -0.000000 -0.000000
                                 0.000000  0.000000  0.000000  0.000000 -0.000000 -0.000000 -0.000000  0.000000  0.000000  0.000000
                                -0.000000 -0.000000 -0.000000

   4.1   0     0.0089   -0.4968  0.000000 -0.000000  0.000000 -0.000000  0.000000 -0.000000  0.000000 -0.000000  0.000000 -0.000000
                                 0.000000 -0.000000  0.000000 -0.000002  0.000004 -0.000005  0.000004 -0.000009  0.000032 -0.000084
                                 0.000185 -0.000283  0.000451 -0.001250  0.002344 -0.005606  0.007661 -0.006851  0.006134 -0.004195
                                 0.002798 -0.003024  0.005060 -0.009277  0.006957  0.000000 -0.000000 -0.000000  0.000001  0.000001
                                -0.000003 -0.000002  0.000013  0.000007 -0.000044 -0.000019  0.000128  0.000053 -0.000353 -0.000155
                                 0.001021  0.000639 -0.004217  0.421961 -2.784361 -0.000000  0.000000 -0.007463  0.049245 -0.444569
                                 2.933541  0.052327 -0.345288 -0.034124  0.225170  0.016903 -0.111542 -0.038542  0.254323  0.048785
                                -0.321922 -0.041913  0.276567  0.141818 -0.935828 -0.148990  0.983139  0.098773 -0.651796 -0.202151
                                 1.333984  0.000000 -0.000000  0.000002  0.000001 -0.000002  0.000010  0.000003  0.000001  0.000008
                                -0.000006 -0.000007  0.000007

   5.1   0 32838.618765667.9560 -0.000012  0.000133 -0.000963  0.005531 -0.026776  0.112395 -0.429789  1.537896 -5.395679 11.138281
                               -13.051935 13.101926-15.256342 34.014408-51.435494 32.808251-10.857008  8.044925-10.679394 13.866000
                               -14.435654 11.736554 -8.355002  9.989842-10.489508 11.418174 -9.927072  4.410016 -1.957501  0.621967
                                -0.131835  0.038049 -0.014734  0.005445 -0.001488  0.000000 -0.000000 -0.000000  0.000000  0.000000
                                -0.000000 -0.000000  0.000000  0.000000 -0.000000 -0.000000  0.000000  0.000000 -0.000000 -0.000000
                                 0.000000  0.000000 -0.000000 -0.000001  0.000000  0.000000 -0.000000  0.000000 -0.000000  0.000001
                                -0.000000 -0.000000  0.000000  0.000000 -0.000000 -0.000000  0.000000  0.000000 -0.000000 -0.000000
                                 0.000000  0.000000 -0.000000 -0.000000  0.000000  0.000000 -0.000000 -0.000000  0.000000  0.000000
                                -0.000000 -0.000000 -0.000000 -0.000000  0.000000  0.000000  0.000000 -0.000000 -0.000000 -0.000000
                                 0.000000  0.000000  0.000000

                                   1 2px     1 2px     1 2px     1 2px     1 2px     1 2px     1 2px     1 2px     1 2px     1 2px
                                   1 2px     1 2px     1 2px     1 2px     1 2px     1 2px     1 2px     1 2px     1 2px     1 2px
                                   1 2px     1 2px     1 2px     1 2px     1 2px     1 2px     1 2px     1 4f1+    1 4f3+    1 4f1+
                                   1 4f3+    1 4f1+    1 4f3+    1 4f1+    1 4f3+    1 4f1+    1 4f3+

   1.2   2    -1.0558   -9.1915 -0.000000  0.000000 -0.000000  0.000000 -0.000000  0.000000 -0.000001 -0.000001 -0.000006 -0.000121
                                -0.000272  0.018511 -0.033393  0.011766  0.027267 -0.020059 -0.258379  0.174191  0.170784  0.442120
                                 0.417468  0.081770 -0.007851  0.004817 -0.002534  0.001251 -0.000398  0.001909 -0.002465  0.004398
                                -0.005491  0.003927 -0.005185 -0.000093 -0.000010  0.000101 -0.000116

   2.2   0     0.0042   -0.5118  0.000000 -0.000000  0.000000 -0.000000  0.000000 -0.000001  0.000002 -0.000007  0.000022 -0.000071
                                 0.000312 -0.004996  0.006822 -0.004721  0.020367 -0.036109  0.050673 -0.039424  0.016316 -0.018869
                                 0.007362 -0.017759  0.048858 -0.095708  0.287081 -0.708537  1.422934 -0.000005  0.000005  0.000016
                                -0.000031  0.000114 -0.000162  0.000024 -0.000102  0.000257 -0.000071

   3.2   0     0.0146   -0.8343 -0.000000  0.000000 -0.000000  0.000000 -0.000000  0.000002 -0.000006  0.000018 -0.000058  0.000197
                                -0.000825  0.012574 -0.016791  0.012125 -0.056029  0.098347 -0.124673  0.097744 -0.052416  0.029235
                                -0.047533  0.048801 -0.077322  0.316789 -0.757243  2.305876 -1.316399 -0.000023  0.000021  0.000072
                                -0.000131  0.000450 -0.000652  0.000156 -0.000438  0.000931 -0.000288

                                   1 2py     1 2py     1 2py     1 2py     1 2py     1 2py     1 2py     1 2py     1 2py     1 2py
                                   1 2py     1 2py     1 2py     1 2py     1 2py     1 2py     1 2py     1 2py     1 2py     1 2py
                                   1 2py     1 2py     1 2py     1 2py     1 2py     1 2py     1 2py     1 4f1-    1 4f3-    1 4f1-
                                   1 4f3-    1 4f1-    1 4f3-    1 4f1-    1 4f3-    1 4f1-    1 4f3-

   1.3   2    -1.0562   -9.1927 -0.000000  0.000000 -0.000000  0.000000 -0.000000  0.000000 -0.000001 -0.000001 -0.000006 -0.000121
                                -0.000273  0.018539 -0.033433  0.011792  0.027172 -0.019886 -0.258692  0.174447  0.170677  0.442409
                                 0.417614  0.081274 -0.007949  0.004811 -0.002533  0.001250 -0.000398  0.001915  0.002476  0.004370
                                 0.005355  0.003926  0.005244 -0.000074  0.000080  0.000100  0.000108

   2.3   0     0.0042   -0.5122  0.000000 -0.000000  0.000000 -0.000000  0.000000 -0.000001  0.000002 -0.000007  0.000022 -0.000071
                                 0.000311 -0.004986  0.006808 -0.004712  0.020330 -0.036044  0.050568 -0.039343  0.016296 -0.018811
                                 0.007382 -0.017756  0.048617 -0.095585  0.286703 -0.706481  1.421701 -0.000005 -0.000003  0.000018
                                 0.000039  0.000116  0.000175  0.000035  0.000139  0.000213 -0.000110

   3.3   0     0.0145   -0.8335 -0.000000  0.000000 -0.000000  0.000000 -0.000000  0.000002 -0.000005  0.000018 -0.000058  0.000197
                                -0.000824  0.012554 -0.016767  0.012104 -0.055906  0.098137 -0.124498  0.097603 -0.052253  0.029330
                                -0.047246  0.048611 -0.077990  0.316010 -0.755865  2.305541 -1.317481 -0.000021 -0.000014  0.000079
                                 0.000160  0.000460  0.000709  0.000190  0.000553  0.000773 -0.000355

                                   1 3d2-    1 3d2-    1 3d2-    1 3d2-    1 3d2-    1 3d2-    1 3d2-    1 3d2-    1 3d2-    1 3d2-
                                   1 3d2-    1 3d2-    1 3d2-    1 3d2-    1 3d2-    1 3d2-    1 3d2-    1 3d2-    1 3d2-    1 3d2-
                                   1 3d2-    1 3d2-    1 3d2-    1 5g2-    1 5g4-    1 5g2-    1 5g4-    1 5g2-    1 5g4-    1 5g2-
                                   1 5g4-

   1.4   +    -0.0588   -5.5946 -0.000000 -0.000001 -0.000002 -0.000022 -0.000102 -0.000275 -0.002119 -0.001689  0.005327  1.185140
                                -0.000000  0.093618 -1.169774  0.374769 -0.016625  0.407464  0.333827 -0.043018  0.086602 -0.047033
                                 0.033761 -0.003601  0.000637  0.001016  0.000000  0.002991 -0.000039  0.002307  0.000086 -0.000390
                                 0.000254

   2.4   0     0.0089   -0.4964 -0.000000  0.000001 -0.000003  0.000014 -0.000045  0.000131 -0.000348  0.001041 -0.004289 -2.824049
                                 0.000000  0.049479  2.975030 -0.351163  0.228082 -0.114725  0.255724 -0.325994  0.278633 -0.947343
                                 0.994415 -0.660621  1.350099 -0.000003  0.000000 -0.000008 -0.000000 -0.000011  0.000003  0.000009
                                -0.000008

   3.4   0     0.0278   -0.7267 -0.000000  0.000002 -0.000009  0.000036 -0.000122  0.000342 -0.000993  0.002737 -0.011337 -7.539687
                                 0.000000  0.135295  7.945431 -0.931976  0.612708 -0.297021  0.707927 -0.893380  0.785525 -2.762019
                                 2.964229 -2.217451  1.055863  0.000021 -0.000001  0.000049  0.000002  0.000064 -0.000017 -0.000049
                                 0.000047

                                   1 2pz     1 2pz     1 2pz     1 2pz     1 2pz     1 2pz     1 2pz     1 2pz     1 2pz     1 2pz
                                   1 2pz     1 2pz     1 2pz     1 2pz     1 2pz     1 2pz     1 2pz     1 2pz     1 2pz     1 2pz
                                   1 2pz     1 2pz     1 2pz     1 2pz     1 2pz     1 2pz     1 2pz     1 4f0     1 4f2+    1 4f0
                                   1 4f2+    1 4f0     1 4f2+    1 4f0     1 4f2+    1 4f0     1 4f2+

   1.5   2    -1.0572   -9.1954 -0.000000  0.000000 -0.000000  0.000000 -0.000000  0.000000 -0.000001 -0.000001 -0.000006 -0.000120
                                -0.000276  0.018584 -0.033499  0.011833  0.027026 -0.019618 -0.259230  0.174893  0.170530  0.442947
                                 0.417925  0.080237 -0.008150  0.004798 -0.002533  0.001250 -0.000398 -0.003176  0.000002 -0.006735
                                -0.000062 -0.006794  0.000038 -0.000175  0.000029 -0.000129 -0.000004

   2.5   0     0.0041   -0.5129  0.000000 -0.000000  0.000000 -0.000000  0.000000 -0.000001  0.000002 -0.000007  0.000022 -0.000071
                                 0.000310 -0.004963  0.006776 -0.004691  0.020249 -0.035898  0.050332 -0.039162  0.016253 -0.018683
                                 0.007428 -0.017723  0.048048 -0.095367  0.285837 -0.701898  1.418964  0.000003  0.000001 -0.000054
                                 0.000003 -0.000222  0.000006 -0.000218  0.000014  0.000340 -0.000076

   3.5   0     0.0145   -0.8315 -0.000000  0.000000 -0.000000  0.000000 -0.000000  0.000002 -0.000005  0.000018 -0.000058  0.000196
                                -0.000820  0.012514 -0.016720  0.012061 -0.055650  0.097704 -0.124152  0.097322 -0.051905  0.029548
                                -0.046613  0.048305 -0.079612  0.314142 -0.753253  2.305372 -1.320070  0.000014  0.000003 -0.000216
                                 0.000012 -0.000900  0.000026 -0.000827  0.000044  0.001147 -0.000269

                                   1 3d1+    1 3d1+    1 3d1+    1 3d1+    1 3d1+    1 3d1+    1 3d1+    1 3d1+    1 3d1+    1 3d1+
                                   1 3d1+    1 3d1+    1 3d1+    1 3d1+    1 3d1+    1 3d1+    1 3d1+    1 3d1+    1 3d1+    1 3d1+
                                   1 3d1+    1 3d1+    1 3d1+    1 5g1+    1 5g3+    1 5g1+    1 5g3+    1 5g1+    1 5g3+    1 5g1+
                                   1 5g3+

   1.6   +    -0.0589   -5.6029 -0.000000 -0.000001 -0.000002 -0.000022 -0.000103 -0.000275 -0.002127 -0.001692  0.005331  1.176606
                                -0.000000  0.094158 -1.160495  0.374391 -0.015500  0.407762  0.332863 -0.044335  0.085844 -0.046909
                                 0.033698 -0.003585  0.000639 -0.000358 -0.000941 -0.000976 -0.002768 -0.001305 -0.002195 -0.001813
                                -0.000299

   2.6   0     0.0089   -0.4966 -0.000000  0.000001 -0.000003  0.000014 -0.000045  0.000131 -0.000348  0.001039 -0.004282 -2.819392
                                 0.000000  0.049393  2.970125 -0.350599  0.227715 -0.114553  0.255329 -0.325500  0.278210 -0.945871
                                 0.992951 -0.659108  1.349337  0.000001  0.000003  0.000005  0.000008 -0.000008  0.000006  0.000031
                                 0.000003

   3.6   0     0.0277   -0.7273  0.000000 -0.000002  0.000009 -0.000036  0.000122 -0.000341  0.000991 -0.002730  0.011307  7.520674
                                -0.000000 -0.134960 -7.925411  0.929630 -0.611198  0.296269 -0.706193  0.891169 -0.783515  2.754807
                                -2.955675  2.215358 -1.056095  0.000004  0.000018  0.000027  0.000048 -0.000043  0.000038  0.000182
                                 0.000016

                                   1 3d1-    1 3d1-    1 3d1-    1 3d1-    1 3d1-    1 3d1-    1 3d1-    1 3d1-    1 3d1-    1 3d1-
                                   1 3d1-    1 3d1-    1 3d1-    1 3d1-    1 3d1-    1 3d1-    1 3d1-    1 3d1-    1 3d1-    1 3d1-
                                   1 3d1-    1 3d1-    1 3d1-    1 5g1-    1 5g3-    1 5g1-    1 5g3-    1 5g1-    1 5g3-    1 5g1-
                                   1 5g3-

   1.7   +    -0.0589   -5.6051 -0.000000 -0.000001 -0.000002 -0.000022 -0.000103 -0.000275 -0.002129 -0.001693  0.005332  1.173717
                                -0.000000  0.094335 -1.157354  0.374245 -0.015116  0.407818  0.331795 -0.044130  0.086031 -0.046871
                                 0.033687 -0.003580  0.000640 -0.000357  0.000938 -0.000993  0.002702 -0.001278  0.002370 -0.001631
                                 0.000535

   2.7   0     0.0089   -0.4967 -0.000000  0.000001 -0.000003  0.000014 -0.000044  0.000131 -0.000347  0.001038 -0.004279 -2.817321
                                 0.000000  0.049353  2.967945 -0.350353  0.227553 -0.114483  0.255150 -0.325283  0.278020 -0.945226
                                 0.992307 -0.658448  1.349005  0.000001 -0.000003  0.000004 -0.000009 -0.000006 -0.000002  0.000027
                                -0.000014

   3.7   0     0.0277   -0.7275  0.000000 -0.000002  0.000009 -0.000036  0.000122 -0.000341  0.000990 -0.002726  0.011294  7.512403
                                -0.000000 -0.134823 -7.916711  0.928597 -0.610552  0.295918 -0.705488  0.890231 -0.782693  2.751757
                                -2.952072  2.214492 -1.056209  0.000005 -0.000017  0.000026 -0.000051 -0.000034 -0.000014  0.000156
                                -0.000082

                                   1 4f2-    1 4f2-    1 4f2-    1 4f2-    1 4f2-

   1.8   0     0.1255   -1.2887  0.003891 -0.010709  0.050100 -0.163449  1.068895

   2.8   0     0.4130   -1.9131 -0.006611  0.069094 -0.151005  1.232387 -0.481082

 HOMO      3.1 15434.373737 =  419990.6868eV
 LUMO      2.5     0.004130 =       0.1124eV
 LUMO-HOMO    -15434.369607 = -419990.5744eV

 No convergence



 **********************************************************************************************************************************
 DATASETS  * FILE   NREC   LENGTH (MB)   RECORD NAMES
              1      19       20.67       500      610      700      900      950      970     1000      129      960     1100
                                          VAR    BASINP    GEOM    SYMINP    ZMAT    AOBASIS   BASIS     P2S    ABASIS      S
                                         1400     1410     1420     1200     1210     1080     1600     1650     1700
                                           T        V       ECP      H0       H01     AOSYM     SMH    MOLCAS    OPER

              2       5        5.83       200      700     1000      520     3202
                                        OPTIONS   GEOM     BASIS   MCVARS     RHF

 PROGRAMS   *        TOTAL       RHF       INT
 CPU TIMES  *        75.66      2.77     72.42
 REAL TIME  *        77.91 SEC
 DISK USED  *         2.48 GB
 SF USED    *         0.06 MB
 GA USED    *         0.00 MB       (max)       0.00 MB       (current)
 **********************************************************************************************************************************
   -->
   <time start="06:25:08" end="06:26:26" cpu="75.66" system="1.88" real="77.91"/>
   <storage units="megabyte" memory="8001.84" sf="0.06" df="317.68" eaf="2162.08" ga="0.0"/>
  </jobstep><!--
  --><jobstep command="POP" commandset="POP">
   <!--


 PROGRAM * POP (Mulliken population analysis)


 Density matrix read from record         3202.2  Type=RHF/CHARGE (state 1.1)

 Population analysis by basis function type

 Unique atom        s        p        d        f        g    Total    Charge
   1  NB      3.99851  5.99886  3.00131  0.00114  0.00017 13.00000  + 0.00000


 **********************************************************************************************************************************
 DATASETS  * FILE   NREC   LENGTH (MB)   RECORD NAMES
              1      19       20.67       500      610      700      900      950      970     1000      129      960     1100
                                          VAR    BASINP    GEOM    SYMINP    ZMAT    AOBASIS   BASIS     P2S    ABASIS      S
                                         1400     1410     1420     1200     1210     1080     1600     1650     1700
                                           T        V       ECP      H0       H01     AOSYM     SMH    MOLCAS    OPER

              2       5        5.83       200      700     1000      520     3202
                                        OPTIONS   GEOM     BASIS   MCVARS     RHF

 PROGRAMS   *        TOTAL       POP       RHF       INT
 CPU TIMES  *        75.67      0.00      2.77     72.42
 REAL TIME  *        77.92 SEC
 DISK USED  *         2.48 GB
 SF USED    *         0.06 MB
 GA USED    *         0.00 MB       (max)       0.00 MB       (current)
 **********************************************************************************************************************************
   -->
   <time start="06:26:26" end="06:26:26" cpu="0.01" system="0.0" real="0.01"/>
   <storage units="megabyte" memory="8001.84" sf="0.06" df="317.68" eaf="2162.08" ga="0.0"/>
  </jobstep><!--
  --><jobstep command="MULTI" commandset="MULTI">
   <!--


 PROGRAM * MULTI (Direct Multiconfiguration SCF)       Authors: P.J. Knowles, H.-J. Werner (1984)     S.T. Elbert (1988)


 Number of frozen core orbitals:    4 (   1   1   1   0   1   0   0   0 )
 Number of active  orbitals:        6 (   3   0   0   1   0   1   1   0 )
 Number of external orbitals:     292 (  89  36  36  30  36  30  30   5 )

 State symmetry 1

 Orbital occupancy restrictions for symmetry 7
  1      1       200000

 Number of electrons:     5    Spin symmetry=Sextet    Space symmetry=7
 Number of states:        1
 Number of CSFs:          1

 State symmetry 2

 Orbital occupancy restrictions for symmetry 6
  1      1       200000

 Number of electrons:     5    Spin symmetry=Sextet    Space symmetry=6
 Number of states:        1
 Number of CSFs:          1

 State symmetry 3

 Orbital occupancy restrictions for symmetry 4
  1      1       200000

 Number of electrons:     5    Spin symmetry=Sextet    Space symmetry=4
 Number of states:        1
 Number of CSFs:          1

 State symmetry 4

 Orbital occupancy restrictions for symmetry 1
  1      1       200000

 Number of electrons:     5    Spin symmetry=Sextet    Space symmetry=1
 Number of states:        2
 Number of CSFs:          2

 ?Error: RHF not converged. This error exit can be avoided using the IGNORE_ERROR option on the ORBITAL directive
   --><error/><!--
  --></jobstep><!--
  -->
  <input>
  <!--
 --></job><!--
--></molpro>
