<?xml version="1.0"?>
<molpro xmlns="http://www.molpro.net/schema/molpro-output"
  xmlns:xsd="http://www.w3.org/1999/XMLSchema"
  xmlns:cml="http://www.xml-cml.org/schema"
  xmlns:stm="http://www.xml-cml.org/schema"
  xmlns:xhtml="http://www.w3.org/1999/xhtml">
 <!--

 Nodes     nprocs
 nid00861    11
 Number of processes for MPI-2 version of Molpro:   nprocs(total)=   12   nprocs(compute)=   11   nprocs(helper)=    1

 Using customized tuning parameters: mindgm=7; mindgv=16; mindgc=1; mindgr=1; noblas=0; minvec=7
 default implementation of scratch files=sf

 --><job>
  <!--

 Variables initialized (889), CPU time= 0.02 sec
 Commands  initialized (702), CPU time= 0.01 sec, 572 directives.
 Default parameters read. Elapsed time= 0.21 sec

 Checking input...
 Passed
1


                                         ***  PROGRAM SYSTEM MOLPRO  ***
                                       Copyright, TTI GmbH Stuttgart, 2015
                                    Version 2015.1 linked Dec 29 2018 15:55:43


 **********************************************************************************************************************************
 LABEL *   Calculation for Nb atom, singlet and triplet
  64 bit mpp version                                                                     DATE: 02-Oct-22          TIME: 16:39:50
 **********************************************************************************************************************************

 SHA1:             19cd028119e0e09f93f0674bd8af7968d9b3eff6
 **********************************************************************************************************************************
  -->
  <!--

Geometry recognized as XYZ


 THRESHOLDS:

 ZERO    =  1.00D-12  ONEINT  =  1.00D-12  TWOINT  =  1.00D-15  PREFAC  =  1.00D-14  LOCALI  =  1.00D-09  EORDER  =  1.00D-04
 ENERGY  =  0.00D+00  ETEST   =  0.00D+00  EDENS   =  0.00D+00  THRDEDEF=  1.00D-06  GRADIENT=  1.00D-02  STEP    =  1.00D-03
 ORBITAL =  1.00D-05  CIVEC   =  1.00D-05  COEFF   =  1.00D-04  PRINTCI =  5.00D-02  PUNCHCI =  9.90D+01  OPTGRAD =  3.00D-04
 OPTENERG=  1.00D-06  OPTSTEP =  3.00D-04  THRGRAD =  1.00D-10  COMPRESS=  1.00D-11  VARMIN  =  1.00D-07  VARMAX  =  1.00D-03
 THRDOUB =  0.00D+00  THRDIV  =  1.00D-05  THRRED  =  1.00D-07  THRPSP  =  1.00D+00  THRDC   =  1.00D-10  THRCS   =  1.00D-10
 THRNRM  =  1.00D-08  THREQ   =  0.00D+00  THRDE   =  1.00D+00  THRREF  =  1.00D-05  SPARFAC =  1.00D+00  THRDLP  =  1.00D-07
 THRDIA  =  1.00D-10  THRDLS  =  1.00D-07  THRGPS  =  0.00D+00  THRKEX  =  0.00D+00  THRDIS  =  2.00D-01  THRVAR  =  1.00D-10
 THRLOC  =  1.00D-06  THRGAP  =  1.00D-06  THRLOCT = -1.00D+00  THRGAPT = -1.00D+00  THRORB  =  1.00D-06  THRMLTP =  0.00D+00
 THRCPQCI=  1.00D-10  KEXTA   =  0.00D+00  THRCOARS=  0.00D+00  SYMTOL  =  1.00D-06  GRADTOL =  1.00D-06  THROVL  =  1.00D-08
 THRORTH =  1.00D-08  GRID    =  1.00D-06  GRIDMAX =  1.00D-03  DTMAX   =  0.00D+00  THROCCDE=  1.00D-01  THROCCDE=  1.00D-01



 THRESHOLDS:

 ZERO    =  1.00D-12  ONEINT  =  1.00D-15  TWOINT  =  1.00D-15  PREFAC  =  1.00D-14  LOCALI  =  1.00D-09  EORDER  =  1.00D-04
 ENERGY  =  0.00D+00  ETEST   =  0.00D+00  EDENS   =  0.00D+00  THRDEDEF=  1.00D-06  GRADIENT=  1.00D-02  STEP    =  1.00D-03
 ORBITAL =  1.00D-05  CIVEC   =  1.00D-05  COEFF   =  1.00D-04  PRINTCI =  5.00D-02  PUNCHCI =  9.90D+01  OPTGRAD =  3.00D-04
 OPTENERG=  1.00D-06  OPTSTEP =  3.00D-04  THRGRAD =  1.00D-10  COMPRESS=  1.00D-11  VARMIN  =  1.00D-07  VARMAX  =  1.00D-03
 THRDOUB =  0.00D+00  THRDIV  =  1.00D-05  THRRED  =  1.00D-07  THRPSP  =  1.00D+00  THRDC   =  1.00D-10  THRCS   =  1.00D-10
 THRNRM  =  1.00D-08  THREQ   =  0.00D+00  THRDE   =  1.00D+00  THRREF  =  1.00D-05  SPARFAC =  1.00D+00  THRDLP  =  1.00D-07
 THRDIA  =  1.00D-10  THRDLS  =  1.00D-07  THRGPS  =  0.00D+00  THRKEX  =  0.00D+00  THRDIS  =  2.00D-01  THRVAR  =  1.00D-10
 THRLOC  =  1.00D-06  THRGAP  =  1.00D-06  THRLOCT = -1.00D+00  THRGAPT = -1.00D+00  THRORB  =  1.00D-06  THRMLTP =  0.00D+00
 THRCPQCI=  1.00D-10  KEXTA   =  0.00D+00  THRCOARS=  0.00D+00  SYMTOL  =  1.00D-06  GRADTOL =  1.00D-06  THROVL  =  1.00D-08
 THRORTH =  1.00D-08  GRID    =  1.00D-06  GRIDMAX =  1.00D-03  DTMAX   =  0.00D+00  THROCCDE=  1.00D-01  THROCCDE=  1.00D-01



 Variable memory set to 1000000000 words,  buffer space   230000 words

 SETTING BASIS          =    USERDEF

 DO I                   =         1.00000000

 Running procedure=ID4S1
  --><jobstep command="RHF-SCF" commandset="SCFPRO">
   <!--


 Recomputing integrals since basis changed


 Using spherical harmonics



 PROGRAM * SEWARD (Integral evaluation for generally contracted gaussian basis sets)     Author: Roland Lindh, 1990

 Geometry written to block  1 of record 700

 Orientation using atomic masses
 Molecule type: Atom
 Symmetry elements: X,Y,Z
 Rotational constants:       0.0000000      0.0000000      0.0000000 GHz  (calculated with average atomic masses)

 Point group  D2h


   --><cml:molecule>
    <cml:symmetry pointGroup="D2h"/>
    <cml:atomArray>
     <cml:atom id="a1" elementType="Nb" x3="0.0" y3="0.0" z3="0.0"/>
    </cml:atomArray>
    <cml:bondArray>
    </cml:bondArray>
   </cml:molecule><!--

 ATOMIC COORDINATES

 NR  ATOM    CHARGE       X              Y              Z

   1  NB     13.00    0.000000000    0.000000000    0.000000000

 NUCLEAR CHARGE:                   13
 NUMBER OF PRIMITIVE AOS:         404
 NUMBER OF SYMMETRY AOS:          333
 NUMBER OF CONTRACTIONS:          333   (  93Ag  +  45B3u +  45B2u +  33B1g +  45B1u +  33B2g +  33B3g +   6Au  )
 NUMBER OF CORE ORBITALS:           4   (   1Ag  +   1B3u +   1B2u +   0B1g +   1B1u +   0B2g +   0B3g +   0Au  )
 NUMBER OF VALENCE ORBITALS:        6   (   3Ag  +   0B3u +   0B2u +   1B1g +   0B1u +   1B2g +   1B3g +   0Au  )


 NUCLEAR REPULSION ENERGY    0.00000000

 EXTRA SYMMETRY OF AOS IN SYMMETRY 1:   1 1 1 1 1 1 1 1 1 1   1 1 1 1 1 1 1 1 1 1   1 1 1 1 1 1 1 1 1 1   1 1 2 3 2 3 2 3 2 3
                                        2 3 2 3 2 3 2 3 2 3   2 3 2 3 2 3 2 3 2 3   2 3 2 3 2 3 2 3 2 3   2 3 2 3 2 3 2 3 4 5
                                        6 4 5 6 4 5 6 4 5 6   4 5 6
 EXTRA SYMMETRY OF AOS IN SYMMETRY 2:   1 1 1 1 1 1 1 1 1 1   1 1 1 1 1 1 1 1 1 1   1 1 1 1 1 1 1 1 1 1   1 1 1 2 3 2 3 2 3 2
                                        3 2 3 2 3
 EXTRA SYMMETRY OF AOS IN SYMMETRY 3:   1 1 1 1 1 1 1 1 1 1   1 1 1 1 1 1 1 1 1 1   1 1 1 1 1 1 1 1 1 1   1 1 1 2 3 2 3 2 3 2
                                        3 2 3 2 3
 EXTRA SYMMETRY OF AOS IN SYMMETRY 4:   1 1 1 1 1 1 1 1 1 1   1 1 1 1 1 1 1 1 1 1   1 1 1 2 3 2 3 2 3 2   3 2 3
 EXTRA SYMMETRY OF AOS IN SYMMETRY 5:   1 1 1 1 1 1 1 1 1 1   1 1 1 1 1 1 1 1 1 1   1 1 1 1 1 1 1 1 1 1   1 1 1 2 3 2 3 2 3 2
                                        3 2 3 2 3
 EXTRA SYMMETRY OF AOS IN SYMMETRY 6:   1 1 1 1 1 1 1 1 1 1   1 1 1 1 1 1 1 1 1 1   1 1 1 2 3 2 3 2 3 2   3 2 3
 EXTRA SYMMETRY OF AOS IN SYMMETRY 7:   1 1 1 1 1 1 1 1 1 1   1 1 1 1 1 1 1 1 1 1   1 1 1 2 3 2 3 2 3 2   3 2 3

 Eigenvalues of metric

         1 0.114E-04 0.314E-04 0.399E-04 0.399E-04 0.621E-04 0.128E-03 0.222E-03 0.664E-03
         2 0.339E-06 0.217E-05 0.607E-05 0.127E-04 0.264E-04 0.499E-04 0.360E-03 0.597E-03
         3 0.339E-06 0.217E-05 0.607E-05 0.127E-04 0.264E-04 0.499E-04 0.360E-03 0.597E-03
         4 0.399E-04 0.664E-03 0.112E-02 0.208E-02 0.393E-02 0.742E-02 0.137E-01 0.245E-01
         5 0.339E-06 0.217E-05 0.607E-05 0.127E-04 0.264E-04 0.499E-04 0.360E-03 0.597E-03
         6 0.399E-04 0.664E-03 0.112E-02 0.208E-02 0.393E-02 0.742E-02 0.137E-01 0.245E-01
         7 0.399E-04 0.664E-03 0.112E-02 0.208E-02 0.393E-02 0.742E-02 0.137E-01 0.245E-01
         8 0.453E-01 0.220E+00 0.464E+00 0.952E+00 0.183E+01 0.249E+01


 Contracted 2-electron integrals neglected if value below      1.0D-15
 AO integral compression algorithm  1   Integral accuracy      1.0D-15

     1579.680 MB (compressed) written to integral file ( 49.2%)

     Node minimum: 52.429 MB, node maximum: 204.997 MB


 NUMBER OF SORTED TWO-ELECTRON INTEGRALS:   18233120.     BUFFER LENGTH:  32768
 NUMBER OF SEGMENTS:   1  SEGMENT LENGTH:   18233120      RECORD LENGTH: 524288

 Memory used in sort:      18.79 MW

 SORT1 READ   400923133. AND WROTE    11987464. INTEGRALS IN     35 RECORDS. CPU TIME:     7.55 SEC, REAL TIME:     7.87 SEC
 SORT2 READ   131150808. AND WROTE   200699433. INTEGRALS IN   7931 RECORDS. CPU TIME:     0.47 SEC, REAL TIME:     0.84 SEC

 Node minimum:    18225073.  Node maximum:    18302042. integrals

 OPERATOR DM      FOR CENTER  0  COORDINATES:    0.000000    0.000000    0.000000


 **********************************************************************************************************************************
 DATASETS  * FILE   NREC   LENGTH (MB)   RECORD NAMES
              1      19       20.74       500      610      700      900      950      970     1000      129      960     1100
                                          VAR    BASINP    GEOM    SYMINP    ZMAT    AOBASIS   BASIS     P2S    ABASIS      S
                                         1400     1410     1420     1200     1210     1080     1600     1650     1700
                                           T        V       ECP      H0       H01     AOSYM     SMH    MOLCAS    OPER

 PROGRAMS   *        TOTAL       INT
 CPU TIMES  *       101.34    100.81
 REAL TIME  *       103.80 SEC
 DISK USED  *         3.19 GB
 GA USED    *         0.00 MB       (max)       0.00 MB       (current)
 **********************************************************************************************************************************


 PROGRAM * RHF-SCF (OPEN SHELL)       Authors: W. Meyer, H.-J. Werner


 NUMBER OF ELECTRONS:       9+    4-    SPACE SYMMETRY=1    SPIN SYMMETRY: Sextet
 CONVERGENCE THRESHOLDS:    1.00E-05 (Density)    1.00E-07 (Energy)
 MAX. NUMBER OF ITERATIONS:       60
 INTERPOLATION TYPE:            DIIS
 INTERPOLATION STEPS:              2 (START)      1 (STEP)
 LEVEL SHIFTS:                 -0.60 (CLOSED) -0.30 (OPEN)

 Number of closed-shell orbitals:    4 (   1   1   1   0   1   0   0   0 )
 Number of open-shell orbitals:      5 (   2   0   0   1   0   1   1   0 )



 Extra symmetries of mos in symmetry 1:   1   1   3   2
     Symmetry restrictions:    1             1
 Orbital guess generated from atomic densities. Full valence occupancy:    4   1   1   1   1   1   1   0


 Molecular orbital dump at record        3202.2

 ITERATION    DDIFF          GRAD             ENERGY        2-EL.EN.            DIPOLE MOMENTS         DIIS   ORB.
    1      0.000D+00      0.000D+00       -55.53721773     72.994991    0.00000    0.00000    0.00000    0    start
    2      0.000D+00      0.102D-01       -55.69217551     79.201003    0.00000    0.00000    0.00000    1    diag,B
    3      0.401D-02      0.492D-02       -55.70748364     79.243058    0.00000    0.00000    0.00000    2    diag,B
    4      0.162D-02      0.206D-02       -55.71678768     79.687498    0.00000    0.00000    0.00000    3    diag,B
    5      0.178D-02      0.503D-03       -55.71808063     79.880087    0.00000    0.00000    0.00000    4    diag,B
    6      0.929D-03      0.112D-03       -55.71815523     79.903915    0.00000    0.00000    0.00000    5    diag,B
    7      0.494D-03      0.315D-04       -55.71816108     79.902020    0.00000    0.00000    0.00000    6    fixocc
    8      0.202D-03      0.941D-05       -55.71816170     79.901316    0.00000    0.00000    0.00000    7    diag,B
    9      0.990D-04      0.574D-05       -55.71816203     79.900704    0.00000    0.00000    0.00000    8    diag,B
   10      0.410D-04      0.470D-05       -55.71816231     79.900471    0.00000    0.00000    0.00000    9    orth
   11      0.807D-05      0.447D-05       -55.71816260     79.900397    0.00000    0.00000    0.00000    9    diag,B
   12      0.653D-05      0.440D-05       -55.71816295     79.900425    0.00000    0.00000    0.00000    9    diag,B
   13      0.408D-05      0.436D-05       -55.71816326     79.900430    0.00000    0.00000    0.00000    9    diag,B
   14      0.304D-05      0.435D-05       -55.71816343     79.900439    0.00000    0.00000    0.00000    9    diag,B
   15      0.180D-05      0.434D-05       -55.71816378     79.900456    0.00000    0.00000    0.00000    9    diag,B
   16      0.319D-05      0.434D-05       -55.71816398     79.900464    0.00000    0.00000    0.00000    9    diag,B
   17      0.178D-05      0.434D-05       -55.71816506     79.900495    0.00000    0.00000    0.00000    9    diag,B
   18      0.963D-05      0.433D-05       -55.71816944     79.900631    0.00000    0.00000    0.00000    9    diag,B
   19      0.393D-04      0.435D-05       -55.71816947     79.900633    0.00000    0.00000    0.00000    9    diag,B
   20      0.316D-06      0.434D-05       -55.71816957     79.900551    0.00000    0.00000    0.00000    0    orth

 Final alpha occupancy:   3   1   1   1   1   1   1   0
 Final beta  occupancy:   1   1   1   0   1   0   0   0

 !RHF STATE 1.1 Energy                -55.718169569542
   --><property name="Energy" method="RHF" principal="true" stateSymmetry="1" stateNumber="1"
     value="-55.7181695695425"/><!--
 Nuclear energy                         0.00000000
 One-electron energy                  -95.66844485
 Two-electron energy                   39.95027528
 Virial quotient                       -3.01919333
 !RHF STATE 1.1 Dipole moment           0.00000000     0.00000000     0.00000000
 Dipole moment /Debye                   0.00000000     0.00000000     0.00000000
   --><property name="Dipole moment" method="RHF" principal="true" stateSymmetry="1"
     stateNumber="1" value="0.0 0.0 0.0"/><!--

 ELECTRON ORBITALS
 =================


   Orb  Occ    Energy  Couls-En    Coefficients

                                   1 1s      1 1s      1 1s      1 1s      1 1s      1 1s      1 1s      1 1s      1 1s      1 1s
                                   1 1s      1 1s      1 1s      1 1s      1 1s      1 1s      1 1s      1 1s      1 1s      1 1s
                                   1 1s      1 1s      1 1s      1 1s      1 1s      1 1s      1 1s      1 1s      1 1s      1 1s
                                   1 1s      1 1s      1 3d0     1 3d2+    1 3d0     1 3d2+    1 3d0     1 3d2+    1 3d0     1 3d2+
                                   1 3d0     1 3d2+    1 3d0     1 3d2+    1 3d0     1 3d2+    1 3d0     1 3d2+    1 3d0     1 3d2+
                                   1 3d0     1 3d2+    1 3d0     1 3d2+    1 3d0     1 3d2+    1 3d0     1 3d2+    1 3d0     1 3d2+
                                   1 3d0     1 3d2+    1 3d0     1 3d2+    1 3d0     1 3d2+    1 3d0     1 3d2+    1 3d0     1 3d2+
                                   1 3d0     1 3d2+    1 3d0     1 3d2+    1 3d0     1 3d2+    1 3d0     1 3d2+    1 5g0     1 5g4+
                                   1 5g2+    1 5g0     1 5g4+    1 5g2+    1 5g0     1 5g4+    1 5g2+    1 5g0     1 5g4+    1 5g2+
                                   1 5g0     1 5g4+    1 5g2+

   1.1   2    -2.5861  -12.0867 -0.000000  0.000000 -0.000000  0.000000 -0.000000  0.000000 -0.000001  0.000003 -0.000010  0.000062
                                -0.000179  0.000200 -0.000217  0.000619 -0.006623  0.009591 -0.007535  0.016647 -0.200023  0.374693
                                -0.305408 -0.696942  0.646394  0.470042  1.143223 -0.698341  0.134341 -0.044975  0.022451 -0.011678
                                 0.004821 -0.001377  0.000000 -0.000000 -0.000000  0.000000  0.000000 -0.000001 -0.000000  0.000002
                                 0.000000 -0.000001 -0.000000  0.000001  0.000000 -0.000002 -0.000001  0.000004  0.000001 -0.000004
                                -0.000006  0.000023 -0.000005  0.000010 -0.000006  0.000045  0.000060 -0.000029  0.000613 -0.002956
                                 0.000913 -0.004054  0.000852 -0.001620  0.000689 -0.000363  0.000499 -0.000495  0.000218 -0.000163
                                 0.000047 -0.000067  0.000000  0.000010  0.000000 -0.000003 -0.000000  0.000001 -0.000196 -0.000131
                                -0.000214 -0.000378 -0.000279 -0.000405 -0.000363 -0.000259 -0.000390 -0.000068 -0.000041 -0.000075
                                 0.000011  0.000008  0.000011

   2.1   +    -0.2276   -3.9190  0.000000 -0.000000  0.000000 -0.000000  0.000000 -0.000000  0.000000 -0.000001  0.000003 -0.000020
                                 0.000057 -0.000064  0.000069 -0.000197  0.002115 -0.003062  0.002414 -0.005366  0.067673 -0.130700
                                 0.121981  0.201240 -0.194750 -0.264701 -0.515881  0.161209  0.239606  0.732305  0.240204  0.021718
                                -0.006478  0.001923  0.000000 -0.000000 -0.000000  0.000000  0.000002 -0.000000 -0.000002  0.000001
                                 0.000002 -0.000001 -0.000002  0.000001  0.000002 -0.000001 -0.000006  0.000002  0.000005 -0.000001
                                -0.000033  0.000010 -0.000038  0.000017 -0.000025 -0.000002  0.000445 -0.000193  0.003415 -0.000953
                                 0.005443 -0.001269  0.006306 -0.002232  0.005880 -0.005399  0.004716 -0.007730  0.002675 -0.006326
                                 0.000806 -0.002123  0.000057 -0.000215  0.000002  0.000005 -0.000001 -0.000001 -0.000390 -0.000244
                                -0.000420 -0.000575 -0.000407 -0.000612 -0.002146 -0.001477 -0.002305 -0.001809 -0.001223 -0.001957
                                -0.000029 -0.000006 -0.000037

   3.1   +    -0.2782   -6.0330  0.000000 -0.000000  0.000000 -0.000000  0.000000 -0.000000  0.000000 -0.000000  0.000000 -0.000000
                                 0.000001 -0.000001  0.000001 -0.000002  0.000024 -0.000035  0.000028 -0.000062  0.000866 -0.001775
                                 0.002065  0.001583 -0.001992 -0.006280 -0.008903  0.001511  0.013206  0.020961  0.002931  0.000673
                                -0.000290  0.000087 -0.000001  0.000001  0.000005 -0.000005 -0.000050  0.000053  0.000079 -0.000084
                                -0.000054  0.000058  0.000056 -0.000060 -0.000074  0.000079  0.000201 -0.000215 -0.000157  0.000168
                                 0.001064 -0.001133  0.001219 -0.001299  0.000840 -0.000896 -0.014401  0.015339 -0.110412  0.117637
                                -0.176518  0.188091 -0.200933  0.214067 -0.174601  0.185837 -0.122397  0.130075 -0.054330  0.057611
                                -0.011583  0.012259 -0.000217  0.000225 -0.000077  0.000082  0.000027 -0.000029  0.001319 -0.001143
                                 0.001785  0.000934 -0.000898  0.001332  0.002424 -0.002462  0.003557  0.001396 -0.001603  0.002197
                                -0.000038  0.000012 -0.000032

   4.1   0     0.0090   -0.5035 -0.000000  0.000000 -0.000000  0.000000 -0.000000  0.000000 -0.000000  0.000000 -0.000000  0.000000
                                -0.000000  0.000000 -0.000000  0.000000 -0.000002  0.000002 -0.000002  0.000003 -0.000007  0.000012
                                -0.000022  0.000417 -0.000810  0.000693 -0.004167  0.004937 -0.002401  0.004282 -0.007193  0.015323
                                -0.029777  0.023142  0.000000  0.000000 -0.000001 -0.000001  0.000015  0.000015 -0.000024 -0.000023
                                 0.000017  0.000016 -0.000017 -0.000016  0.000025  0.000025 -0.000046 -0.000045  0.000088  0.000085
                                -0.000180 -0.000174  0.000347  0.000336 -0.000722 -0.000696  0.001524  0.001468 -0.002410 -0.002355
                                 0.006817  0.006537 -0.010919 -0.010592  0.024740  0.023833 -0.045325 -0.043803  0.088236  0.085144
                                -0.146950 -0.141886  0.193427  0.186718 -0.380126 -0.366962  0.935870  0.903471 -0.000000  0.000001
                                 0.000001  0.000001  0.000009  0.000005 -0.000002 -0.000005 -0.000004  0.000000  0.000002  0.000001
                                -0.000030 -0.000219 -0.000145

   5.1   0     0.0031   -0.5889 -0.000000  0.000000 -0.000000  0.000000 -0.000000  0.000000 -0.000000  0.000000 -0.000000  0.000003
                                -0.000007  0.000008 -0.000009  0.000025 -0.000262  0.000379 -0.000286  0.000581 -0.005741  0.010954
                                -0.010967  0.008249 -0.030891  0.060427 -0.186786  0.255622 -0.148414  0.158807 -0.430591  0.674687
                                -1.568983  1.982803 -0.000000 -0.000000  0.000000  0.000000 -0.000000 -0.000000  0.000000  0.000000
                                -0.000000 -0.000000  0.000000  0.000000 -0.000000 -0.000000  0.000000  0.000000 -0.000000 -0.000000
                                 0.000001  0.000001  0.000001 -0.000000  0.000001  0.000003 -0.000014 -0.000011 -0.000106 -0.000068
                                -0.000171 -0.000161 -0.000200 -0.000061 -0.000203 -0.000035 -0.000189  0.000541 -0.000141 -0.000400
                                -0.000097  0.000926 -0.000047 -0.002375 -0.000045 -0.000358  0.000125 -0.009807  0.000016  0.000011
                                 0.000017  0.000029  0.000021  0.000030  0.000084  0.000060  0.000090  0.000078  0.000056  0.000084
                                 0.000073  0.000066  0.000076

                                   1 2px     1 2px     1 2px     1 2px     1 2px     1 2px     1 2px     1 2px     1 2px     1 2px
                                   1 2px     1 2px     1 2px     1 2px     1 2px     1 2px     1 2px     1 2px     1 2px     1 2px
                                   1 2px     1 2px     1 2px     1 2px     1 2px     1 2px     1 2px     1 2px     1 2px     1 2px
                                   1 2px     1 2px     1 2px     1 4f1+    1 4f3+    1 4f1+    1 4f3+    1 4f1+    1 4f3+    1 4f1+
                                   1 4f3+    1 4f1+    1 4f3+    1 4f1+    1 4f3+

   1.2   2    -1.5293   -9.8318 -0.000000  0.000000 -0.000000  0.000000 -0.000001  0.000006 -0.000020  0.000022 -0.000025  0.000187
                                -0.000239  0.000126 -0.000191  0.000886 -0.002247  0.001975 -0.001156 -0.016803  0.038973 -0.011259
                                -0.059622 -0.129830  0.129190  0.407156  0.026839  0.421501  0.188132  0.029878  0.004237  0.000114
                                 0.000034 -0.000024  0.000008  0.000070 -0.001136  0.000225 -0.000650  0.000560 -0.005068 -0.000192
                                -0.002023 -0.000064  0.000345  0.000013 -0.000159

   2.2   0     0.0040   -0.5606  0.000000 -0.000000  0.000000 -0.000000  0.000000 -0.000003  0.000010 -0.000011  0.000012 -0.000090
                                 0.000115 -0.000059  0.000080 -0.000336  0.000752 -0.000710  0.000620 -0.001082  0.011360 -0.030910
                                 0.065965 -0.071908  0.045433 -0.089741  0.121900 -0.098100  0.044111 -0.046334  0.083960 -0.047129
                                 0.287145 -0.631802  1.361412 -0.000011  0.000009  0.000007  0.000013 -0.000055  0.000025 -0.000003
                                -0.000530  0.000136 -0.000822  0.000398 -0.001434

   3.2   0     0.0119   -1.1706 -0.000000  0.000000 -0.000000  0.000000 -0.000001  0.000003 -0.000011  0.000012 -0.000014  0.000100
                                -0.000126  0.000065 -0.000085  0.000349 -0.000748  0.000722 -0.000690  0.003415 -0.020282  0.044110
                                -0.081607  0.110500 -0.078208  0.068262 -0.164541  0.070665 -0.082395  0.094180  0.029858  0.368357
                                -0.421080  1.830279 -1.204367 -0.000039  0.000028  0.000022  0.000055 -0.000198  0.000078 -0.000019
                                -0.001938  0.000569 -0.003297  0.001261 -0.004671

                                   1 2py     1 2py     1 2py     1 2py     1 2py     1 2py     1 2py     1 2py     1 2py     1 2py
                                   1 2py     1 2py     1 2py     1 2py     1 2py     1 2py     1 2py     1 2py     1 2py     1 2py
                                   1 2py     1 2py     1 2py     1 2py     1 2py     1 2py     1 2py     1 2py     1 2py     1 2py
                                   1 2py     1 2py     1 2py     1 4f1-    1 4f3-    1 4f1-    1 4f3-    1 4f1-    1 4f3-    1 4f1-
                                   1 4f3-    1 4f1-    1 4f3-    1 4f1-    1 4f3-

   1.3   2    -1.5370   -9.8482 -0.000000  0.000000 -0.000000  0.000000 -0.000001  0.000006 -0.000020  0.000023 -0.000025  0.000189
                                -0.000241  0.000127 -0.000192  0.000892 -0.002260  0.001987 -0.001165 -0.016817  0.038828 -0.010691
                                -0.060605 -0.129301  0.128226  0.409289  0.027024  0.425141  0.185126  0.026229  0.003363  0.000034
                                 0.000061 -0.000036  0.000012  0.001259  0.000333 -0.000218 -0.000745  0.004310  0.000189  0.003895
                                 0.002233 -0.000130  0.000140  0.000156  0.000028

   2.3   0     0.0038   -0.5895  0.000000 -0.000000  0.000000 -0.000000  0.000000 -0.000003  0.000010 -0.000011  0.000012 -0.000090
                                 0.000114 -0.000059  0.000079 -0.000335  0.000750 -0.000708  0.000616 -0.000990  0.010996 -0.030354
                                 0.065266 -0.070316  0.044129 -0.090474  0.120203 -0.099260  0.042258 -0.044897  0.089740 -0.029962
                                 0.286079 -0.581910  1.321754  0.000067  0.000070 -0.000066 -0.000052  0.000356  0.000359  0.001059
                                 0.000496  0.000717 -0.000162 -0.000199 -0.001502

   3.3   0     0.0110   -1.2247 -0.000000  0.000000 -0.000000  0.000000 -0.000000  0.000003 -0.000009  0.000010 -0.000011  0.000083
                                -0.000106  0.000054 -0.000071  0.000288 -0.000613  0.000595 -0.000578  0.003211 -0.018201  0.038493
                                -0.069699  0.097450 -0.069878  0.052349 -0.142459  0.052728 -0.075584  0.084443  0.049118  0.375407
                                -0.348823  1.726638 -1.204946  0.000217  0.000225 -0.000213 -0.000162  0.001159  0.001159  0.003464
                                 0.001643  0.002281 -0.000767 -0.000309 -0.004115

                                   1 3d2-    1 3d2-    1 3d2-    1 3d2-    1 3d2-    1 3d2-    1 3d2-    1 3d2-    1 3d2-    1 3d2-
                                   1 3d2-    1 3d2-    1 3d2-    1 3d2-    1 3d2-    1 3d2-    1 3d2-    1 3d2-    1 3d2-    1 3d2-
                                   1 3d2-    1 3d2-    1 3d2-    1 5g2-    1 5g4-    1 5g2-    1 5g4-    1 5g2-    1 5g4-    1 5g2-
                                   1 5g4-    1 5g2-    1 5g4-

   1.4   +    -0.2956   -6.0882  0.000001 -0.000007  0.000074 -0.000116  0.000081 -0.000083  0.000110 -0.000298  0.000233 -0.001571
                                -0.001795 -0.001256  0.021170  0.162983  0.261295  0.297366  0.255726  0.173879  0.072222  0.013782
                                 0.000087  0.000107 -0.000038  0.000810 -0.000581  0.000594 -0.000524  0.001545 -0.001428  0.000910
                                -0.000957 -0.000023  0.000012

   2.4   0     0.0090   -0.5020  0.000000 -0.000002  0.000021 -0.000033  0.000023 -0.000022  0.000035 -0.000062  0.000121 -0.000237
                                 0.000502 -0.000998  0.001938 -0.004867  0.007109 -0.018016  0.031963 -0.065453  0.121509 -0.206416
                                 0.268883 -0.533377  1.303860 -0.000003  0.000001 -0.000002  0.000011 -0.000004 -0.000005 -0.000001
                                 0.000015 -0.000005 -0.000280

   3.4   0     0.0286   -0.7567 -0.000001  0.000006 -0.000060  0.000095 -0.000066  0.000065 -0.000100  0.000183 -0.000345  0.000718
                                -0.001321  0.002813 -0.006217  0.007089 -0.029953  0.038383 -0.099447  0.178936 -0.348948  0.613073
                                -0.837279  1.931934 -0.990584 -0.000018  0.000011 -0.000015  0.000053 -0.000022 -0.000011 -0.000005
                                 0.000034 -0.000031 -0.001603

                                   1 2pz     1 2pz     1 2pz     1 2pz     1 2pz     1 2pz     1 2pz     1 2pz     1 2pz     1 2pz
                                   1 2pz     1 2pz     1 2pz     1 2pz     1 2pz     1 2pz     1 2pz     1 2pz     1 2pz     1 2pz
                                   1 2pz     1 2pz     1 2pz     1 2pz     1 2pz     1 2pz     1 2pz     1 2pz     1 2pz     1 2pz
                                   1 2pz     1 2pz     1 2pz     1 4f0     1 4f2+    1 4f0     1 4f2+    1 4f0     1 4f2+    1 4f0
                                   1 4f2+    1 4f0     1 4f2+    1 4f0     1 4f2+

   1.5   2    -1.5337   -9.8408 -0.000000  0.000000 -0.000000  0.000000 -0.000001  0.000006 -0.000020  0.000023 -0.000025  0.000188
                                -0.000240  0.000126 -0.000192  0.000889 -0.002254  0.001982 -0.001161 -0.016810  0.038895 -0.010953
                                -0.060143 -0.129558  0.128667  0.408295  0.026983  0.423465  0.186454  0.027889  0.003790  0.000079
                                 0.000047 -0.000029  0.000010 -0.000992 -0.001432  0.000114 -0.000504 -0.003495 -0.005951 -0.002953
                                -0.003101  0.000128  0.000349 -0.000126 -0.000193

   2.5   0     0.0039   -0.5766  0.000000 -0.000000  0.000000 -0.000000  0.000000 -0.000003  0.000010 -0.000011  0.000012 -0.000090
                                 0.000114 -0.000059  0.000080 -0.000336  0.000752 -0.000711  0.000619 -0.001029  0.011165 -0.030639
                                 0.065678 -0.071099  0.044742 -0.090358  0.121121 -0.098974  0.043119 -0.045515  0.087513 -0.037308
                                 0.286637 -0.604302  1.339621 -0.000040 -0.000013  0.000044  0.000034 -0.000220 -0.000089 -0.000720
                                -0.000862 -0.000513 -0.001065 -0.000040 -0.001331

   3.5   0     0.0113   -1.2077 -0.000000  0.000000 -0.000000  0.000000 -0.000000  0.000003 -0.000010  0.000011 -0.000012  0.000089
                                -0.000113  0.000058 -0.000076  0.000309 -0.000660  0.000639 -0.000617  0.003296 -0.018977  0.040524
                                -0.073927  0.102206 -0.072966  0.057735 -0.150378  0.058836 -0.078033  0.088283  0.042780  0.373175
                                -0.376112  1.765011 -1.201739 -0.000138 -0.000047  0.000153  0.000122 -0.000759 -0.000316 -0.002485
                                -0.002956 -0.001767 -0.003875 -0.000289 -0.004154

                                   1 3d1+    1 3d1+    1 3d1+    1 3d1+    1 3d1+    1 3d1+    1 3d1+    1 3d1+    1 3d1+    1 3d1+
                                   1 3d1+    1 3d1+    1 3d1+    1 3d1+    1 3d1+    1 3d1+    1 3d1+    1 3d1+    1 3d1+    1 3d1+
                                   1 3d1+    1 3d1+    1 3d1+    1 5g1+    1 5g3+    1 5g1+    1 5g3+    1 5g1+    1 5g3+    1 5g1+
                                   1 5g3+    1 5g1+    1 5g3+

   1.6   +    -0.2809   -6.0426  0.000001 -0.000007  0.000073 -0.000115  0.000080 -0.000083  0.000109 -0.000295  0.000230 -0.001557
                                -0.001784 -0.001233  0.021064  0.161618  0.258509  0.294265  0.255269  0.178031  0.078145  0.016351
                                 0.000271  0.000112 -0.000039 -0.000499 -0.002182 -0.000330 -0.001646 -0.000823 -0.004405 -0.000424
                                -0.002733  0.000022  0.000042

   2.6   0     0.0090   -0.5017  0.000000 -0.000002  0.000021 -0.000033  0.000023 -0.000022  0.000035 -0.000062  0.000122 -0.000238
                                 0.000504 -0.001001  0.001941 -0.004904  0.007095 -0.018103  0.032000 -0.065683  0.121744 -0.207040
                                 0.269405 -0.535651  1.305090  0.000002  0.000009 -0.000001  0.000013  0.000005  0.000007 -0.000002
                                 0.000015  0.000091 -0.000172

   3.6   0     0.0287   -0.7555 -0.000001  0.000006 -0.000061  0.000095 -0.000067  0.000066 -0.000101  0.000185 -0.000347  0.000723
                                -0.001327  0.002830 -0.006267  0.007026 -0.030268  0.038419 -0.100199  0.179566 -0.351317  0.615953
                                -0.843698  1.935521 -0.990323  0.000012  0.000050 -0.000003  0.000070  0.000023  0.000049  0.000004
                                 0.000057  0.000523 -0.000981

                                   1 3d1-    1 3d1-    1 3d1-    1 3d1-    1 3d1-    1 3d1-    1 3d1-    1 3d1-    1 3d1-    1 3d1-
                                   1 3d1-    1 3d1-    1 3d1-    1 3d1-    1 3d1-    1 3d1-    1 3d1-    1 3d1-    1 3d1-    1 3d1-
                                   1 3d1-    1 3d1-    1 3d1-    1 5g1-    1 5g3-    1 5g1-    1 5g3-    1 5g1-    1 5g3-    1 5g1-
                                   1 5g3-    1 5g1-    1 5g3-

   1.7   +    -0.3133   -6.1383  0.000001 -0.000007  0.000075 -0.000117  0.000081 -0.000084  0.000111 -0.000300  0.000236 -0.001585
                                -0.001806 -0.001282  0.021269  0.164395  0.264317  0.300770  0.256083  0.169091  0.065889  0.011320
                                -0.000051  0.000101 -0.000036  0.000059 -0.000940  0.000021 -0.000764  0.000055 -0.001959  0.000024
                                -0.001170  0.000001  0.000038

   2.7   0     0.0090   -0.5025  0.000000 -0.000002  0.000021 -0.000032  0.000023 -0.000022  0.000035 -0.000062  0.000121 -0.000237
                                 0.000500 -0.000994  0.001935 -0.004831  0.007118 -0.017929  0.031915 -0.065204  0.121258 -0.205725
                                 0.268319 -0.530874  1.302501 -0.000000  0.000003  0.000002  0.000009 -0.000002 -0.000001  0.000004
                                 0.000010 -0.000071 -0.000194

   3.7   0     0.0284   -0.7581 -0.000001  0.000006 -0.000060  0.000094 -0.000066  0.000065 -0.000099  0.000182 -0.000343  0.000713
                                -0.001313  0.002795 -0.006165  0.007135 -0.029644  0.038296 -0.098652  0.178223 -0.346279  0.609918
                                -0.830114  1.927873 -0.990839 -0.000002  0.000019  0.000009  0.000046 -0.000008  0.000003  0.000011
                                 0.000021 -0.000402 -0.001105

                                   1 4f2-    1 4f2-    1 4f2-    1 4f2-    1 4f2-    1 4f2-

   1.8   0     0.1210   -1.2641 -0.002477  0.007300 -0.008190  0.054261 -0.236285  1.127840

   2.8   0     0.3469   -1.8525  0.015491 -0.021971  0.058565 -0.056636  1.298986 -0.650051

 HOMO      3.1    -0.278157 =      -7.5690eV
 LUMO      2.3     0.003846 =       0.1046eV
 LUMO-HOMO         0.282003 =       7.6737eV


 **********************************************************************************************************************************
 DATASETS  * FILE   NREC   LENGTH (MB)   RECORD NAMES
              1      19       20.78       500      610      700      900      950      970     1000      129      960     1100
                                          VAR    BASINP    GEOM    SYMINP    ZMAT    AOBASIS   BASIS     P2S    ABASIS      S
                                         1400     1410     1420     1200     1210     1080     1600     1650     1700
                                           T        V       ECP      H0       H01     AOSYM     SMH    MOLCAS    OPER

              2       5        5.90       200      700     1000      520     3202
                                        OPTIONS   GEOM     BASIS   MCVARS     RHF

 PROGRAMS   *        TOTAL       RHF       INT
 CPU TIMES  *       103.30      1.96    100.81
 REAL TIME  *       105.93 SEC
 DISK USED  *         3.51 GB
 SF USED    *         0.07 MB
 GA USED    *         0.00 MB       (max)       0.00 MB       (current)
 **********************************************************************************************************************************
   -->
   <time start="16:39:50" end="16:41:35" cpu="103.3" system="2.31" real="105.93"/>
   <storage units="megabyte" memory="8001.84" sf="0.07" df="323.51" eaf="3190.69" ga="0.0"/>
  </jobstep><!--
  --><jobstep command="POP" commandset="POP">
   <!--


 PROGRAM * POP (Mulliken population analysis)


 Density matrix read from record         3202.2  Type=RHF/CHARGE (state 1.1)

 Population analysis by basis function type

 Unique atom        s        p        d        f        g    Total    Charge
   1  NB      2.99971  5.99956  4.00006  0.00044  0.00024 13.00000  + 0.00000


 **********************************************************************************************************************************
 DATASETS  * FILE   NREC   LENGTH (MB)   RECORD NAMES
              1      19       20.78       500      610      700      900      950      970     1000      129      960     1100
                                          VAR    BASINP    GEOM    SYMINP    ZMAT    AOBASIS   BASIS     P2S    ABASIS      S
                                         1400     1410     1420     1200     1210     1080     1600     1650     1700
                                           T        V       ECP      H0       H01     AOSYM     SMH    MOLCAS    OPER

              2       5        5.90       200      700     1000      520     3202
                                        OPTIONS   GEOM     BASIS   MCVARS     RHF

 PROGRAMS   *        TOTAL       POP       RHF       INT
 CPU TIMES  *       103.31      0.00      1.96    100.81
 REAL TIME  *       105.94 SEC
 DISK USED  *         3.51 GB
 SF USED    *         0.07 MB
 GA USED    *         0.00 MB       (max)       0.00 MB       (current)
 **********************************************************************************************************************************
   -->
   <time start="16:41:35" end="16:41:35" cpu="0.01" system="0.01" real="0.01"/>
   <storage units="megabyte" memory="8001.84" sf="0.07" df="323.51" eaf="3190.69" ga="0.0"/>
  </jobstep><!--
  --><jobstep command="MULTI" commandset="MULTI">
   <!--


 PROGRAM * MULTI (Direct Multiconfiguration SCF)       Authors: P.J. Knowles, H.-J. Werner (1984)     S.T. Elbert (1988)


 Number of frozen core orbitals:    4 (   1   1   1   0   1   0   0   0 )
 Number of active  orbitals:        6 (   3   0   0   1   0   1   1   0 )
 Number of external orbitals:     323 (  89  44  44  32  44  32  32   6 )

 State symmetry 1

 Orbital occupancy restrictions for symmetry 7
  1      1       200000

 Number of electrons:     5    Spin symmetry=Sextet    Space symmetry=7
 Number of states:        1
 Number of CSFs:          1

 State symmetry 2

 Orbital occupancy restrictions for symmetry 6
  1      1       200000

 Number of electrons:     5    Spin symmetry=Sextet    Space symmetry=6
 Number of states:        1
 Number of CSFs:          1

 State symmetry 3

 Orbital occupancy restrictions for symmetry 4
  1      1       200000

 Number of electrons:     5    Spin symmetry=Sextet    Space symmetry=4
 Number of states:        1
 Number of CSFs:          1

 State symmetry 4

 Orbital occupancy restrictions for symmetry 1
  1      1       200000

 Number of electrons:     5    Spin symmetry=Sextet    Space symmetry=1
 Number of states:        2
 Number of CSFs:          2

 Maximum number of shells:             1
 Maximum number of spin couplings:     1

 Storage for configuration lists      46, coupling coefficients      5, address lists    266

 Valence orbitals read from record       3202.2  Type=RHF/CANONICAL (state 1.1)
 Frozen core orbitals read from record   3202.2  Type=RHF/CANONICAL (state 1.1)
 *** IN SYMMETRY 1 ORBITAL  1 SYMMETRY CONTAMINATION OF 0.345D-02 HAS BEEN REMOVED
 *** IN SYMMETRY 1 ORBITAL  2 SYMMETRY CONTAMINATION OF 0.235D-01 HAS BEEN REMOVED
 *** IN SYMMETRY 1 ORBITAL  3 SYMMETRY CONTAMINATION OF 0.508D+00 HAS BEEN REMOVED
 *** IN SYMMETRY 1 ORBITAL  4 SYMMETRY CONTAMINATION OF 0.504D+00 HAS BEEN REMOVED

 EXTRA SYMMETRY OF MOS IN SYMMETRY 1:   0 1 3 2 1 3 1 2 3 1   2 3 2 1 3 2 6 5 4 3   2 1 6 5 4 3 2 1 3 2   6 5 4 1 2 3 6 5 4 2
                                        3 1 6 5 4 2 3 1 2 3   1 2 3 1 2 3 1 2 3 1   2 3 1 2 3 1 2 3 1 2   3 1 2 3 2 3 1 2 3 1
                                        2 3 1 1 1 1 1 1 1 1   1 1 1
 *** IN SYMMETRY 2 ORBITAL  1 SYMMETRY CONTAMINATION OF 0.709D-02 HAS BEEN REMOVED
 EXTRA SYMMETRY OF MOS IN SYMMETRY 2:   0 1 1 1 1 3 2 1 3 2   1 2 3 1 3 2 1 3 2 1   1 3 2 1 1 1 1 1 1 1   1 1 1 1 1 1 1 1 1 1
                                        1 1 1 1 1
 *** IN SYMMETRY 3 ORBITAL  1 SYMMETRY CONTAMINATION OF 0.920D-02 HAS BEEN REMOVED
 EXTRA SYMMETRY OF MOS IN SYMMETRY 3:   0 1 1 1 1 2 3 1 2 3   1 2 3 1 2 3 1 2 3 1   1 2 3 1 1 1 1 1 1 1   1 1 1 1 1 1 1 1 1 1
                                        1 1 1 1 1
 *** IN SYMMETRY 4 ORBITAL  1 SYMMETRY CONTAMINATION OF 0.581D-02 HAS BEEN REMOVED
 EXTRA SYMMETRY OF MOS IN SYMMETRY 4:   1 1 1 1 1 3 2 1 2 3   1 1 2 3 1 2 3 1 3 2   1 1 1 1 1 1 1 1 1 1   1 1 1
 *** IN SYMMETRY 5 ORBITAL  1 SYMMETRY CONTAMINATION OF 0.130D-01 HAS BEEN REMOVED
 EXTRA SYMMETRY OF MOS IN SYMMETRY 5:   0 1 1 1 1 2 3 1 3 2   1 3 2 1 3 2 1 3 2 1   1 2 3 1 1 1 1 1 1 1   1 1 1 1 1 1 1 1 1 1
                                        1 1 1 1 1
 *** IN SYMMETRY 6 ORBITAL  1 SYMMETRY CONTAMINATION OF 0.102D-01 HAS BEEN REMOVED
 EXTRA SYMMETRY OF MOS IN SYMMETRY 6:   1 1 1 1 1 3 2 1 3 2   1 1 3 2 1 3 2 1 3 2   1 1 1 1 1 1 1 1 1 1   1 1 1
 *** IN SYMMETRY 7 ORBITAL  1 SYMMETRY CONTAMINATION OF 0.398D-02 HAS BEEN REMOVED
 EXTRA SYMMETRY OF MOS IN SYMMETRY 7:   1 1 1 1 1 2 3 1 2 3   1 1 2 3 1 2 3 1 2 3   1 1 1 1 1 1 1 1 1 1   1 1 1

 Wavefunction dump at record             4202.2

 Convergence thresholds  0.10E-01 (gradient)  0.10E-05 (energy)  0.10E-02 (step length)

 Weight factors for state symmetry  1:    0.20000
 Weight factors for state symmetry  2:    0.20000
 Weight factors for state symmetry  3:    0.20000
 Weight factors for state symmetry  4:    0.20000   0.20000

 Eigenvalues of redundancy matrix
   1-  3    0.000000    0.000000    1.000000

 Non-redundant active-active orbital rotations:
     1  2  3  4  5
  2
  3  +
  4
  5
  6

 Number of orbital rotations:      364   (     0 Core/Active      0 Core/Virtual   1 Active/Active    363 Active/Virtual)
 Total number of variables:        371


 ITER. MIC  NCI  NEG     ENERGY(VAR)     ENERGY(PROJ)   ENERGY CHANGE     GRAD(0)  GRAD(ORB)   GRAD(CI)     STEP       TIME

   1   57   16    3     -55.50834757     -55.74199241   -0.23364483    0.13143816 0.00000000 0.00000000  0.10D+01      0.67
   2   18   20    0     -55.69364523     -55.71511280   -0.02146757    0.12256283 0.00000001 0.00000000  0.21D+00      1.23
   3   18   20    0     -55.71595980     -55.71605431   -0.00009451    0.00794738 0.00000000 0.00000000  0.15D-01      1.76
   4   16   20    0     -55.71605460     -55.71605460   -0.00000000    0.00003604 0.00000000 0.00000000  0.68D-04      2.36

 ** WVFN ****  CONVERGENCE REACHED, FINAL GRADIENT:  0.74D-09



 Results for state 1.7
 =====================

 !MCSCF STATE 1.7 Energy              -55.716132572626
   --><property name="Energy" method="MCSCF" principal="true" stateSymmetry="7" stateNumber="1"
     value="-55.7161325726262"/><!--
 Nuclear energy                         0.00000000
 Kinetic energy                        18.44936750
 One electron energy                  -95.66600824
 Two electron energy                   39.94987567
 Virial ratio                           4.01994811

 !MCSCF STATE 1.7 Dipole moment         0.00000000     0.00000000     0.00000000
 Dipole moment /Debye                   0.00000000     0.00000000     0.00000000
   --><property name="Dipole moment" method="MCSCF" principal="true" stateSymmetry="7"
     stateNumber="1" value="0.0 0.0 0.0"/><!--



 Results for state 1.6
 =====================

 !MCSCF STATE 1.6 Energy              -55.715981017517
   --><property name="Energy" method="MCSCF" principal="true" stateSymmetry="6" stateNumber="1"
     value="-55.7159810175174"/><!--
 Nuclear energy                         0.00000000
 Kinetic energy                        18.44935707
 One electron energy                  -95.66593337
 Two electron energy                   39.94995235
 Virial ratio                           4.01994161

 !MCSCF STATE 1.6 Dipole moment         0.00000000     0.00000000     0.00000000
 Dipole moment /Debye                   0.00000000     0.00000000     0.00000000
   --><property name="Dipole moment" method="MCSCF" principal="true" stateSymmetry="6"
     stateNumber="1" value="0.0 0.0 0.0"/><!--



 Results for state 1.4
 =====================

 !MCSCF STATE 1.4 Energy              -55.716050200288
   --><property name="Energy" method="MCSCF" principal="true" stateSymmetry="4" stateNumber="1"
     value="-55.7160502002882"/><!--
 Nuclear energy                         0.00000000
 Kinetic energy                        18.44936060
 One electron energy                  -95.66596539
 Two electron energy                   39.94991519
 Virial ratio                           4.01994478

 !MCSCF STATE 1.4 Dipole moment         0.00000000     0.00000000     0.00000000
 Dipole moment /Debye                   0.00000000     0.00000000     0.00000000
   --><property name="Dipole moment" method="MCSCF" principal="true" stateSymmetry="4"
     stateNumber="1" value="0.0 0.0 0.0"/><!--



 Results for state 1.1
 =====================

 !MCSCF STATE 1.1 Energy              -55.716141900679
   --><property name="Energy" method="MCSCF" principal="true" stateSymmetry="1" stateNumber="1"
     value="-55.7161419006789"/><!--
 Nuclear energy                         0.00000000
 Kinetic energy                        18.44936177
 One electron energy                  -95.66596916
 Two electron energy                   39.94982726
 Virial ratio                           4.01994956

 !MCSCF STATE 1.1 Dipole moment         0.00000000     0.00000000     0.00000000
 Dipole moment /Debye                   0.00000000     0.00000000     0.00000000
   --><property name="Dipole moment" method="MCSCF" principal="true" stateSymmetry="1"
     stateNumber="1" value="0.0 0.0 0.0"/><!--

 Results for state 2.1
 =====================

 !MCSCF STATE 2.1 Energy              -55.715967293647
   --><property name="Energy" method="MCSCF" principal="true" stateSymmetry="1" stateNumber="2"
     value="-55.7159672936467"/><!--
 Nuclear energy                         0.00000000
 Kinetic energy                        18.44936166
 One electron energy                  -95.66596880
 Two electron energy                   39.95000151
 Virial ratio                           4.01994011

 !MCSCF STATE 2.1 Dipole moment         0.00000000     0.00000000     0.00000000
 Dipole moment /Debye                   0.00000000     0.00000000     0.00000000
   --><property name="Dipole moment" method="MCSCF" principal="true" stateSymmetry="1"
     stateNumber="2" value="0.0 0.0 0.0"/><!--

 State-averaged charge density matrix saved on record  4202.2 (density set 1)


 NATURAL ORBITALS (state averaged)
 =================================

   Orb     Occ        Energy       Coefficients

                                   1 1s      1 1s      1 1s      1 1s      1 1s      1 1s      1 1s      1 1s      1 1s      1 1s
                                   1 1s      1 1s      1 1s      1 1s      1 1s      1 1s      1 1s      1 1s      1 1s      1 1s
                                   1 1s      1 1s      1 1s      1 1s      1 1s      1 1s      1 1s      1 1s      1 1s      1 1s
                                   1 1s      1 1s      1 3d0     1 3d2+    1 3d0     1 3d2+    1 3d0     1 3d2+    1 3d0     1 3d2+
                                   1 3d0     1 3d2+    1 3d0     1 3d2+    1 3d0     1 3d2+    1 3d0     1 3d2+    1 3d0     1 3d2+
                                   1 3d0     1 3d2+    1 3d0     1 3d2+    1 3d0     1 3d2+    1 3d0     1 3d2+    1 3d0     1 3d2+
                                   1 3d0     1 3d2+    1 3d0     1 3d2+    1 3d0     1 3d2+    1 3d0     1 3d2+    1 3d0     1 3d2+
                                   1 3d0     1 3d2+    1 3d0     1 3d2+    1 3d0     1 3d2+    1 3d0     1 3d2+    1 5g0     1 5g4+
                                   1 5g2+    1 5g0     1 5g4+    1 5g2+    1 5g0     1 5g4+    1 5g2+    1 5g0     1 5g4+    1 5g2+
                                   1 5g0     1 5g4+    1 5g2+

   2.1  1.00000    -0.083364     0.000000 -0.000000  0.000000 -0.000000  0.000000 -0.000000  0.000000 -0.000001  0.000003 -0.000020
                                 0.000057 -0.000064  0.000069 -0.000197  0.002116 -0.003063  0.002415 -0.005369  0.067708 -0.130769
                                 0.122058  0.201307 -0.194821 -0.264954 -0.516212  0.161400  0.240185  0.732663  0.240019  0.021702
                                -0.006434  0.001915  0.000000  0.000000  0.000000  0.000000  0.000000  0.000000  0.000000  0.000000
                                 0.000000  0.000000  0.000000  0.000000  0.000000  0.000000  0.000000  0.000000  0.000000  0.000000
                                 0.000000  0.000000  0.000000  0.000000  0.000000  0.000000  0.000000  0.000000  0.000000  0.000000
                                 0.000000  0.000000  0.000000  0.000000  0.000000  0.000000  0.000000  0.000000  0.000000  0.000000
                                 0.000000  0.000000  0.000000  0.000000  0.000000  0.000000  0.000000  0.000000  0.000000  0.000000
                                 0.000000  0.000000  0.000000  0.000000  0.000000  0.000000  0.000000  0.000000  0.000000  0.000000
                                 0.000000  0.000000  0.000000

   3.1  0.80000     0.012380     0.000000  0.000000  0.000000  0.000000  0.000000  0.000000  0.000000  0.000000  0.000000  0.000000
                                 0.000000  0.000000  0.000000  0.000000  0.000000  0.000000  0.000000  0.000000  0.000000  0.000000
                                 0.000000  0.000000  0.000000  0.000000  0.000000  0.000000  0.000000  0.000000  0.000000  0.000000
                                 0.000000  0.000000  0.000001  0.000000 -0.000007  0.000000  0.000074  0.000000 -0.000116  0.000000
                                 0.000080  0.000000 -0.000083  0.000000  0.000109  0.000000 -0.000297  0.000000  0.000232  0.000000
                                -0.001566  0.000000 -0.001792  0.000000 -0.001247  0.000000  0.021135  0.000000  0.162532  0.000000
                                 0.260365  0.000000  0.296361  0.000000  0.255604  0.000000  0.175298  0.000000  0.074142  0.000000
                                 0.014582  0.000000  0.000131  0.000000  0.000109  0.000000 -0.000037  0.000000  0.000000  0.000000
                                 0.000000  0.000000  0.000000  0.000000  0.000000  0.000000  0.000000  0.000000  0.000000  0.000000
                                 0.000000  0.000000  0.000000

   4.1  0.80000     0.012372     0.000000  0.000000  0.000000  0.000000  0.000000  0.000000  0.000000  0.000000  0.000000  0.000000
                                 0.000000  0.000000  0.000000  0.000000  0.000000  0.000000  0.000000  0.000000  0.000000  0.000000
                                 0.000000  0.000000  0.000000  0.000000  0.000000  0.000000  0.000000  0.000000  0.000000  0.000000
                                 0.000000  0.000000  0.000000  0.000001  0.000000 -0.000007  0.000000  0.000074  0.000000 -0.000116
                                 0.000000  0.000080  0.000000 -0.000083  0.000000  0.000109  0.000000 -0.000297  0.000000  0.000232
                                 0.000000 -0.001566  0.000000 -0.001792  0.000000 -0.001247  0.000000  0.021134  0.000000  0.162532
                                 0.000000  0.260364  0.000000  0.296363  0.000000  0.255606  0.000000  0.175296  0.000000  0.074138
                                 0.000000  0.014580  0.000000  0.000131  0.000000  0.000109  0.000000 -0.000037  0.000000  0.000000
                                 0.000000  0.000000  0.000000  0.000000  0.000000  0.000000  0.000000  0.000000  0.000000  0.000000
                                 0.000000  0.000000  0.000000

                                   1 3d2-    1 3d2-    1 3d2-    1 3d2-    1 3d2-    1 3d2-    1 3d2-    1 3d2-    1 3d2-    1 3d2-
                                   1 3d2-    1 3d2-    1 3d2-    1 3d2-    1 3d2-    1 3d2-    1 3d2-    1 3d2-    1 3d2-    1 3d2-
                                   1 3d2-    1 3d2-    1 3d2-    1 5g2-    1 5g4-    1 5g2-    1 5g4-    1 5g2-    1 5g4-    1 5g2-
                                   1 5g4-    1 5g2-    1 5g4-

   1.4  0.80000     0.012372     0.000001 -0.000007  0.000074 -0.000116  0.000080 -0.000083  0.000109 -0.000297  0.000232 -0.001566
                                -0.001792 -0.001247  0.021134  0.162532  0.260364  0.296363  0.255606  0.175296  0.074138  0.014580
                                 0.000131  0.000109 -0.000037  0.000000  0.000000  0.000000  0.000000  0.000000  0.000000  0.000000
                                 0.000000  0.000000  0.000000

                                   1 3d1+    1 3d1+    1 3d1+    1 3d1+    1 3d1+    1 3d1+    1 3d1+    1 3d1+    1 3d1+    1 3d1+
                                   1 3d1+    1 3d1+    1 3d1+    1 3d1+    1 3d1+    1 3d1+    1 3d1+    1 3d1+    1 3d1+    1 3d1+
                                   1 3d1+    1 3d1+    1 3d1+    1 5g1+    1 5g3+    1 5g1+    1 5g3+    1 5g1+    1 5g3+    1 5g1+
                                   1 5g3+    1 5g1+    1 5g3+

   1.6  0.80000     0.012304     0.000001 -0.000007  0.000074 -0.000116  0.000080 -0.000083  0.000109 -0.000297  0.000232 -0.001566
                                -0.001792 -0.001247  0.021133  0.162530  0.260358  0.296372  0.255626  0.175290  0.074115  0.014569
                                 0.000130  0.000109 -0.000037  0.000000  0.000000  0.000000  0.000000  0.000000  0.000000  0.000000
                                 0.000000  0.000000  0.000000

                                   1 3d1-    1 3d1-    1 3d1-    1 3d1-    1 3d1-    1 3d1-    1 3d1-    1 3d1-    1 3d1-    1 3d1-
                                   1 3d1-    1 3d1-    1 3d1-    1 3d1-    1 3d1-    1 3d1-    1 3d1-    1 3d1-    1 3d1-    1 3d1-
                                   1 3d1-    1 3d1-    1 3d1-    1 5g1-    1 5g3-    1 5g1-    1 5g3-    1 5g1-    1 5g3-    1 5g1-
                                   1 5g3-    1 5g1-    1 5g3-

   1.7  0.80000     0.012453     0.000001 -0.000007  0.000074 -0.000116  0.000080 -0.000083  0.000109 -0.000297  0.000232 -0.001566
                                -0.001792 -0.001247  0.021136  0.162534  0.260371  0.296351  0.255582  0.175305  0.074166  0.014594
                                 0.000132  0.000109 -0.000037  0.000000  0.000000  0.000000  0.000000  0.000000  0.000000  0.000000
                                 0.000000  0.000000  0.000000


 EXTRA SYMMETRY OF MOS IN SYMMETRY 1:   0 1 2 3 1 3 2 1 3 2   1 2 3 1 2 3 4 6 5 2   3 1 4 6 5 2 3 1 2 3   4 6 5 1 2 3 4 6 5 3
                                        2 1 5 6 4 3 2 1 3 2   1 3 2 1 3 2 1 3 2 1   3 2 1 3 2 1 3 2 1 3   2 1 3 2 3 2 1 3 2 1
                                        3 2 1 1 1 1 1 1 1 1   1 1 1
 EXTRA SYMMETRY OF MOS IN SYMMETRY 2:   0 1 1 1 1 3 2 1 3 2   1 3 2 1 2 3 1 2 3 1   1 2 3 1 1 1 1 1 1 1   1 1 1 1 1 1 1 1 1 1
                                        1 1 1 1 1
 EXTRA SYMMETRY OF MOS IN SYMMETRY 3:   0 1 1 1 1 2 3 1 2 3   1 2 3 1 3 2 1 3 2 1   1 3 2 1 1 1 1 1 1 1   1 1 1 1 1 1 1 1 1 1
                                        1 1 1 1 1
 EXTRA SYMMETRY OF MOS IN SYMMETRY 4:   1 1 1 1 1 2 3 1 2 3   1 1 2 3 1 2 3 1 3 2   1 1 1 1 1 1 1 1 1 1   1 1 1
 EXTRA SYMMETRY OF MOS IN SYMMETRY 5:   0 1 1 1 1 2 3 1 2 3   1 2 3 1 3 2 1 3 2 1   1 3 2 1 1 1 1 1 1 1   1 1 1 1 1 1 1 1 1 1
                                        1 1 1 1 1
 EXTRA SYMMETRY OF MOS IN SYMMETRY 6:   1 1 1 1 1 3 2 1 3 2   1 1 3 2 1 3 2 1 2 3   1 1 1 1 1 1 1 1 1 1   1 1 1
 EXTRA SYMMETRY OF MOS IN SYMMETRY 7:   1 1 1 1 1 2 3 1 2 3   1 1 2 3 1 2 3 1 3 2   1 1 1 1 1 1 1 1 1 1   1 1 1

 Natural orbital dump (state averaged) at molpro section  4202.2    (Orbital set 2)


 CI vector for state symmetry 1
 ==============================

 /// / / 0          1.0000000

 TOTAL ENERGIES                       -55.71613257

 CI vector for state symmetry 2
 ==============================

 /// / 0 /          1.0000000

 TOTAL ENERGIES                       -55.71598102

 CI vector for state symmetry 3
 ==============================

 /// 0 / /          1.0000000

 TOTAL ENERGIES                       -55.71605020

 CI vector for state symmetry 4
 ==============================

 /0/ / / /          0.7246941   0.6890707
 //0 / / /         -0.6890707   0.7246941

 TOTAL ENERGIES                       -55.71614190   -55.71596729



 **********************************************************************************************************************************
 DATASETS  * FILE   NREC   LENGTH (MB)   RECORD NAMES
              1      20       24.89       500      610      700      900      950      970     1000      129      960     1100
                                          VAR    BASINP    GEOM    SYMINP    ZMAT    AOBASIS   BASIS     P2S    ABASIS      S
                                         1400     1410     1420     1200     1210     1080     1600     1650     1700     1380
                                           T        V       ECP      H0       H01     AOSYM     SMH    MOLCAS    OPER     JKOP

              2       6        9.05       200      700     1000      520     3202     4202
                                        OPTIONS   GEOM     BASIS   MCVARS     RHF     MCSCF

 PROGRAMS   *        TOTAL     MULTI       POP       RHF       INT
 CPU TIMES  *       106.02      2.70      0.00      1.96    100.81
 REAL TIME  *       108.80 SEC
 DISK USED  *         3.51 GB
 SF USED    *        26.76 MB
 GA USED    *         0.00 MB       (max)       0.00 MB       (current)
 **********************************************************************************************************************************
   -->
   <time start="16:41:35" end="16:41:38" cpu="2.71" system="0.13" real="2.86"/>
   <storage units="megabyte" memory="8001.84" sf="26.76" df="323.51" eaf="3190.69" ga="0.0"/>
  </jobstep><!--
  --><jobstep command="MULTI" commandset="MULTI">
   <!--


 PROGRAM * MULTI (Direct Multiconfiguration SCF)       Authors: P.J. Knowles, H.-J. Werner (1984)     S.T. Elbert (1988)


 Number of closed-shell orbitals:   4 (   1   1   1   0   1   0   0   0 )
 Number of active  orbitals:        6 (   3   0   0   1   0   1   1   0 )
 Number of external orbitals:     323 (  89  44  44  32  44  32  32   6 )

 State symmetry 1

 Orbital occupancy restrictions for symmetry 7
  1      1       200000

 Number of electrons:     5    Spin symmetry=Sextet    Space symmetry=7
 Number of states:        1
 Number of CSFs:          1

 State symmetry 2

 Orbital occupancy restrictions for symmetry 6
  1      1       200000

 Number of electrons:     5    Spin symmetry=Sextet    Space symmetry=6
 Number of states:        1
 Number of CSFs:          1

 State symmetry 3

 Orbital occupancy restrictions for symmetry 4
  1      1       200000

 Number of electrons:     5    Spin symmetry=Sextet    Space symmetry=4
 Number of states:        1
 Number of CSFs:          1

 State symmetry 4

 Orbital occupancy restrictions for symmetry 1
  1      1       200000

 Number of electrons:     5    Spin symmetry=Sextet    Space symmetry=1
 Number of states:        2
 Number of CSFs:          2

 Maximum number of shells:             1
 Maximum number of spin couplings:     1

 Storage for configuration lists      46, coupling coefficients      5, address lists    266

 Molecular orbitals read from record     4202.2  Type=MCSCF/NATURAL (state averaged)

 EXTRA SYMMETRY OF MOS IN SYMMETRY 1:   1 1 2 3 1 3 2 1 3 2   1 2 3 1 2 3 4 6 5 2   3 1 4 6 5 2 3 1 2 3   4 6 5 1 2 3 4 6 5 3
                                        2 1 5 6 4 3 2 1 3 2   1 3 2 1 3 2 1 3 2 1   3 2 1 3 2 1 3 2 1 3   2 1 3 2 3 2 1 3 2 1
                                        3 2 1 1 1 1 1 1 1 1   1 1 1
 EXTRA SYMMETRY OF MOS IN SYMMETRY 2:   1 1 1 1 1 3 2 1 3 2   1 3 2 1 2 3 1 2 3 1   1 2 3 1 1 1 1 1 1 1   1 1 1 1 1 1 1 1 1 1
                                        1 1 1 1 1
 EXTRA SYMMETRY OF MOS IN SYMMETRY 3:   1 1 1 1 1 2 3 1 2 3   1 2 3 1 3 2 1 3 2 1   1 3 2 1 1 1 1 1 1 1   1 1 1 1 1 1 1 1 1 1
                                        1 1 1 1 1
 EXTRA SYMMETRY OF MOS IN SYMMETRY 4:   1 1 1 1 1 2 3 1 2 3   1 1 2 3 1 2 3 1 3 2   1 1 1 1 1 1 1 1 1 1   1 1 1
 EXTRA SYMMETRY OF MOS IN SYMMETRY 5:   1 1 1 1 1 2 3 1 2 3   1 2 3 1 3 2 1 3 2 1   1 3 2 1 1 1 1 1 1 1   1 1 1 1 1 1 1 1 1 1
                                        1 1 1 1 1
 EXTRA SYMMETRY OF MOS IN SYMMETRY 6:   1 1 1 1 1 3 2 1 3 2   1 1 3 2 1 3 2 1 2 3   1 1 1 1 1 1 1 1 1 1   1 1 1
 EXTRA SYMMETRY OF MOS IN SYMMETRY 7:   1 1 1 1 1 2 3 1 2 3   1 1 2 3 1 2 3 1 3 2   1 1 1 1 1 1 1 1 1 1   1 1 1

 Wavefunction dump at record             5202.2

 Convergence thresholds  0.10E-01 (gradient)  0.10E-05 (energy)  0.10E-02 (step length)

 Weight factors for state symmetry  1:    0.20000
 Weight factors for state symmetry  2:    0.20000
 Weight factors for state symmetry  3:    0.20000
 Weight factors for state symmetry  4:    0.20000   0.20000

 Eigenvalues of redundancy matrix
   1-  3    0.000000    0.000000    1.000000

 Non-redundant active-active orbital rotations:
     1  2  3  4  5
  2
  3  +
  4
  5
  6

 Number of orbital rotations:      588   (     3 Core/Active    221 Core/Virtual   1 Active/Active    363 Active/Virtual)
 Total number of variables:        595


 ITER. MIC  NCI  NEG     ENERGY(VAR)     ENERGY(PROJ)   ENERGY CHANGE     GRAD(0)  GRAD(ORB)   GRAD(CI)     STEP       TIME

   1   18   28    0     -55.71605460     -55.71609821   -0.00004361    0.01224634 0.00000000 0.00000000  0.38D-02      0.87
   2   26   24    0     -55.71609821     -55.71609821   -0.00000000    0.00000358 0.00000000 0.00000000  0.80D-05      1.49

 ** WVFN ****  CONVERGENCE REACHED, FINAL GRADIENT:  0.17D-10



 Results for state 1.7
 =====================

 !MCSCF STATE 1.7 Energy              -55.716098208758
   --><property name="Energy" method="MCSCF" principal="true" stateSymmetry="7" stateNumber="1"
     value="-55.7160982087579"/><!--
 Nuclear energy                         0.00000000
 Kinetic energy                        18.44991384
 One electron energy                  -95.66640657
 Two electron energy                   39.95030836
 Virial ratio                           4.01985682

 !MCSCF STATE 1.7 Dipole moment         0.00000000     0.00000000     0.00000000
 Dipole moment /Debye                   0.00000000     0.00000000     0.00000000
   --><property name="Dipole moment" method="MCSCF" principal="true" stateSymmetry="7"
     stateNumber="1" value="0.0 0.0 0.0"/><!--



 Results for state 1.6
 =====================

 !MCSCF STATE 1.6 Energy              -55.716098208758
   --><property name="Energy" method="MCSCF" principal="true" stateSymmetry="6" stateNumber="1"
     value="-55.7160982087579"/><!--
 Nuclear energy                         0.00000000
 Kinetic energy                        18.44991384
 One electron energy                  -95.66640657
 Two electron energy                   39.95030836
 Virial ratio                           4.01985682

 !MCSCF STATE 1.6 Dipole moment         0.00000000     0.00000000     0.00000000
 Dipole moment /Debye                   0.00000000     0.00000000     0.00000000
   --><property name="Dipole moment" method="MCSCF" principal="true" stateSymmetry="6"
     stateNumber="1" value="0.0 0.0 0.0"/><!--



 Results for state 1.4
 =====================

 !MCSCF STATE 1.4 Energy              -55.716098208758
   --><property name="Energy" method="MCSCF" principal="true" stateSymmetry="4" stateNumber="1"
     value="-55.7160982087579"/><!--
 Nuclear energy                         0.00000000
 Kinetic energy                        18.44991384
 One electron energy                  -95.66640657
 Two electron energy                   39.95030836
 Virial ratio                           4.01985682

 !MCSCF STATE 1.4 Dipole moment         0.00000000     0.00000000     0.00000000
 Dipole moment /Debye                   0.00000000     0.00000000     0.00000000
   --><property name="Dipole moment" method="MCSCF" principal="true" stateSymmetry="4"
     stateNumber="1" value="0.0 0.0 0.0"/><!--



 Results for state 1.1
 =====================

 !MCSCF STATE 1.1 Energy              -55.716098208758
   --><property name="Energy" method="MCSCF" principal="true" stateSymmetry="1" stateNumber="1"
     value="-55.7160982087579"/><!--
 Nuclear energy                         0.00000000
 Kinetic energy                        18.44991384
 One electron energy                  -95.66640657
 Two electron energy                   39.95030836
 Virial ratio                           4.01985682

 !MCSCF STATE 1.1 Dipole moment         0.00000000     0.00000000     0.00000000
 Dipole moment /Debye                   0.00000000     0.00000000     0.00000000
   --><property name="Dipole moment" method="MCSCF" principal="true" stateSymmetry="1"
     stateNumber="1" value="0.0 0.0 0.0"/><!--

 Results for state 2.1
 =====================

 !MCSCF STATE 2.1 Energy              -55.716098208758
   --><property name="Energy" method="MCSCF" principal="true" stateSymmetry="1" stateNumber="2"
     value="-55.7160982087579"/><!--
 Nuclear energy                         0.00000000
 Kinetic energy                        18.44991384
 One electron energy                  -95.66640657
 Two electron energy                   39.95030836
 Virial ratio                           4.01985682

 !MCSCF STATE 2.1 Dipole moment         0.00000000     0.00000000     0.00000000
 Dipole moment /Debye                   0.00000000     0.00000000     0.00000000
   --><property name="Dipole moment" method="MCSCF" principal="true" stateSymmetry="1"
     stateNumber="2" value="0.0 0.0 0.0"/><!--

 State-averaged charge density matrix saved on record  5202.2 (density set 1)


 NATURAL ORBITALS (state averaged)
 =================================

   Orb     Occ        Energy       Coefficients

                                   1 1s      1 1s      1 1s      1 1s      1 1s      1 1s      1 1s      1 1s      1 1s      1 1s
                                   1 1s      1 1s      1 1s      1 1s      1 1s      1 1s      1 1s      1 1s      1 1s      1 1s
                                   1 1s      1 1s      1 1s      1 1s      1 1s      1 1s      1 1s      1 1s      1 1s      1 1s
                                   1 1s      1 1s      1 3d0     1 3d2+    1 3d0     1 3d2+    1 3d0     1 3d2+    1 3d0     1 3d2+
                                   1 3d0     1 3d2+    1 3d0     1 3d2+    1 3d0     1 3d2+    1 3d0     1 3d2+    1 3d0     1 3d2+
                                   1 3d0     1 3d2+    1 3d0     1 3d2+    1 3d0     1 3d2+    1 3d0     1 3d2+    1 3d0     1 3d2+
                                   1 3d0     1 3d2+    1 3d0     1 3d2+    1 3d0     1 3d2+    1 3d0     1 3d2+    1 3d0     1 3d2+
                                   1 3d0     1 3d2+    1 3d0     1 3d2+    1 3d0     1 3d2+    1 3d0     1 3d2+    1 5g0     1 5g4+
                                   1 5g2+    1 5g0     1 5g4+    1 5g2+    1 5g0     1 5g4+    1 5g2+    1 5g0     1 5g4+    1 5g2+
                                   1 5g0     1 5g4+    1 5g2+

   1.1  2.00000    -2.586453    -0.000000  0.000000 -0.000000  0.000000 -0.000000  0.000000 -0.000001  0.000003 -0.000010  0.000062
                                -0.000179  0.000200 -0.000217  0.000619 -0.006624  0.009592 -0.007535  0.016648 -0.200036  0.374717
                                -0.305429 -0.697005  0.646479  0.470095  1.143159 -0.698356  0.134372 -0.044929  0.022448 -0.011676
                                 0.004819 -0.001377  0.000000  0.000000  0.000000  0.000000  0.000000  0.000000  0.000000  0.000000
                                 0.000000  0.000000  0.000000  0.000000  0.000000  0.000000  0.000000  0.000000  0.000000  0.000000
                                 0.000000  0.000000  0.000000  0.000000  0.000000  0.000000  0.000000  0.000000  0.000000  0.000000
                                 0.000000  0.000000  0.000000  0.000000  0.000000  0.000000  0.000000  0.000000  0.000000  0.000000
                                 0.000000  0.000000  0.000000  0.000000  0.000000  0.000000  0.000000  0.000000  0.000000  0.000000
                                 0.000000  0.000000  0.000000  0.000000  0.000000  0.000000  0.000000  0.000000  0.000000  0.000000
                                 0.000000  0.000000  0.000000

   2.1  1.00000    -0.083364     0.000000 -0.000000  0.000000 -0.000000  0.000000 -0.000000  0.000000 -0.000001  0.000003 -0.000020
                                 0.000057 -0.000064  0.000069 -0.000197  0.002116 -0.003063  0.002415 -0.005369  0.067712 -0.130777
                                 0.122062  0.201322 -0.194823 -0.264964 -0.516245  0.161398  0.240179  0.732673  0.240018  0.021702
                                -0.006434  0.001915  0.000000  0.000000  0.000000  0.000000  0.000000  0.000000  0.000000  0.000000
                                 0.000000  0.000000  0.000000  0.000000  0.000000  0.000000  0.000000  0.000000  0.000000  0.000000
                                 0.000000  0.000000  0.000000  0.000000  0.000000  0.000000  0.000000  0.000000  0.000000  0.000000
                                 0.000000  0.000000  0.000000  0.000000  0.000000  0.000000  0.000000  0.000000  0.000000  0.000000
                                 0.000000  0.000000  0.000000  0.000000  0.000000  0.000000  0.000000  0.000000  0.000000  0.000000
                                 0.000000  0.000000  0.000000  0.000000  0.000000  0.000000  0.000000  0.000000  0.000000  0.000000
                                 0.000000  0.000000  0.000000

   3.1  0.80000     0.012392     0.000000  0.000000  0.000000  0.000000  0.000000  0.000000  0.000000  0.000000  0.000000  0.000000
                                 0.000000  0.000000  0.000000  0.000000  0.000000  0.000000  0.000000  0.000000  0.000000  0.000000
                                 0.000000  0.000000  0.000000  0.000000  0.000000  0.000000  0.000000  0.000000  0.000000  0.000000
                                 0.000000  0.000000  0.000000  0.000001  0.000000 -0.000007  0.000000  0.000074  0.000000 -0.000116
                                 0.000000  0.000080  0.000000 -0.000083  0.000000  0.000109  0.000000 -0.000297  0.000000  0.000232
                                 0.000000 -0.001566  0.000000 -0.001792  0.000000 -0.001246  0.000000  0.021132  0.000000  0.162519
                                 0.000000  0.260349  0.000000  0.296354  0.000000  0.255612  0.000000  0.175316  0.000000  0.074157
                                 0.000000  0.014587  0.000000  0.000131  0.000000  0.000109  0.000000 -0.000037  0.000000  0.000000
                                 0.000000  0.000000  0.000000  0.000000  0.000000  0.000000  0.000000  0.000000  0.000000  0.000000
                                 0.000000  0.000000  0.000000

   4.1  0.80000     0.012392     0.000000  0.000000  0.000000  0.000000  0.000000  0.000000  0.000000  0.000000  0.000000  0.000000
                                 0.000000  0.000000  0.000000  0.000000  0.000000  0.000000  0.000000  0.000000  0.000000  0.000000
                                 0.000000  0.000000  0.000000  0.000000  0.000000  0.000000  0.000000  0.000000  0.000000  0.000000
                                 0.000000  0.000000  0.000001  0.000000 -0.000007  0.000000  0.000074  0.000000 -0.000116  0.000000
                                 0.000080  0.000000 -0.000083  0.000000  0.000109  0.000000 -0.000297  0.000000  0.000232  0.000000
                                -0.001566  0.000000 -0.001792  0.000000 -0.001246  0.000000  0.021132  0.000000  0.162519  0.000000
                                 0.260349  0.000000  0.296354  0.000000  0.255612  0.000000  0.175316  0.000000  0.074157  0.000000
                                 0.014587  0.000000  0.000131  0.000000  0.000109  0.000000 -0.000037  0.000000  0.000000  0.000000
                                 0.000000  0.000000  0.000000  0.000000  0.000000  0.000000  0.000000  0.000000  0.000000  0.000000
                                 0.000000  0.000000  0.000000

                                   1 2px     1 2px     1 2px     1 2px     1 2px     1 2px     1 2px     1 2px     1 2px     1 2px
                                   1 2px     1 2px     1 2px     1 2px     1 2px     1 2px     1 2px     1 2px     1 2px     1 2px
                                   1 2px     1 2px     1 2px     1 2px     1 2px     1 2px     1 2px     1 2px     1 2px     1 2px
                                   1 2px     1 2px     1 2px     1 4f1+    1 4f3+    1 4f1+    1 4f3+    1 4f1+    1 4f3+    1 4f1+
                                   1 4f3+    1 4f1+    1 4f3+    1 4f1+    1 4f3+

   1.2  2.00000    -1.533556    -0.000000  0.000000 -0.000000  0.000000 -0.000001  0.000006 -0.000020  0.000023 -0.000025  0.000188
                                -0.000240  0.000126 -0.000192  0.000889 -0.002254  0.001982 -0.001161 -0.016812  0.038905 -0.010975
                                -0.060122 -0.129588  0.128723  0.408303  0.026986  0.423367  0.186525  0.027977  0.003795  0.000075
                                 0.000047 -0.000030  0.000010  0.000000  0.000000  0.000000  0.000000  0.000000  0.000000  0.000000
                                 0.000000  0.000000  0.000000  0.000000  0.000000

                                   1 2py     1 2py     1 2py     1 2py     1 2py     1 2py     1 2py     1 2py     1 2py     1 2py
                                   1 2py     1 2py     1 2py     1 2py     1 2py     1 2py     1 2py     1 2py     1 2py     1 2py
                                   1 2py     1 2py     1 2py     1 2py     1 2py     1 2py     1 2py     1 2py     1 2py     1 2py
                                   1 2py     1 2py     1 2py     1 4f1-    1 4f3-    1 4f1-    1 4f3-    1 4f1-    1 4f3-    1 4f1-
                                   1 4f3-    1 4f1-    1 4f3-    1 4f1-    1 4f3-

   1.3  2.00000    -1.533556    -0.000000  0.000000 -0.000000  0.000000 -0.000001  0.000006 -0.000020  0.000023 -0.000025  0.000188
                                -0.000240  0.000126 -0.000192  0.000889 -0.002254  0.001982 -0.001161 -0.016812  0.038905 -0.010975
                                -0.060122 -0.129588  0.128723  0.408303  0.026986  0.423367  0.186525  0.027977  0.003795  0.000075
                                 0.000047 -0.000030  0.000010  0.000000  0.000000  0.000000  0.000000  0.000000  0.000000  0.000000
                                 0.000000  0.000000  0.000000  0.000000  0.000000

                                   1 3d2-    1 3d2-    1 3d2-    1 3d2-    1 3d2-    1 3d2-    1 3d2-    1 3d2-    1 3d2-    1 3d2-
                                   1 3d2-    1 3d2-    1 3d2-    1 3d2-    1 3d2-    1 3d2-    1 3d2-    1 3d2-    1 3d2-    1 3d2-
                                   1 3d2-    1 3d2-    1 3d2-    1 5g2-    1 5g4-    1 5g2-    1 5g4-    1 5g2-    1 5g4-    1 5g2-
                                   1 5g4-    1 5g2-    1 5g4-

   1.4  0.80000     0.012392     0.000001 -0.000007  0.000074 -0.000116  0.000080 -0.000083  0.000109 -0.000297  0.000232 -0.001566
                                -0.001792 -0.001246  0.021132  0.162519  0.260349  0.296354  0.255612  0.175316  0.074157  0.014587
                                 0.000131  0.000109 -0.000037  0.000000  0.000000  0.000000  0.000000  0.000000  0.000000  0.000000
                                 0.000000  0.000000  0.000000

                                   1 2pz     1 2pz     1 2pz     1 2pz     1 2pz     1 2pz     1 2pz     1 2pz     1 2pz     1 2pz
                                   1 2pz     1 2pz     1 2pz     1 2pz     1 2pz     1 2pz     1 2pz     1 2pz     1 2pz     1 2pz
                                   1 2pz     1 2pz     1 2pz     1 2pz     1 2pz     1 2pz     1 2pz     1 2pz     1 2pz     1 2pz
                                   1 2pz     1 2pz     1 2pz     1 4f0     1 4f2+    1 4f0     1 4f2+    1 4f0     1 4f2+    1 4f0
                                   1 4f2+    1 4f0     1 4f2+    1 4f0     1 4f2+

   1.5  2.00000    -1.533556    -0.000000  0.000000 -0.000000  0.000000 -0.000001  0.000006 -0.000020  0.000023 -0.000025  0.000188
                                -0.000240  0.000126 -0.000192  0.000889 -0.002254  0.001982 -0.001161 -0.016812  0.038905 -0.010975
                                -0.060122 -0.129588  0.128723  0.408303  0.026986  0.423367  0.186525  0.027977  0.003795  0.000075
                                 0.000047 -0.000030  0.000010  0.000000  0.000000  0.000000  0.000000  0.000000  0.000000  0.000000
                                 0.000000  0.000000  0.000000  0.000000  0.000000

                                   1 3d1+    1 3d1+    1 3d1+    1 3d1+    1 3d1+    1 3d1+    1 3d1+    1 3d1+    1 3d1+    1 3d1+
                                   1 3d1+    1 3d1+    1 3d1+    1 3d1+    1 3d1+    1 3d1+    1 3d1+    1 3d1+    1 3d1+    1 3d1+
                                   1 3d1+    1 3d1+    1 3d1+    1 5g1+    1 5g3+    1 5g1+    1 5g3+    1 5g1+    1 5g3+    1 5g1+
                                   1 5g3+    1 5g1+    1 5g3+

   1.6  0.80000     0.012392     0.000001 -0.000007  0.000074 -0.000116  0.000080 -0.000083  0.000109 -0.000297  0.000232 -0.001566
                                -0.001792 -0.001246  0.021132  0.162519  0.260349  0.296354  0.255612  0.175316  0.074157  0.014587
                                 0.000131  0.000109 -0.000037  0.000000  0.000000  0.000000  0.000000  0.000000  0.000000  0.000000
                                 0.000000  0.000000  0.000000

                                   1 3d1-    1 3d1-    1 3d1-    1 3d1-    1 3d1-    1 3d1-    1 3d1-    1 3d1-    1 3d1-    1 3d1-
                                   1 3d1-    1 3d1-    1 3d1-    1 3d1-    1 3d1-    1 3d1-    1 3d1-    1 3d1-    1 3d1-    1 3d1-
                                   1 3d1-    1 3d1-    1 3d1-    1 5g1-    1 5g3-    1 5g1-    1 5g3-    1 5g1-    1 5g3-    1 5g1-
                                   1 5g3-    1 5g1-    1 5g3-

   1.7  0.80000     0.012392     0.000001 -0.000007  0.000074 -0.000116  0.000080 -0.000083  0.000109 -0.000297  0.000232 -0.001566
                                -0.001792 -0.001246  0.021132  0.162519  0.260349  0.296354  0.255612  0.175316  0.074157  0.014587
                                 0.000131  0.000109 -0.000037  0.000000  0.000000  0.000000  0.000000  0.000000  0.000000  0.000000
                                 0.000000  0.000000  0.000000


 EXTRA SYMMETRY OF MOS IN SYMMETRY 1:   1 1 3 2 1 2 3 1 3 2   1 2 3 1 2 3 4 6 5 3   2 1 5 6 4 3 2 1 2 3   4 6 5 1 2 3 4 5 6 3
                                        2 1 6 4 5 2 3 1 2 3   1 2 3 1 2 3 1 2 3 1   3 2 1 3 2 1 3 2 1 3   2 1 3 2 3 2 1 3 2 1
                                        3 2 1 1 1 1 1 1 1 1   1 1 1
 EXTRA SYMMETRY OF MOS IN SYMMETRY 2:   1 1 1 1 1 2 3 1 2 3   1 2 3 1 2 3 1 3 2 1   1 3 2 1 1 1 1 1 1 1   1 1 1 1 1 1 1 1 1 1
                                        1 1 1 1 1
 EXTRA SYMMETRY OF MOS IN SYMMETRY 3:   1 1 1 1 1 3 2 1 2 3   1 3 2 1 2 3 1 2 3 1   1 2 3 1 1 1 1 1 1 1   1 1 1 1 1 1 1 1 1 1
                                        1 1 1 1 1
 EXTRA SYMMETRY OF MOS IN SYMMETRY 4:   1 1 1 1 1 2 3 1 2 3   1 1 3 2 1 3 2 1 2 3   1 1 1 1 1 1 1 1 1 1   1 1 1
 EXTRA SYMMETRY OF MOS IN SYMMETRY 5:   1 1 1 1 1 2 3 1 3 2   1 2 3 1 3 2 1 3 2 1   1 3 2 1 1 1 1 1 1 1   1 1 1 1 1 1 1 1 1 1
                                        1 1 1 1 1
 EXTRA SYMMETRY OF MOS IN SYMMETRY 6:   1 1 1 1 1 2 3 1 2 3   1 1 2 3 1 3 2 1 3 2   1 1 1 1 1 1 1 1 1 1   1 1 1
 EXTRA SYMMETRY OF MOS IN SYMMETRY 7:   1 1 1 1 1 3 2 1 3 2   1 1 3 2 1 2 3 1 2 3   1 1 1 1 1 1 1 1 1 1   1 1 1

[...]

   1.1   2    -2.4887  -11.9713 -0.000000  0.000000 -0.000000  0.000000 -0.000000  0.000000 -0.000001  0.000003 -0.000010  0.000062
                                -0.000177  0.000198 -0.000215  0.000613 -0.006566  0.009509 -0.007470  0.016505 -0.198256  0.371290
                                -0.302228 -0.691896  0.644444  0.454059  1.136204 -0.683664  0.139083 -0.041486  0.023758 -0.011673
                                 0.004833 -0.001381  0.000000  0.000000 -0.000000 -0.000000  0.000000  0.000000 -0.000000 -0.000000
                                 0.000000  0.000000 -0.000000 -0.000000  0.000000  0.000000 -0.000000 -0.000000  0.000000 -0.000000
                                -0.000000 -0.000000  0.000000 -0.000000 -0.000000  0.000000  0.000000  0.000000 -0.000000  0.000000
                                 0.000000  0.000000  0.000000  0.000000  0.000000 -0.000000 -0.000000  0.000000  0.000000  0.000000
                                -0.000000  0.000000  0.000000 -0.000000 -0.000000  0.000000  0.000000 -0.000000  0.000000  0.000000
                                -0.000000 -0.000000 -0.000000 -0.000000 -0.000000 -0.000000  0.000000  0.000000  0.000000 -0.000000
                                 0.000000  0.000000  0.000000

   2.1   +    -0.2137   -5.7946 -0.000000  0.000000 -0.000000  0.000000 -0.000000  0.000000 -0.000000  0.000000 -0.000000  0.000000
                                -0.000000  0.000000 -0.000000  0.000000 -0.000000  0.000000 -0.000000  0.000000 -0.000000  0.000000
                                -0.000000 -0.000000  0.000000  0.000001  0.000001 -0.000000 -0.000001 -0.000001 -0.000000 -0.000000
                                 0.000000 -0.000000  0.000000  0.000001 -0.000003 -0.000006  0.000032  0.000061 -0.000050 -0.000095
                                 0.000035  0.000066 -0.000036 -0.000068  0.000047  0.000090 -0.000129 -0.000244  0.000099  0.000189
                                -0.000679 -0.001291 -0.000793 -0.001506 -0.000514 -0.000977  0.009095  0.017277  0.070717  0.134341
                                 0.113283  0.215205  0.130477  0.247869  0.117809  0.223804  0.090926  0.172733  0.050565  0.096059
                                 0.016451  0.031253  0.001394  0.002649  0.000093  0.000176 -0.000039 -0.000074 -0.000000 -0.000000
                                 0.000000  0.000000  0.000000  0.000000 -0.000000 -0.000000  0.000000  0.000000  0.000000 -0.000000
                                -0.000000 -0.000000  0.000000

   3.1   +    -0.2137   -5.7946  0.000000 -0.000000  0.000000 -0.000000  0.000000 -0.000000  0.000000 -0.000000  0.000000 -0.000000
                                 0.000000 -0.000000 -0.000000  0.000000 -0.000000  0.000000 -0.000000  0.000000 -0.000000  0.000000
                                -0.000000  0.000000 -0.000000  0.000000 -0.000000  0.000000 -0.000000  0.000000 -0.000000  0.000000
                                -0.000000  0.000000  0.000001 -0.000000 -0.000006  0.000003  0.000061 -0.000032 -0.000095  0.000050
                                 0.000066 -0.000035 -0.000068  0.000036  0.000090 -0.000047 -0.000244  0.000129  0.000189 -0.000099
                                -0.001291  0.000679 -0.001506  0.000793 -0.000977  0.000514  0.017277 -0.009095  0.134341 -0.070717
                                 0.215205 -0.113283  0.247869 -0.130477  0.223804 -0.117809  0.172733 -0.090926  0.096059 -0.050565
                                 0.031253 -0.016451  0.002649 -0.001394  0.000177 -0.000093 -0.000074  0.000039  0.000000  0.000000
                                -0.000000 -0.000000 -0.000000  0.000000  0.000000  0.000000 -0.000000  0.000000  0.000000 -0.000000
                                 0.000000 -0.000000  0.000000

   4.1   0    -0.0081   -2.5181  0.000000 -0.000000  0.000000 -0.000000  0.000000 -0.000000  0.000000 -0.000001  0.000002 -0.000011
                                 0.000033 -0.000037  0.000040 -0.000113  0.001214 -0.001757  0.001387 -0.003094  0.039168 -0.075466
                                 0.069453  0.123806 -0.125034 -0.136288 -0.326487  0.147554  0.039642  0.266328  0.245709  0.332475
                                 0.220357  0.109461 -0.000000  0.000000  0.000000 -0.000000 -0.000000  0.000000  0.000000 -0.000000
                                -0.000000  0.000000  0.000000 -0.000000 -0.000000  0.000000  0.000000 -0.000000 -0.000000  0.000000
                                 0.000000 -0.000000 -0.000000  0.000000  0.000000 -0.000000 -0.000000  0.000000  0.000000  0.000000
                                 0.000000  0.000001  0.000000 -0.000000  0.000000  0.000002  0.000000 -0.000003  0.000001  0.000008
                                -0.000001 -0.000013  0.000001  0.000018 -0.000007 -0.000039  0.000003  0.000019  0.000000 -0.000000
                                -0.000000 -0.000000  0.000000  0.000000  0.000000 -0.000000 -0.000000 -0.000000  0.000000  0.000000
                                 0.000000 -0.000000 -0.000000

   5.1   0     0.0041   -0.6526 -0.000000  0.000000 -0.000000  0.000000 -0.000000  0.000000 -0.000000  0.000000 -0.000001  0.000005
                                -0.000015  0.000017 -0.000018  0.000052 -0.000554  0.000802 -0.000617  0.001304 -0.014514  0.027809
                                -0.026588 -0.013726 -0.013735  0.099061 -0.169054  0.285305 -0.182367  0.167340 -0.569078  0.786994
                                -2.077353  2.223120 -0.000000 -0.000000  0.000000  0.000000 -0.000000 -0.000000  0.000000  0.000000
                                -0.000000 -0.000000  0.000000  0.000000 -0.000000 -0.000000  0.000000  0.000000 -0.000000 -0.000000
                                 0.000000  0.000000 -0.000000 -0.000000  0.000000  0.000000 -0.000000 -0.000000  0.000000  0.000000
                                -0.000000 -0.000001  0.000001  0.000001 -0.000002 -0.000002  0.000003  0.000004 -0.000006 -0.000008
                                 0.000010  0.000014 -0.000014 -0.000019  0.000030  0.000042 -0.000036 -0.000055 -0.000000 -0.000000
                                 0.000000  0.000000  0.000000 -0.000000 -0.000000 -0.000000  0.000000  0.000000 -0.000000 -0.000000
                                -0.000000  0.000000  0.000000

                                   1 2px     1 2px     1 2px     1 2px     1 2px     1 2px     1 2px     1 2px     1 2px     1 2px
                                   1 2px     1 2px     1 2px     1 2px     1 2px     1 2px     1 2px     1 2px     1 2px     1 2px
                                   1 2px     1 2px     1 2px     1 2px     1 2px     1 2px     1 2px     1 2px     1 2px     1 2px
                                   1 2px     1 2px     1 2px     1 4f1+    1 4f3+    1 4f1+    1 4f3+    1 4f1+    1 4f3+    1 4f1+
                                   1 4f3+    1 4f1+    1 4f3+    1 4f1+    1 4f3+

   1.2   2    -1.4478   -9.7345 -0.000000  0.000000 -0.000000  0.000000 -0.000001  0.000006 -0.000020  0.000022 -0.000025  0.000185
                                -0.000237  0.000124 -0.000189  0.000877 -0.002224  0.001954 -0.001142 -0.016682  0.038668 -0.011148
                                -0.058799 -0.129509  0.128445  0.402744  0.024878  0.419239  0.195567  0.033091  0.004027  0.000177
                                 0.000009 -0.000011  0.000004  0.000000  0.000000 -0.000000 -0.000000  0.000000  0.000000  0.000000
                                 0.000000 -0.000000 -0.000000  0.000000  0.000000

   2.2   0     0.0042   -0.5113  0.000000 -0.000000  0.000000 -0.000000  0.000000 -0.000003  0.000009 -0.000010  0.000011 -0.000084
                                 0.000106 -0.000055  0.000074 -0.000309  0.000688 -0.000652  0.000577 -0.001298  0.011576 -0.030036
                                 0.062422 -0.070865  0.045880 -0.079204  0.117050 -0.085943  0.045314 -0.049268  0.058863 -0.089869
                                 0.281424 -0.704893  1.421923 -0.000000 -0.000000  0.000000  0.000000 -0.000000 -0.000000 -0.000000
                                -0.000000 -0.000000 -0.000000  0.000000  0.000000

   3.2   0     0.0146   -0.8289 -0.000000  0.000000 -0.000000  0.000000 -0.000001  0.000007 -0.000021  0.000024 -0.000027  0.000195
                                -0.000248  0.000128 -0.000170  0.000712 -0.001569  0.001494 -0.001346  0.003909 -0.030033  0.073912
                                -0.148977  0.177634 -0.118112  0.172807 -0.285383  0.186749 -0.119823  0.128708 -0.109219  0.305182
                                -0.761436  2.315124 -1.319474 -0.000000 -0.000000  0.000000  0.000000 -0.000000 -0.000000 -0.000000
                                -0.000000 -0.000000 -0.000000  0.000000  0.000000

                                   1 2py     1 2py     1 2py     1 2py     1 2py     1 2py     1 2py     1 2py     1 2py     1 2py
                                   1 2py     1 2py     1 2py     1 2py     1 2py     1 2py     1 2py     1 2py     1 2py     1 2py
                                   1 2py     1 2py     1 2py     1 2py     1 2py     1 2py     1 2py     1 2py     1 2py     1 2py
                                   1 2py     1 2py     1 2py     1 4f1-    1 4f3-    1 4f1-    1 4f3-    1 4f1-    1 4f3-    1 4f1-
                                   1 4f3-    1 4f1-    1 4f3-    1 4f1-    1 4f3-

   1.3   2    -1.4478   -9.7345 -0.000000  0.000000 -0.000000  0.000000 -0.000001  0.000006 -0.000020  0.000022 -0.000025  0.000185
                                -0.000237  0.000124 -0.000189  0.000877 -0.002224  0.001954 -0.001142 -0.016682  0.038668 -0.011148
                                -0.058799 -0.129509  0.128445  0.402744  0.024878  0.419239  0.195567  0.033091  0.004027  0.000177
                                 0.000009 -0.000011  0.000004  0.000000  0.000000 -0.000000 -0.000000  0.000000  0.000000  0.000000
                                 0.000000 -0.000000 -0.000000  0.000000  0.000000

   2.3   0     0.0042   -0.5113  0.000000 -0.000000  0.000000 -0.000000  0.000000 -0.000003  0.000009 -0.000010  0.000011 -0.000084
                                 0.000106 -0.000055  0.000074 -0.000309  0.000688 -0.000652  0.000577 -0.001298  0.011576 -0.030036
                                 0.062422 -0.070865  0.045880 -0.079204  0.117050 -0.085943  0.045314 -0.049268  0.058863 -0.089869
                                 0.281424 -0.704894  1.421923 -0.000000 -0.000000  0.000000  0.000000 -0.000000 -0.000000 -0.000000
                                -0.000000 -0.000000 -0.000000  0.000000  0.000000

   3.3   0     0.0146   -0.8289 -0.000000  0.000000 -0.000000  0.000000 -0.000001  0.000007 -0.000021  0.000024 -0.000027  0.000195
                                -0.000248  0.000128 -0.000170  0.000712 -0.001569  0.001494 -0.001346  0.003909 -0.030033  0.073912
                                -0.148977  0.177634 -0.118112  0.172807 -0.285383  0.186749 -0.119823  0.128708 -0.109219  0.305182
                                -0.761436  2.315124 -1.319474 -0.000000 -0.000000  0.000000  0.000000 -0.000000 -0.000000 -0.000000
                                -0.000000 -0.000000 -0.000000  0.000000  0.000000

                                   1 3d2-    1 3d2-    1 3d2-    1 3d2-    1 3d2-    1 3d2-    1 3d2-    1 3d2-    1 3d2-    1 3d2-
                                   1 3d2-    1 3d2-    1 3d2-    1 3d2-    1 3d2-    1 3d2-    1 3d2-    1 3d2-    1 3d2-    1 3d2-
                                   1 3d2-    1 3d2-    1 3d2-    1 5g2-    1 5g4-    1 5g2-    1 5g4-    1 5g2-    1 5g4-    1 5g2-
                                   1 5g4-    1 5g2-    1 5g4-

   1.4   +    -0.2137   -5.7946  0.000001 -0.000006  0.000069 -0.000108  0.000075 -0.000077  0.000101 -0.000276  0.000214 -0.001459
                                -0.001702 -0.001104  0.019525  0.151817  0.243200  0.280113  0.252918  0.195203  0.108554  0.035319
                                 0.002994  0.000199 -0.000083 -0.000000  0.000000  0.000000  0.000000  0.000000  0.000000  0.000000
                                 0.000000  0.000000  0.000000

   2.4   0     0.0090   -0.5018  0.000000 -0.000002  0.000021 -0.000032  0.000023 -0.000022  0.000035 -0.000062  0.000121 -0.000235
                                 0.000506 -0.000997  0.001910 -0.005097  0.006730 -0.018436  0.031475 -0.065994  0.120781 -0.207159
                                 0.268429 -0.534372  1.304533  0.000000  0.000000 -0.000000 -0.000000  0.000000  0.000000 -0.000000
                                -0.000000  0.000000  0.000000

   3.4   0     0.0287   -0.7535 -0.000001  0.000006 -0.000062  0.000096 -0.000068  0.000066 -0.000102  0.000187 -0.000350  0.000735
                                -0.001323  0.002847 -0.006393  0.006176 -0.031774  0.036858 -0.102386  0.177728 -0.356568  0.615112
                                -0.850861  1.941909 -0.993030  0.000000  0.000000 -0.000000 -0.000000  0.000000  0.000000 -0.000000
                                -0.000000  0.000000  0.000000

                                   1 2pz     1 2pz     1 2pz     1 2pz     1 2pz     1 2pz     1 2pz     1 2pz     1 2pz     1 2pz
                                   1 2pz     1 2pz     1 2pz     1 2pz     1 2pz     1 2pz     1 2pz     1 2pz     1 2pz     1 2pz
                                   1 2pz     1 2pz     1 2pz     1 2pz     1 2pz     1 2pz     1 2pz     1 2pz     1 2pz     1 2pz
                                   1 2pz     1 2pz     1 2pz     1 4f0     1 4f2+    1 4f0     1 4f2+    1 4f0     1 4f2+    1 4f0
                                   1 4f2+    1 4f0     1 4f2+    1 4f0     1 4f2+

   1.5   2    -1.4478   -9.7345 -0.000000  0.000000 -0.000000  0.000000 -0.000001  0.000006 -0.000020  0.000022 -0.000025  0.000185
                                -0.000237  0.000124 -0.000189  0.000877 -0.002224  0.001954 -0.001142 -0.016682  0.038668 -0.011148
                                -0.058799 -0.129509  0.128445  0.402744  0.024878  0.419239  0.195567  0.033091  0.004027  0.000177
                                 0.000009 -0.000011  0.000004  0.000000  0.000000 -0.000000 -0.000000  0.000000  0.000000  0.000000
                                 0.000000 -0.000000 -0.000000  0.000000  0.000000

   2.5   0     0.0042   -0.5113  0.000000 -0.000000  0.000000 -0.000000  0.000000 -0.000003  0.000009 -0.000010  0.000011 -0.000084
                                 0.000106 -0.000055  0.000074 -0.000309  0.000688 -0.000652  0.000577 -0.001298  0.011576 -0.030036
                                 0.062422 -0.070865  0.045880 -0.079204  0.117050 -0.085943  0.045314 -0.049268  0.058863 -0.089869
                                 0.281424 -0.704893  1.421923 -0.000000 -0.000000  0.000000  0.000000 -0.000000 -0.000000 -0.000000
                                -0.000000 -0.000000 -0.000000  0.000000  0.000000

   3.5   0     0.0146   -0.8289 -0.000000  0.000000 -0.000000  0.000000 -0.000001  0.000007 -0.000021  0.000024 -0.000027  0.000195
                                -0.000248  0.000128 -0.000170  0.000712 -0.001569  0.001494 -0.001346  0.003909 -0.030033  0.073912
                                -0.148977  0.177634 -0.118112  0.172807 -0.285383  0.186749 -0.119823  0.128708 -0.109219  0.305182
                                -0.761436  2.315124 -1.319474 -0.000000 -0.000000  0.000000  0.000000 -0.000000 -0.000000 -0.000000
                                -0.000000 -0.000000 -0.000000  0.000000  0.000000

                                   1 3d1+    1 3d1+    1 3d1+    1 3d1+    1 3d1+    1 3d1+    1 3d1+    1 3d1+    1 3d1+    1 3d1+
                                   1 3d1+    1 3d1+    1 3d1+    1 3d1+    1 3d1+    1 3d1+    1 3d1+    1 3d1+    1 3d1+    1 3d1+
                                   1 3d1+    1 3d1+    1 3d1+    1 5g1+    1 5g3+    1 5g1+    1 5g3+    1 5g1+    1 5g3+    1 5g1+
                                   1 5g3+    1 5g1+    1 5g3+

   1.6   +    -0.2137   -5.7946  0.000001 -0.000006  0.000069 -0.000108  0.000075 -0.000077  0.000101 -0.000276  0.000214 -0.001459
                                -0.001702 -0.001104  0.019525  0.151817  0.243200  0.280113  0.252918  0.195203  0.108554  0.035319
                                 0.002994  0.000199 -0.000083 -0.000000  0.000000  0.000000  0.000000  0.000000  0.000000  0.000000
                                 0.000000  0.000000  0.000000

   2.6   0     0.0090   -0.5018  0.000000 -0.000002  0.000021 -0.000032  0.000023 -0.000022  0.000035 -0.000062  0.000121 -0.000235
                                 0.000506 -0.000997  0.001910 -0.005097  0.006730 -0.018436  0.031475 -0.065994  0.120781 -0.207159
                                 0.268429 -0.534372  1.304533  0.000000  0.000000 -0.000000 -0.000000  0.000000  0.000000 -0.000000
                                -0.000000  0.000000  0.000000

   3.6   0     0.0287   -0.7535 -0.000001  0.000006 -0.000062  0.000096 -0.000068  0.000066 -0.000102  0.000187 -0.000350  0.000735
                                -0.001323  0.002847 -0.006393  0.006176 -0.031774  0.036858 -0.102386  0.177728 -0.356568  0.615112
                                -0.850861  1.941909 -0.993030  0.000000  0.000000 -0.000000 -0.000000  0.000000  0.000000 -0.000000
                                -0.000000  0.000000  0.000000

                                   1 3d1-    1 3d1-    1 3d1-    1 3d1-    1 3d1-    1 3d1-    1 3d1-    1 3d1-    1 3d1-    1 3d1-
                                   1 3d1-    1 3d1-    1 3d1-    1 3d1-    1 3d1-    1 3d1-    1 3d1-    1 3d1-    1 3d1-    1 3d1-
                                   1 3d1-    1 3d1-    1 3d1-    1 5g1-    1 5g3-    1 5g1-    1 5g3-    1 5g1-    1 5g3-    1 5g1-
                                   1 5g3-    1 5g1-    1 5g3-

   1.7   +    -0.2137   -5.7946  0.000001 -0.000006  0.000069 -0.000108  0.000075 -0.000077  0.000101 -0.000276  0.000214 -0.001459
                                -0.001702 -0.001104  0.019525  0.151817  0.243200  0.280113  0.252918  0.195203  0.108554  0.035319
                                 0.002994  0.000199 -0.000083  0.000000  0.000000  0.000000  0.000000  0.000000  0.000000  0.000000
                                 0.000000  0.000000  0.000000

   2.7   0     0.0090   -0.5018  0.000000 -0.000002  0.000021 -0.000032  0.000023 -0.000022  0.000035 -0.000062  0.000121 -0.000235
                                 0.000506 -0.000997  0.001910 -0.005097  0.006730 -0.018436  0.031475 -0.065994  0.120781 -0.207159
                                 0.268429 -0.534372  1.304533  0.000000  0.000000 -0.000000 -0.000000  0.000000  0.000000 -0.000000
                                -0.000000  0.000000  0.000000

   3.7   0     0.0287   -0.7535 -0.000001  0.000006 -0.000062  0.000096 -0.000068  0.000066 -0.000102  0.000187 -0.000350  0.000735
                                -0.001323  0.002847 -0.006393  0.006176 -0.031774  0.036858 -0.102386  0.177728 -0.356568  0.615112
                                -0.850861  1.941909 -0.993030  0.000000  0.000000 -0.000000 -0.000000  0.000000  0.000000 -0.000000
                                -0.000000  0.000000  0.000000

                                   1 4f2-    1 4f2-    1 4f2-    1 4f2-    1 4f2-    1 4f2-

   1.8   0     0.1215   -1.2598 -0.002605  0.007393 -0.008652  0.053205 -0.243760  1.131670

   2.8   0     0.3560   -1.8203  0.015210 -0.023402  0.057197 -0.080543  1.313858 -0.649037

 HOMO      3.1    -0.213720 =      -5.8156eV
 LUMO      4.1    -0.008136 =      -0.2214eV
 LUMO-HOMO         0.205584 =       5.5942eV


 **********************************************************************************************************************************
 DATASETS  * FILE   NREC   LENGTH (MB)   RECORD NAMES
              1      20       30.88       500      610      700      900      950      970     1000      129      960     1100
                                          VAR    BASINP    GEOM    SYMINP    ZMAT    AOBASIS   BASIS     P2S    ABASIS      S
