<?xml version="1.0"?>
<molpro xmlns="http://www.molpro.net/schema/molpro-output"
  xmlns:xsd="http://www.w3.org/1999/XMLSchema"
  xmlns:cml="http://www.xml-cml.org/schema"
  xmlns:stm="http://www.xml-cml.org/schema"
  xmlns:xhtml="http://www.w3.org/1999/xhtml">
 <!--

 Nodes     nprocs
 nid01127    11
 Number of processes for MPI-2 version of Molpro:   nprocs(total)=   12   nprocs(compute)=   11   nprocs(helper)=    1

 Using customized tuning parameters: mindgm=7; mindgv=16; mindgc=1; mindgr=1; noblas=0; minvec=7
 default implementation of scratch files=sf

 --><job>
  <!--

 Variables initialized (889), CPU time= 0.02 sec
 Commands  initialized (702), CPU time= 0.01 sec, 572 directives.
 Default parameters read. Elapsed time= 0.17 sec

 Checking input...
 Passed
1


                                         ***  PROGRAM SYSTEM MOLPRO  ***
                                       Copyright, TTI GmbH Stuttgart, 2015
                                    Version 2015.1 linked Dec 29 2018 15:55:43


 **********************************************************************************************************************************
 LABEL *   Calculation for Nb atom, singlet and triplet
  64 bit mpp version                                                                     DATE: 07-Oct-22          TIME: 20:17:46
 **********************************************************************************************************************************

 SHA1:             19cd028119e0e09f93f0674bd8af7968d9b3eff6
 **********************************************************************************************************************************
  -->
  <!--

 THRESHOLDS:

 ZERO    =  1.00D-12  ONEINT  =  1.00D-12  TWOINT  =  1.00D-15  PREFAC  =  1.00D-14  LOCALI  =  1.00D-09  EORDER  =  1.00D-04
 ENERGY  =  0.00D+00  ETEST   =  0.00D+00  EDENS   =  0.00D+00  THRDEDEF=  1.00D-06  GRADIENT=  1.00D-02  STEP    =  1.00D-03
 ORBITAL =  1.00D-05  CIVEC   =  1.00D-05  COEFF   =  1.00D-04  PRINTCI =  5.00D-02  PUNCHCI =  9.90D+01  OPTGRAD =  3.00D-04
 OPTENERG=  1.00D-06  OPTSTEP =  3.00D-04  THRGRAD =  1.00D-10  COMPRESS=  1.00D-11  VARMIN  =  1.00D-07  VARMAX  =  1.00D-03
 THRDOUB =  0.00D+00  THRDIV  =  1.00D-05  THRRED  =  1.00D-07  THRPSP  =  1.00D+00  THRDC   =  1.00D-10  THRCS   =  1.00D-10
 THRNRM  =  1.00D-08  THREQ   =  0.00D+00  THRDE   =  1.00D+00  THRREF  =  1.00D-05  SPARFAC =  1.00D+00  THRDLP  =  1.00D-07
 THRDIA  =  1.00D-10  THRDLS  =  1.00D-07  THRGPS  =  0.00D+00  THRKEX  =  0.00D+00  THRDIS  =  2.00D-01  THRVAR  =  1.00D-10
 THRLOC  =  1.00D-06  THRGAP  =  1.00D-06  THRLOCT = -1.00D+00  THRGAPT = -1.00D+00  THRORB  =  1.00D-06  THRMLTP =  0.00D+00
 THRCPQCI=  1.00D-10  KEXTA   =  0.00D+00  THRCOARS=  0.00D+00  SYMTOL  =  1.00D-06  GRADTOL =  1.00D-06  THROVL  =  1.00D-08
 THRORTH =  1.00D-08  GRID    =  1.00D-06  GRIDMAX =  1.00D-03  DTMAX   =  0.00D+00  THROCCDE=  1.00D-01  THROCCDE=  1.00D-01



 THRESHOLDS:

 ZERO    =  1.00D-12  ONEINT  =  1.00D-15  TWOINT  =  1.00D-15  PREFAC  =  1.00D-14  LOCALI  =  1.00D-09  EORDER  =  1.00D-04
 ENERGY  =  0.00D+00  ETEST   =  0.00D+00  EDENS   =  0.00D+00  THRDEDEF=  1.00D-06  GRADIENT=  1.00D-02  STEP    =  1.00D-03
 ORBITAL =  1.00D-05  CIVEC   =  1.00D-05  COEFF   =  1.00D-04  PRINTCI =  5.00D-02  PUNCHCI =  9.90D+01  OPTGRAD =  3.00D-04
 OPTENERG=  1.00D-06  OPTSTEP =  3.00D-04  THRGRAD =  1.00D-10  COMPRESS=  1.00D-11  VARMIN  =  1.00D-07  VARMAX  =  1.00D-03
 THRDOUB =  0.00D+00  THRDIV  =  1.00D-05  THRRED  =  1.00D-07  THRPSP  =  1.00D+00  THRDC   =  1.00D-10  THRCS   =  1.00D-10
 THRNRM  =  1.00D-08  THREQ   =  0.00D+00  THRDE   =  1.00D+00  THRREF  =  1.00D-05  SPARFAC =  1.00D+00  THRDLP  =  1.00D-07
 THRDIA  =  1.00D-10  THRDLS  =  1.00D-07  THRGPS  =  0.00D+00  THRKEX  =  0.00D+00  THRDIS  =  2.00D-01  THRVAR  =  1.00D-10
 THRLOC  =  1.00D-06  THRGAP  =  1.00D-06  THRLOCT = -1.00D+00  THRGAPT = -1.00D+00  THRORB  =  1.00D-06  THRMLTP =  0.00D+00
 THRCPQCI=  1.00D-10  KEXTA   =  0.00D+00  THRCOARS=  0.00D+00  SYMTOL  =  1.00D-06  GRADTOL =  1.00D-06  THROVL  =  1.00D-08
 THRORTH =  1.00D-08  GRID    =  1.00D-06  GRIDMAX =  1.00D-03  DTMAX   =  0.00D+00  THROCCDE=  1.00D-01  THROCCDE=  1.00D-01



Geometry recognized as XYZ


 Variable memory set to 1000000000 words,  buffer space   230000 words

 SETTING BASIS          =    USERDEF

 DO I                   =         3.00000000

 Running procedure=EAD4S2
  --><jobstep command="RHF-SCF" commandset="SCFPRO">
   <!--


 Recomputing integrals since basis changed


 Using spherical harmonics



 PROGRAM * SEWARD (Integral evaluation for generally contracted gaussian basis sets)     Author: Roland Lindh, 1990

 Geometry written to block  1 of record 700

 Orientation using atomic masses
 Molecule type: Atom
 Symmetry elements: X,Y,Z
 Rotational constants:       0.0000000      0.0000000      0.0000000 GHz  (calculated with average atomic masses)

 Point group  D2h


   --><cml:molecule>
    <cml:symmetry pointGroup="D2h"/>
    <cml:atomArray>
     <cml:atom id="a1" elementType="Ta" x3="0.0" y3="0.0" z3="0.0"/>
    </cml:atomArray>
    <cml:bondArray>
    </cml:bondArray>
   </cml:molecule><!--

 ATOMIC COORDINATES

 NR  ATOM    CHARGE       X              Y              Z

   1  TA     73.00    0.000000000    0.000000000    0.000000000

 NUCLEAR CHARGE:                   73
 NUMBER OF PRIMITIVE AOS:         455
 NUMBER OF SYMMETRY AOS:          370
 NUMBER OF CONTRACTIONS:          370   (  88Ag  +  61B3u +  61B2u +  28B1g +  61B1u +  28B2g +  28B3g +  15Au  )
 NUMBER OF CORE ORBITALS:          34   (   9Ag  +   6B3u +   6B2u +   2B1g +   6B1u +   2B2g +   2B3g +   1Au  )
 NUMBER OF VALENCE ORBITALS:        6   (   3Ag  +   0B3u +   0B2u +   1B1g +   0B1u +   1B2g +   1B3g +   0Au  )


 NUCLEAR REPULSION ENERGY    0.00000000

 EXTRA SYMMETRY OF AOS IN SYMMETRY 1:   1 1 1 1 1 1 1 1 1 1   1 1 1 1 1 1 1 1 1 1   1 1 1 1 1 1 1 1 1 1   1 1 1 1 1 2 3 2 3 2
                                        3 2 3 2 3 2 3 2 3 2   3 2 3 2 3 2 3 2 3 2   3 2 3 2 3 2 3 2 3 2   3 2 3 2 3 2 3 2 3 4
                                        5 6 4 5 6 4 5 6
 EXTRA SYMMETRY OF AOS IN SYMMETRY 2:   1 1 1 1 1 1 1 1 1 1   1 1 1 1 1 1 1 1 1 1   1 1 1 1 1 1 1 1 1 1   1 2 3 2 3 2 3 2 3 2
                                        3 2 3 2 3 2 3 2 3 2   3 2 3 2 3 2 3 2 3 2   3
 EXTRA SYMMETRY OF AOS IN SYMMETRY 3:   1 1 1 1 1 1 1 1 1 1   1 1 1 1 1 1 1 1 1 1   1 1 1 1 1 1 1 1 1 1   1 2 3 2 3 2 3 2 3 2
                                        3 2 3 2 3 2 3 2 3 2   3 2 3 2 3 2 3 2 3 2   3
 EXTRA SYMMETRY OF AOS IN SYMMETRY 4:   1 1 1 1 1 1 1 1 1 1   1 1 1 1 1 1 1 1 1 1   1 1 2 3 2 3 2 3
 EXTRA SYMMETRY OF AOS IN SYMMETRY 5:   1 1 1 1 1 1 1 1 1 1   1 1 1 1 1 1 1 1 1 1   1 1 1 1 1 1 1 1 1 1   1 2 3 2 3 2 3 2 3 2
                                        3 2 3 2 3 2 3 2 3 2   3 2 3 2 3 2 3 2 3 2   3
 EXTRA SYMMETRY OF AOS IN SYMMETRY 6:   1 1 1 1 1 1 1 1 1 1   1 1 1 1 1 1 1 1 1 1   1 1 2 3 2 3 2 3
 EXTRA SYMMETRY OF AOS IN SYMMETRY 7:   1 1 1 1 1 1 1 1 1 1   1 1 1 1 1 1 1 1 1 1   1 1 2 3 2 3 2 3

 Eigenvalues of metric

         1 0.694E-06 0.139E-04 0.139E-04 0.237E-04 0.481E-04 0.143E-03 0.143E-03 0.146E-03
         2 0.469E-06 0.114E-04 0.100E-03 0.100E-03 0.132E-03 0.442E-03 0.112E-02 0.146E-02
         3 0.469E-06 0.114E-04 0.100E-03 0.100E-03 0.132E-03 0.442E-03 0.112E-02 0.146E-02
         4 0.139E-04 0.143E-03 0.607E-03 0.227E-02 0.654E-02 0.151E-01 0.281E-01 0.503E-01
         5 0.469E-06 0.114E-04 0.100E-03 0.100E-03 0.132E-03 0.442E-03 0.112E-02 0.146E-02
         6 0.139E-04 0.143E-03 0.607E-03 0.227E-02 0.654E-02 0.151E-01 0.281E-01 0.503E-01
         7 0.139E-04 0.143E-03 0.607E-03 0.227E-02 0.654E-02 0.151E-01 0.281E-01 0.503E-01
         8 0.100E-03 0.146E-02 0.736E-02 0.189E-01 0.417E-01 0.101E+00 0.199E+00 0.345E+00


 Contracted 2-electron integrals neglected if value below      1.0D-15
 AO integral compression algorithm  1   Integral accuracy      1.0D-15

     2358.772 MB (compressed) written to integral file ( 47.5%)

     Node minimum: 95.683 MB, node maximum: 312.476 MB


 NUMBER OF SORTED TWO-ELECTRON INTEGRALS:   27763322.     BUFFER LENGTH:  32768
 NUMBER OF SEGMENTS:   1  SEGMENT LENGTH:   27763322      RECORD LENGTH: 524288

 Memory used in sort:      28.32 MW

 SORT1 READ   620842336. AND WROTE    17337695. INTEGRALS IN     50 RECORDS. CPU TIME:    13.64 SEC, REAL TIME:    15.51 SEC
 SORT2 READ   190734154. AND WROTE   304061875. INTEGRALS IN   9548 RECORDS. CPU TIME:     0.95 SEC, REAL TIME:     1.44 SEC

 Node minimum:    27596060.  Node maximum:    27763322. integrals

 OPERATOR DM      FOR CENTER  0  COORDINATES:    0.000000    0.000000    0.000000


 **********************************************************************************************************************************
 DATASETS  * FILE   NREC   LENGTH (MB)   RECORD NAMES
              1      18       20.81       500      610      700      900      950      970     1000      129      960     1100
                                          VAR    BASINP    GEOM    SYMINP    ZMAT    AOBASIS   BASIS     P2S    ABASIS      S
                                         1400     1410     1200     1210     1080     1600     1650     1700
                                           T        V       H0       H01     AOSYM     SMH    MOLCAS    OPER

 PROGRAMS   *        TOTAL       INT
 CPU TIMES  *       108.95    108.38
 REAL TIME  *       113.28 SEC
 DISK USED  *         4.67 GB
 GA USED    *         0.00 MB       (max)       0.00 MB       (current)
 **********************************************************************************************************************************


 PROGRAM * RHF-SCF (OPEN SHELL)       Authors: W. Meyer, H.-J. Werner


 NUMBER OF ELECTRONS:      39+   35-    SPACE SYMMETRY=1    SPIN SYMMETRY: Quintet
 CONVERGENCE THRESHOLDS:    1.00E-05 (Density)    1.46E-07 (Energy)
 MAX. NUMBER OF ITERATIONS:       60
 INTERPOLATION TYPE:            DIIS
 INTERPOLATION STEPS:              2 (START)      1 (STEP)
 LEVEL SHIFTS:                 -0.60 (CLOSED) -0.30 (OPEN)

 Number of closed-shell orbitals:   35 (  10   6   6   2   6   2   2   1 )
 Number of open-shell orbitals:      4 (   1   0   0   1   0   1   1   0 )



 Extra symmetries of mos in symmetry 1:   1   1   1   3   2   1   3   2   1   1   3   2
 Orbital guess generated from atomic densities. Full valence occupancy:   12   6   6   3   6   3   3   1


 Molecular orbital dump at record        4202.2

 ITERATION    DDIFF          GRAD             ENERGY        2-EL.EN.            DIPOLE MOMENTS         DIIS   ORB.
    1      0.000D+00      0.000D+00    -14794.66807968  10850.446066    0.00000    0.00000    0.00000    0    start
    2      0.000D+00      0.217D+00    -14796.75830599  11734.449073    0.00000    0.00000    0.00000    1    diag,B
    3      0.100D+01      0.105D+00    -14799.26559914  11273.854980    0.00000    0.00000    0.00000    2    diag,B
    4      0.137D+00      0.481D-01    -14799.76517200  11365.854656    0.00000    0.00000    0.00000    3    diag,B
    5      0.248D-01      0.352D-02    -14799.80868316  11365.695445    0.00000    0.00000    0.00000    4    diag,B
    6      0.294D-01      0.193D-02    -14799.82682105  11358.089495    0.00000    0.00000    0.00000    5    diag,B
    7      0.246D-01      0.946D-03    -14799.83576965  11357.471284    0.00000    0.00000    0.00000    6    fixocc
    8      0.236D-01      0.510D-03    -14799.83953664  11356.203715    0.00000    0.00000    0.00000    7    diag,B
    9      0.250D-01      0.235D-03    -14799.84058611  11356.114837    0.00000    0.00000    0.00000    8    diag,B
   10      0.153D-01      0.659D-04    -14799.84064442  11356.046051    0.00000    0.00000    0.00000    9    orth
   11      0.318D-02      0.175D-04    -14799.84065030  11356.061411    0.00000    0.00000    0.00000    9    diag,B
   12      0.219D-03      0.124D-04    -14799.84065431  11356.057329    0.00000    0.00000    0.00000    9    diag,B
   13      0.909D-04      0.874D-05    -14799.84065680  11356.048165    0.00000    0.00000    0.00000    9    diag,B
   14      0.207D-03      0.542D-05    -14799.84065778  11356.023403    0.00000    0.00000    0.00000    9    diag,B
   15      0.135D-03      0.274D-05    -14799.84065806  11356.007619    0.00000    0.00000    0.00000    9    diag,B
   16      0.720D-04      0.112D-05    -14799.84065810  11356.003186    0.00000    0.00000    0.00000    9    diag,B
   17      0.152D-04      0.445D-06    -14799.84065810  11356.002636    0.00000    0.00000    0.00000    9    diag,B
   18      0.283D-05      0.367D-06    -14799.84065810  11356.002723    0.00000    0.00000    0.00000    0    orth

 Final alpha occupancy:  11   6   6   3   6   3   3   1
 Final beta  occupancy:  10   6   6   2   6   2   2   1

 !RHF STATE 1.1 Energy               -14799.8406581012
   --><property name="Energy" method="RHF" principal="true" stateSymmetry="1" stateNumber="1"
     value="-14799.8406581012"/><!--
 Nuclear energy                         0.00000000
 One-electron energy               -20477.84201971
 Two-electron energy                 5678.00136161
 Virial quotient                       -0.99999973
 !RHF STATE 1.1 Dipole moment           0.00000000     0.00000000     0.00000000
 Dipole moment /Debye                   0.00000000     0.00000000     0.00000000
   --><property name="Dipole moment" method="RHF" principal="true" stateSymmetry="1"
     stateNumber="1" value="0.0 0.0 0.0"/><!--

 ELECTRON ORBITALS
 =================


   Orb  Occ    Energy  Couls-En    Coefficients

                                   1 1s      1 1s      1 1s      1 1s      1 1s      1 1s      1 1s      1 1s      1 1s      1 1s
                                   1 1s      1 1s      1 1s      1 1s      1 1s      1 1s      1 1s      1 1s      1 1s      1 1s
                                   1 1s      1 1s      1 1s      1 1s      1 1s      1 1s      1 1s      1 1s      1 1s      1 1s
                                   1 1s      1 1s      1 1s      1 1s      1 1s      1 3d0     1 3d2+    1 3d0     1 3d2+    1 3d0
                                   1 3d2+    1 3d0     1 3d2+    1 3d0     1 3d2+    1 3d0     1 3d2+    1 3d0     1 3d2+    1 3d0
                                   1 3d2+    1 3d0     1 3d2+    1 3d0     1 3d2+    1 3d0     1 3d2+    1 3d0     1 3d2+    1 3d0
                                   1 3d2+    1 3d0     1 3d2+    1 3d0     1 3d2+    1 3d0     1 3d2+    1 3d0     1 3d2+    1 3d0
                                   1 3d2+    1 3d0     1 3d2+    1 3d0     1 3d2+    1 3d0     1 3d2+    1 3d0     1 3d2+    1 5g0
                                   1 5g4+    1 5g2+    1 5g0     1 5g4+    1 5g2+    1 5g0     1 5g4+    1 5g2+

   1.1   2 -2296.5631-4960.8686  0.000000  0.000000  0.000000  0.000001  0.000005  0.000016  0.000053  0.000161  0.000458  0.001256
                                 0.003351  0.008704  0.021908  0.052491  0.115782  0.219936  0.319355  0.284405  0.109077  0.009616
                                 0.000759 -0.000407  0.000219 -0.000201  0.000160 -0.000177 -0.000523  0.000103  0.000041 -0.000003
                                 0.000002 -0.000001  0.000571 -0.000083  0.000000  0.000000  0.000000  0.000000 -0.000000  0.000000
                                 0.000000  0.000000 -0.000000  0.000000  0.000000  0.000000 -0.000000 -0.000000  0.000000 -0.000000
                                -0.000000 -0.000000  0.000000  0.000000 -0.000000 -0.000000  0.000000  0.000000 -0.000000 -0.000000
                                 0.000000 -0.000000  0.000000  0.000000 -0.000000  0.000000 -0.000000 -0.000000  0.000000  0.000000
                                -0.000000 -0.000000  0.000000  0.000000 -0.000000 -0.000000  0.000000  0.000000 -0.000000 -0.000000
                                -0.000000 -0.000000  0.000000  0.000000  0.000000 -0.000000  0.000000 -0.000000

   2.1   2  -381.0107-1044.3025 -0.000000 -0.000000 -0.000000 -0.000000 -0.000002 -0.000005 -0.000018 -0.000053 -0.000152 -0.000417
                                -0.001117 -0.002918 -0.007441 -0.018311 -0.042703 -0.090539 -0.162073 -0.201252 -0.058517  0.339443
                                 0.552272  0.265356  0.030403  0.000953 -0.000258 -0.000128 -0.000240  0.000072  0.000033 -0.000002
                                 0.000001 -0.000001  0.000229 -0.000058  0.000000  0.000000 -0.000000  0.000000  0.000000  0.000000
                                -0.000000  0.000000  0.000000  0.000000  0.000000  0.000001  0.000000  0.000002  0.000000  0.000001
                                 0.000000  0.000001  0.000000  0.000001  0.000000  0.000000  0.000000  0.000000  0.000000 -0.000000
                                 0.000000 -0.000000  0.000000  0.000000  0.000000  0.000000 -0.000000 -0.000000 -0.000000  0.000000
                                -0.000000 -0.000000 -0.000000  0.000000  0.000000 -0.000000  0.000000  0.000000 -0.000000 -0.000000
                                 0.000000  0.000000 -0.000000 -0.000000 -0.000000 -0.000000 -0.000000  0.000000

   3.1   2   -88.3475 -374.5608  0.000000  0.000000  0.000000  0.000000  0.000001  0.000003  0.000008  0.000025  0.000071  0.000196
                                 0.000525  0.001372  0.003510  0.008661  0.020402  0.043936  0.081566  0.107415  0.034695 -0.260032
                                -0.583793 -0.305258  0.619131  0.695201  0.137910  0.021080  0.047370 -0.010258 -0.004298  0.000287
                                -0.000172  0.000073 -0.049850  0.008477 -0.000020  0.000000 -0.000000  0.000000  0.000000  0.000000
                                -0.000000  0.000000  0.000000  0.000001  0.000000  0.000004  0.000000  0.000011  0.000000  0.000025
                                 0.000000  0.000036  0.000000  0.000054  0.000000  0.000038  0.000000  0.000003  0.000000  0.000005
                                -0.000000  0.000009 -0.000000 -0.000001  0.000000 -0.000002  0.000000  0.000000  0.000000 -0.000000
                                 0.000000  0.000000  0.000000 -0.000009  0.000000  0.000002 -0.000000 -0.000000  0.000000  0.000003
                                -0.000000 -0.000000 -0.000000 -0.000000  0.000000  0.000000  0.000000 -0.000000

   4.1   2   -66.4504 -348.4558 -0.000000 -0.000000  0.000000 -0.000000 -0.000000 -0.000000 -0.000000 -0.000000 -0.000000 -0.000000
                                -0.000000 -0.000000 -0.000000 -0.000000 -0.000000 -0.000000 -0.000000 -0.000000 -0.000000  0.000000
                                 0.000000  0.000000  0.000000 -0.000000 -0.000000 -0.000000 -0.000000  0.000000  0.000000  0.000000
                                -0.000000 -0.000000  0.000000 -0.000000 -0.000000 -0.000000  0.000003 -0.000000  0.000048 -0.000000
                                 0.000446 -0.000001  0.002742 -0.000004  0.012395 -0.000013  0.041787 -0.000035  0.109752 -0.000070
                                 0.219232 -0.000103  0.322342 -0.000100  0.311383 -0.000050  0.156478 -0.000011  0.034363 -0.000001
                                 0.002395  0.000000 -0.000459 -0.000000  0.000216 -0.000000  0.000164  0.000000 -0.000013 -0.000000
                                 0.000003  0.000000 -0.000001 -0.000000  0.001066  0.000000 -0.000214 -0.000000  0.000000 -0.000000
                                -0.000000 -0.000000  0.000000 -0.000000 -0.000000 -0.000000  0.000000  0.000000

   5.1   2   -66.4520 -348.4518 -0.000000 -0.000000 -0.000000 -0.000000 -0.000000 -0.000000 -0.000000 -0.000000 -0.000000 -0.000000
                                -0.000000 -0.000000 -0.000000 -0.000001 -0.000003 -0.000006 -0.000011 -0.000015 -0.000005  0.000037
                                 0.000089  0.000047 -0.000118 -0.000082 -0.000023  0.000001  0.000003  0.000001 -0.000001 -0.000000
                                 0.000000 -0.000000 -0.000000  0.000001  0.000000  0.000003  0.000000  0.000048  0.000000  0.000446
                                 0.000000  0.002742  0.000001  0.012394  0.000004  0.041782  0.000013  0.109739  0.000035  0.219207
                                 0.000070  0.322313  0.000103  0.311405  0.000100  0.156523  0.000050  0.034371  0.000011  0.002404
                                 0.000001 -0.000447 -0.000000  0.000215  0.000000  0.000162  0.000000 -0.000012 -0.000000  0.000003
                                 0.000000 -0.000001 -0.000000  0.001054  0.000000 -0.000211 -0.000000  0.000000  0.000000  0.000003
                                 0.000000 -0.000000 -0.000001  0.000000 -0.000000  0.000000 -0.000000  0.000000

   6.1   2   -18.4019 -162.5533 -0.000000 -0.000000 -0.000000 -0.000000 -0.000000 -0.000001 -0.000004 -0.000012 -0.000035 -0.000095
                                -0.000256 -0.000666 -0.001709 -0.004213 -0.009966 -0.021496 -0.040362 -0.053680 -0.018379  0.143217
                                 0.343180  0.211911 -0.591154 -0.927009  0.208302  0.952691  0.227442 -0.004199 -0.008969  0.000898
                                -0.000514  0.000218  0.127631  0.019475 -0.000059 -0.000000 -0.000000 -0.000000  0.000000 -0.000000
                                -0.000000 -0.000001 -0.000000 -0.000004  0.000000 -0.000014  0.000000 -0.000037  0.000000 -0.000079
                                 0.000000 -0.000107  0.000000 -0.000104  0.000000  0.000051  0.000000  0.000250 -0.000000  0.000312
                                -0.000000  0.000170  0.000000  0.000040 -0.000000  0.000019 -0.000000 -0.000005  0.000000  0.000000
                                -0.000000 -0.000000  0.000000  0.000157 -0.000000 -0.000040  0.000000  0.000000 -0.000000  0.000054
                                -0.000000  0.000000 -0.000053  0.000000 -0.000000  0.000012 -0.000000  0.000000

   7.1   2    -9.2360 -141.7769 -0.000000 -0.000000 -0.000000 -0.000000 -0.000000 -0.000000 -0.000000 -0.000000 -0.000000 -0.000000
                                 0.000000 -0.000000  0.000000 -0.000000  0.000000 -0.000000  0.000000 -0.000000  0.000000 -0.000000
                                 0.000001 -0.000001  0.000003 -0.000007  0.000014 -0.000027 -0.000097  0.000019  0.000007 -0.000000
                                 0.000000 -0.000000  0.000104 -0.000015 -0.000000 -0.000000 -0.000002 -0.000000 -0.000024 -0.000000
                                -0.000219 -0.000000 -0.001349 -0.000000 -0.006162 -0.000000 -0.020950 -0.000000 -0.056254 -0.000000
                                -0.113353 -0.000001 -0.162624 -0.000000 -0.116579  0.000000  0.115409  0.000001  0.371759  0.000002
                                 0.415145  0.000001  0.210443  0.000000  0.042746  0.000000  0.005888 -0.000000 -0.000101 -0.000000
                                 0.000031 -0.000000 -0.000021 -0.000000  0.006131 -0.000000 -0.005253 -0.000000  0.000004  0.000000
                                -0.000000  0.000146 -0.000000  0.000000 -0.000005  0.000000 -0.000000  0.000015

   8.1   2    -9.2406 -141.7038  0.000000  0.000000  0.000000  0.000000  0.000000  0.000000  0.000000  0.000000  0.000000  0.000000
                                 0.000000  0.000001  0.000002  0.000005  0.000012  0.000025  0.000047  0.000062  0.000021 -0.000167
                                -0.000407 -0.000261  0.000766  0.001152 -0.000273 -0.001706  0.001396  0.000653 -0.000178 -0.000037
                                 0.000009 -0.000004 -0.001488  0.000127  0.000001 -0.000002  0.000000 -0.000024  0.000000 -0.000219
                                 0.000000 -0.001348  0.000000 -0.006154  0.000000 -0.020925  0.000000 -0.056185  0.000000 -0.113220
                                 0.000000 -0.162427  0.000001 -0.116504  0.000000  0.115113 -0.000000  0.371112 -0.000001  0.414808
                                -0.000001  0.211476 -0.000001  0.043420 -0.000000  0.006074 -0.000000 -0.000102  0.000000  0.000051
                                -0.000000 -0.000017  0.000000  0.006028 -0.000000 -0.005461  0.000000  0.000005 -0.000000  0.000416
                                -0.000000 -0.000000 -0.000215  0.000000 -0.000000  0.000057 -0.000000  0.000000

   9.1   2    -2.4411  -68.2324  0.000000  0.000000  0.000000  0.000000  0.000000  0.000000  0.000002  0.000005  0.000014  0.000037
                                 0.000099  0.000258  0.000665  0.001633  0.003880  0.008342  0.015773  0.020871  0.007516 -0.057745
                                -0.137660 -0.092849  0.275038  0.435097 -0.113012 -0.768548 -0.439225  0.747114  0.927450  0.092678
                                -0.034329  0.013652 -0.050329 -0.216133 -0.003638  0.000000 -0.000000  0.000000 -0.000000  0.000001
                                -0.000000  0.000003 -0.000000  0.000014 -0.000000  0.000049 -0.000000  0.000132 -0.000000  0.000269
                                -0.000000  0.000379 -0.000000  0.000273 -0.000000 -0.000355  0.000000 -0.001020  0.000000 -0.001130
                                 0.000000 -0.000301  0.000000  0.002547 -0.000000  0.001176 -0.000001 -0.000187  0.000000 -0.000166
                                -0.000000  0.000018  0.000001 -0.000107 -0.000000  0.001783  0.000001 -0.000006 -0.000001  0.000026
                                -0.000000  0.000000 -0.000998  0.000000 -0.000000 -0.000522 -0.000000  0.000000

  10.1   2    -0.0169  -16.8631 -0.000000 -0.000000 -0.000000 -0.000000 -0.000000 -0.000000 -0.000000 -0.000001 -0.000002 -0.000007
                                -0.000018 -0.000047 -0.000122 -0.000299 -0.000710 -0.001528 -0.002885 -0.003828 -0.001365  0.010572
                                 0.025403  0.017034 -0.051087 -0.082508  0.023144  0.150118  0.043190 -0.170491 -0.343054 -0.101153
                                 0.450638  0.111326  0.058830  0.064245  0.655346  0.000000  0.000000  0.000000  0.000000  0.000001
                                 0.000000  0.000005  0.000000  0.000024  0.000000  0.000082  0.000000  0.000222  0.000000  0.000448
                                 0.000000  0.000640  0.000000  0.000427  0.000000 -0.000617 -0.000000 -0.001729 -0.000001 -0.001912
                                 0.000000 -0.000063  0.000006  0.002889 -0.000002  0.005695 -0.000012  0.009469  0.000009  0.014794
                                -0.000004  0.011299  0.000031 -0.000043 -0.000006 -0.000543  0.000016  0.007061 -0.000012 -0.000256
                                -0.000000  0.000000 -0.000410  0.000002 -0.000002  0.000334 -0.000002  0.000000

  11.1   +    -0.1169  -39.9669  0.000000  0.000000  0.000000  0.000000  0.000000  0.000000  0.000000  0.000000  0.000000  0.000000
                                 0.000000  0.000000  0.000000  0.000000  0.000000  0.000000  0.000000  0.000000 -0.000000 -0.000000
                                -0.000001  0.000000 -0.000001  0.000006 -0.000009  0.000013  0.000054 -0.000006  0.000006  0.000000
                                -0.000011 -0.000002 -0.000061  0.000005 -0.000009  0.000000  0.000000 -0.000000  0.000005  0.000000
                                 0.000049 -0.000000  0.000305  0.000000  0.001392 -0.000000  0.004745  0.000000  0.012773 -0.000000
                                 0.025794  0.000000  0.036838 -0.000000  0.024609  0.000000 -0.035879  0.000000 -0.100477 -0.000000
                                -0.110057 -0.000000 -0.001468 -0.000000  0.195907 -0.000000  0.355090  0.000000  0.372665  0.000000
                                 0.246547 -0.000000  0.084025  0.000000 -0.006086  0.000000  0.002950 -0.000000  0.008689  0.000000
                                -0.000000  0.001410  0.000000 -0.000000  0.004556 -0.000000 -0.000000  0.005296

  12.1   0     0.1536   -7.5116  0.000000  0.000000  0.000000  0.000000  0.000000  0.000000  0.000000  0.000000  0.000000  0.000000
                                 0.000000  0.000001  0.000003  0.000007  0.000016  0.000034  0.000065  0.000086  0.000032 -0.000241
                                -0.000570 -0.000394  0.001174  0.001831 -0.000442 -0.003715 -0.003845  0.005677  0.010768 -0.000810
                                -0.008952 -0.007923  0.001093 -0.004524 -0.003278 -0.000000 -0.000000  0.000001 -0.000000  0.000002
                                -0.000000  0.000028 -0.000000  0.000077 -0.000000  0.000422 -0.000000  0.000692 -0.000000  0.002444
                                -0.000000  0.001337 -0.000000  0.004561  0.000000 -0.008332 -0.000000  0.006066  0.000001 -0.055191
                                -0.000002 -0.261466 -0.000017  0.179329  0.000010  0.671275  0.000041 -0.179789 -0.000016  0.313037
                                 0.000018 -0.611639 -0.000043  0.242620  0.000016 -0.653704 -0.000043  1.319658  0.000087 -0.000011
                                 0.000000 -0.000000 -0.000180 -0.000000 -0.000000  0.000194  0.000000 -0.000000

  13.1   0     0.1330   -9.6453  0.000000  0.000000  0.000000  0.000000  0.000000  0.000000  0.000000  0.000001  0.000002  0.000004
                                 0.000013  0.000030  0.000086  0.000192  0.000503  0.000970  0.002098  0.002211  0.001825 -0.009274
                                -0.012287 -0.021966  0.055896  0.012957  0.076686 -0.402635 -2.753612  1.671353  2.372630 -1.064523
                                 1.978237 -3.955551  2.344209 -2.856821  2.817745 -0.000000  0.000000 -0.000000  0.000000 -0.000000
                                 0.000000 -0.000001  0.000000 -0.000003  0.000000 -0.000009  0.000000 -0.000024  0.000000 -0.000051
                                 0.000000 -0.000068  0.000000 -0.000052 -0.000000  0.000080  0.000000  0.000166 -0.000001  0.000281
                                 0.000002  0.000297  0.000011 -0.000324 -0.000007 -0.000381 -0.000028 -0.001956  0.000010 -0.004641
                                -0.000012 -0.003395  0.000028 -0.000312 -0.000010  0.000234  0.000029 -0.001278 -0.000058  0.000154
                                 0.000000  0.000000  0.000968  0.000000  0.000000  0.001954  0.000000  0.000000

                                   1 2px     1 2px     1 2px     1 2px     1 2px     1 2px     1 2px     1 2px     1 2px     1 2px
                                   1 2px     1 2px     1 2px     1 2px     1 2px     1 2px     1 2px     1 2px     1 2px     1 2px
                                   1 2px     1 2px     1 2px     1 2px     1 2px     1 2px     1 2px     1 2px     1 2px     1 2px
                                   1 2px     1 4f1+    1 4f3+    1 4f1+    1 4f3+    1 4f1+    1 4f3+    1 4f1+    1 4f3+    1 4f1+
                                   1 4f3+    1 4f1+    1 4f3+    1 4f1+    1 4f3+    1 4f1+    1 4f3+    1 4f1+    1 4f3+    1 4f1+
                                   1 4f3+    1 4f1+    1 4f3+    1 4f1+    1 4f3+    1 4f1+    1 4f3+    1 4f1+    1 4f3+    1 4f1+
                                   1 4f3+

   1.2   2  -364.3845-1027.1045  0.000000  0.000000  0.000000  0.000000  0.000002  0.000013  0.000073  0.000353  0.001482  0.005506
                                 0.018063  0.051845  0.125763  0.242107  0.334156  0.275164  0.106688  0.013363  0.000563 -0.000182
                                 0.000030 -0.000219 -0.000117  0.000324  0.000008 -0.000001  0.000000 -0.000000  0.000241 -0.000297
                                 0.000000  0.000000  0.000000  0.000001 -0.000000  0.000002 -0.000000  0.000001 -0.000000 -0.000000
                                -0.000000 -0.000000  0.000000 -0.000000 -0.000000  0.000000  0.000000  0.000000 -0.000000  0.000000
                                -0.000000  0.000000 -0.000000 -0.000000  0.000000  0.000000  0.000000  0.000000  0.000000  0.000000
                                -0.000000

   2.2   2   -80.6349 -364.9401 -0.000000 -0.000000 -0.000000 -0.000000 -0.000001 -0.000007 -0.000036 -0.000176 -0.000740 -0.002764
                                -0.009182 -0.026966 -0.068094 -0.138854 -0.203942 -0.134210  0.167172  0.491576  0.387043  0.099820
                                 0.011530 -0.006367 -0.004618  0.013915  0.000325 -0.000061  0.000023 -0.000009  0.008886 -0.012886
                                 0.000003 -0.000000 -0.000000 -0.000000  0.000000  0.000001 -0.000000  0.000004 -0.000000  0.000010
                                -0.000000  0.000015 -0.000000  0.000006  0.000000 -0.000001 -0.000000 -0.000003  0.000000 -0.000002
                                 0.000000 -0.000001  0.000000  0.000000 -0.000000 -0.000000 -0.000000 -0.000000  0.000000 -0.000000
                                 0.000000

   3.2   2   -15.1397 -155.5575  0.000000  0.000000  0.000000  0.000000  0.000000  0.000003  0.000018  0.000084  0.000356  0.001327
                                 0.004432  0.013056  0.033353  0.068801  0.103226  0.061420 -0.127146 -0.390197 -0.274661  0.272337
                                 0.576104  0.377405  0.078372 -0.063214 -0.001198  0.000272 -0.000105  0.000038 -0.043870  0.060705
                                -0.000012  0.000000 -0.000000  0.000001 -0.000000  0.000002 -0.000000  0.000009 -0.000000  0.000025
                                -0.000000  0.000085 -0.000000  0.000147 -0.000000  0.000133 -0.000000  0.000080 -0.000000  0.000027
                                 0.000000  0.000007  0.000000 -0.000008  0.000000  0.000002 -0.000000  0.000003 -0.000000  0.000000
                                -0.000000

   4.2   2    -1.5276 -116.2225 -0.000000 -0.000000 -0.000000 -0.000000 -0.000000 -0.000000 -0.000000 -0.000002 -0.000007 -0.000028
                                -0.000093 -0.000273 -0.000701 -0.001447 -0.002185 -0.001262  0.002875  0.009073  0.005937 -0.008461
                                -0.018767 -0.013873  0.012475  0.044593  0.022727  0.004051 -0.000063  0.000171  0.002248 -0.012619
                                -0.000031  0.000220  0.000000  0.002226  0.000000  0.012757  0.000000  0.045526  0.000001  0.118367
                                 0.000003  0.226585  0.000006  0.303154  0.000008  0.307159  0.000008  0.223978  0.000006  0.105091
                                 0.000003  0.023119  0.000001  0.006130  0.000000  0.006099  0.000000  0.001058  0.000000  0.000639
                                 0.000000

   5.2   2    -1.5177 -116.4394 -0.000000  0.000000  0.000000  0.000000  0.000000  0.000000  0.000000  0.000000  0.000000  0.000000
                                 0.000000  0.000000  0.000000  0.000000  0.000000  0.000000 -0.000000 -0.000000 -0.000000  0.000000
                                 0.000001  0.000001 -0.000000 -0.000002 -0.000001 -0.000000 -0.000000 -0.000000 -0.000000  0.000001
                                 0.000000 -0.000000  0.000221 -0.000000  0.002231 -0.000000  0.012788 -0.000001  0.045635 -0.000003
                                 0.118657 -0.000006  0.227131 -0.000008  0.303855 -0.000008  0.307728 -0.000006  0.223975 -0.000003
                                 0.104743 -0.000001  0.023212 -0.000000  0.006128 -0.000000  0.006379 -0.000000  0.001505 -0.000000
                                 0.000755

   6.2   2    -1.4189  -61.2031 -0.000000 -0.000000 -0.000000 -0.000000 -0.000000 -0.000001 -0.000006 -0.000030 -0.000126 -0.000468
                                -0.001566 -0.004611 -0.011821 -0.024407 -0.036858 -0.021291  0.048537  0.153283  0.100358 -0.144259
                                -0.318759 -0.233989  0.213581  0.777443  0.390138  0.068121 -0.002510  0.002935  0.041687 -0.234456
                                -0.000580 -0.000014  0.000000 -0.000137  0.000000 -0.000788  0.000000 -0.002811  0.000000 -0.007317
                                 0.000000 -0.014008  0.000000 -0.018764  0.000000 -0.018875  0.000000 -0.013618  0.000000 -0.005180
                                 0.000000  0.000414 -0.000000  0.000987 -0.000000  0.002657 -0.000000  0.001823 -0.000000  0.000317
                                 0.000000

   7.2   0     0.1035   -6.5107  0.000000 -0.000000  0.000000  0.000000  0.000000  0.000000  0.000000  0.000001  0.000005  0.000012
                                 0.000057  0.000120  0.000435  0.000599  0.001549 -0.000230  0.000406 -0.008873  0.005208 -0.013605
                                 0.059377 -0.292031 -0.501459  4.166088  0.303637 -0.260417  0.521151 -0.916950  0.533684 -4.180642
                                 1.473475 -0.000000  0.000000 -0.000001  0.000000 -0.000003  0.000000 -0.000011  0.000000 -0.000025
                                 0.000000 -0.000054  0.000000 -0.000056  0.000000 -0.000094  0.000000  0.000170 -0.000000  0.000610
                                -0.000000  0.000757 -0.000000 -0.000426  0.000000 -0.000661  0.000000  0.000464 -0.000000  0.002477
                                -0.000000

   8.2   0     0.1745  -12.2435  0.000000 -0.000000 -0.000000 -0.000000 -0.000000 -0.000000 -0.000001 -0.000004 -0.000015 -0.000065
                                -0.000187 -0.000637 -0.001409 -0.003438 -0.004057 -0.004322  0.009721  0.012802  0.027759 -0.051583
                                 0.044014 -0.564005 -0.844855  7.628815  0.658424 -0.533029  0.745453 -2.042813  0.956931 -7.530353
                                 1.019554  0.000000 -0.000000  0.000002 -0.000000  0.000011 -0.000000  0.000043 -0.000000  0.000101
                                -0.000000  0.000216 -0.000000  0.000227 -0.000000  0.000364 -0.000000 -0.000581  0.000000 -0.002025
                                 0.000001 -0.002484  0.000001  0.001485 -0.000000  0.002072 -0.000001 -0.002455 -0.000000 -0.009811
                                 0.000001

                                   1 2py     1 2py     1 2py     1 2py     1 2py     1 2py     1 2py     1 2py     1 2py     1 2py
                                   1 2py     1 2py     1 2py     1 2py     1 2py     1 2py     1 2py     1 2py     1 2py     1 2py
                                   1 2py     1 2py     1 2py     1 2py     1 2py     1 2py     1 2py     1 2py     1 2py     1 2py
                                   1 2py     1 4f1-    1 4f3-    1 4f1-    1 4f3-    1 4f1-    1 4f3-    1 4f1-    1 4f3-    1 4f1-
                                   1 4f3-    1 4f1-    1 4f3-    1 4f1-    1 4f3-    1 4f1-    1 4f3-    1 4f1-    1 4f3-    1 4f1-
                                   1 4f3-    1 4f1-    1 4f3-    1 4f1-    1 4f3-    1 4f1-    1 4f3-    1 4f1-    1 4f3-    1 4f1-
                                   1 4f3-

   1.3   2  -364.3845-1027.1045  0.000000  0.000000  0.000000  0.000000  0.000002  0.000013  0.000073  0.000353  0.001482  0.005506
                                 0.018063  0.051845  0.125763  0.242107  0.334156  0.275164  0.106688  0.013363  0.000563 -0.000182
                                 0.000030 -0.000219 -0.000117  0.000324  0.000008 -0.000001  0.000000 -0.000000  0.000241 -0.000297
                                 0.000000  0.000000  0.000000  0.000001 -0.000000  0.000002 -0.000000  0.000001 -0.000000 -0.000000
                                -0.000000 -0.000000  0.000000 -0.000000 -0.000000  0.000000  0.000000  0.000000 -0.000000  0.000000
                                -0.000000  0.000000 -0.000000 -0.000000  0.000000  0.000000  0.000000  0.000000  0.000000  0.000000
                                -0.000000

   2.3   2   -80.6349 -364.9401 -0.000000 -0.000000 -0.000000 -0.000000 -0.000001 -0.000007 -0.000036 -0.000176 -0.000740 -0.002764
                                -0.009182 -0.026966 -0.068094 -0.138854 -0.203942 -0.134210  0.167172  0.491576  0.387043  0.099820
                                 0.011530 -0.006367 -0.004618  0.013915  0.000325 -0.000061  0.000023 -0.000009  0.008886 -0.012886
                                 0.000003 -0.000000 -0.000000 -0.000000  0.000000  0.000001 -0.000000  0.000004 -0.000000  0.000010
                                -0.000000  0.000015 -0.000000  0.000006 -0.000000 -0.000001 -0.000000 -0.000003  0.000000 -0.000002
                                 0.000000 -0.000001  0.000000  0.000000 -0.000000 -0.000000 -0.000000 -0.000000  0.000000 -0.000000
                                 0.000000

   3.3   2   -15.1397 -155.5575  0.000000  0.000000  0.000000  0.000000  0.000000  0.000003  0.000018  0.000084  0.000356  0.001327
                                 0.004432  0.013056  0.033353  0.068801  0.103226  0.061420 -0.127146 -0.390197 -0.274661  0.272337
                                 0.576104  0.377405  0.078372 -0.063214 -0.001198  0.000272 -0.000105  0.000038 -0.043870  0.060705
                                -0.000012  0.000000 -0.000000  0.000001 -0.000000  0.000002 -0.000000  0.000009 -0.000000  0.000025
                                -0.000000  0.000085 -0.000000  0.000147 -0.000000  0.000133 -0.000000  0.000080 -0.000000  0.000027
                                 0.000000  0.000007  0.000000 -0.000008  0.000000  0.000002 -0.000000  0.000003 -0.000000  0.000000
                                -0.000000

   4.3   2    -1.5276 -116.2225 -0.000000 -0.000000 -0.000000 -0.000000 -0.000000 -0.000000 -0.000000 -0.000002 -0.000007 -0.000028
                                -0.000093 -0.000273 -0.000701 -0.001447 -0.002185 -0.001262  0.002875  0.009073  0.005937 -0.008461
                                -0.018767 -0.013873  0.012475  0.044593  0.022727  0.004051 -0.000063  0.000171  0.002248 -0.012619
                                -0.000031  0.000220  0.000000  0.002226  0.000000  0.012757  0.000000  0.045526  0.000001  0.118367
                                 0.000003  0.226585  0.000006  0.303154  0.000008  0.307159  0.000008  0.223978  0.000006  0.105091
                                 0.000003  0.023119  0.000001  0.006130  0.000000  0.006099  0.000000  0.001058  0.000000  0.000639
                                 0.000000

   5.3   2    -1.5177 -116.4394  0.000000  0.000000  0.000000  0.000000  0.000000  0.000000  0.000000  0.000000  0.000000  0.000000
                                 0.000000  0.000000  0.000000  0.000000  0.000000  0.000000 -0.000000 -0.000000 -0.000000  0.000000
                                 0.000001  0.000001 -0.000000 -0.000002 -0.000001 -0.000000  0.000000 -0.000000 -0.000000  0.000001
                                 0.000000 -0.000000  0.000221 -0.000000  0.002231 -0.000000  0.012788 -0.000001  0.045635 -0.000003
                                 0.118657 -0.000006  0.227131 -0.000008  0.303855 -0.000008  0.307728 -0.000006  0.223975 -0.000003
                                 0.104743 -0.000001  0.023212 -0.000000  0.006128 -0.000000  0.006379 -0.000000  0.001505 -0.000000
                                 0.000755

   6.3   2    -1.4189  -61.2031 -0.000000 -0.000000 -0.000000 -0.000000 -0.000000 -0.000001 -0.000006 -0.000030 -0.000126 -0.000468
                                -0.001566 -0.004611 -0.011821 -0.024407 -0.036858 -0.021291  0.048537  0.153283  0.100358 -0.144259
                                -0.318759 -0.233989  0.213581  0.777445  0.390138  0.068121 -0.002510  0.002935  0.041687 -0.234457
                                -0.000580 -0.000014  0.000000 -0.000137  0.000000 -0.000788  0.000000 -0.002811  0.000000 -0.007317
                                 0.000000 -0.014008  0.000000 -0.018764  0.000000 -0.018875  0.000000 -0.013618  0.000000 -0.005180
                                 0.000000  0.000414 -0.000000  0.000987 -0.000000  0.002657 -0.000000  0.001823 -0.000000  0.000317
                                 0.000000

   7.3   0     0.1035   -6.5107  0.000000 -0.000000  0.000000  0.000000  0.000000  0.000000  0.000000  0.000001  0.000005  0.000012
                                 0.000057  0.000120  0.000435  0.000599  0.001549 -0.000230  0.000406 -0.008873  0.005208 -0.013605
                                 0.059377 -0.292030 -0.501458  4.166073  0.303637 -0.260416  0.521150 -0.916951  0.533682 -4.180626
                                 1.473476 -0.000000  0.000000 -0.000001  0.000000 -0.000003  0.000000 -0.000011  0.000000 -0.000025
                                 0.000000 -0.000054  0.000000 -0.000056  0.000000 -0.000094  0.000000  0.000170 -0.000000  0.000610
                                -0.000000  0.000757 -0.000000 -0.000426  0.000000 -0.000661  0.000000  0.000464  0.000000  0.002477
                                -0.000000

   8.3   0     0.1745  -12.2435  0.000000 -0.000000 -0.000000 -0.000000 -0.000000 -0.000000 -0.000001 -0.000004 -0.000015 -0.000065
                                -0.000187 -0.000637 -0.001409 -0.003438 -0.004057 -0.004322  0.009721  0.012802  0.027759 -0.051583
                                 0.044014 -0.564005 -0.844856  7.628822  0.658424 -0.533030  0.745455 -2.042814  0.956932 -7.530360
                                 1.019552  0.000000 -0.000000  0.000002 -0.000000  0.000011 -0.000000  0.000043 -0.000000  0.000101
                                -0.000000  0.000216 -0.000000  0.000227 -0.000000  0.000364 -0.000000 -0.000580  0.000000 -0.002025
                                 0.000001 -0.002484  0.000001  0.001485 -0.000000  0.002072 -0.000001 -0.002455 -0.000000 -0.009811
                                 0.000001

                                   1 3d2-    1 3d2-    1 3d2-    1 3d2-    1 3d2-    1 3d2-    1 3d2-    1 3d2-    1 3d2-    1 3d2-
                                   1 3d2-    1 3d2-    1 3d2-    1 3d2-    1 3d2-    1 3d2-    1 3d2-    1 3d2-    1 3d2-    1 3d2-
                                   1 3d2-    1 3d2-    1 5g2-    1 5g4-    1 5g2-    1 5g4-    1 5g2-    1 5g4-

   1.4   2   -66.4503 -348.4558  0.000003  0.000048  0.000446  0.002742  0.012395  0.041787  0.109752  0.219232  0.322342  0.311383
                                 0.156478  0.034363  0.002395 -0.000459  0.000216  0.000164 -0.000013  0.000003 -0.000001  0.001066
                                -0.000214  0.000000 -0.000000 -0.000000 -0.000000  0.000000  0.000000 -0.000000

   2.4   2    -9.2360 -141.7769 -0.000002 -0.000024 -0.000219 -0.001349 -0.006162 -0.020949 -0.056254 -0.113353 -0.162624 -0.116579
                                 0.115409  0.371759  0.415145  0.210443  0.042746  0.005888 -0.000101  0.000031 -0.000021  0.006131
                                -0.005253  0.000004  0.000146 -0.000000 -0.000005  0.000000  0.000015 -0.000000

   3.4   +    -0.1169  -39.9669  0.000000  0.000005  0.000049  0.000305  0.001392  0.004745  0.012773  0.025794  0.036838  0.024609
                                -0.035879 -0.100477 -0.110057 -0.001468  0.195907  0.355090  0.372665  0.246547  0.084025 -0.006085
                                 0.002950  0.008688  0.001410 -0.000000  0.004556 -0.000000  0.005296 -0.000000

   4.4   0     0.1559   -7.2567 -0.000000 -0.000000 -0.000006 -0.000020 -0.000147 -0.000332 -0.001362 -0.001643 -0.004623  0.000786
                                -0.002949  0.022849 -0.040319 -0.275915  0.157910  0.651897 -0.252031  0.280893 -0.683943  0.257394
                                -0.691093  1.362276 -0.000111 -0.000000 -0.000401  0.000000 -0.000190  0.000000

   5.4   0     0.3290  -12.8957 -0.000000 -0.000002 -0.000012 -0.000111 -0.000376 -0.001688 -0.003412 -0.009563 -0.008161 -0.014787
                                 0.026035 -0.002375  0.155634  0.671088 -0.493103 -1.819101  0.439368 -0.908309  1.973295 -0.621973
                                 1.712768 -0.871002 -0.000370 -0.000000 -0.001374  0.000000  0.000029 -0.000000

                                   1 2pz     1 2pz     1 2pz     1 2pz     1 2pz     1 2pz     1 2pz     1 2pz     1 2pz     1 2pz
                                   1 2pz     1 2pz     1 2pz     1 2pz     1 2pz     1 2pz     1 2pz     1 2pz     1 2pz     1 2pz
                                   1 2pz     1 2pz     1 2pz     1 2pz     1 2pz     1 2pz     1 2pz     1 2pz     1 2pz     1 2pz
                                   1 2pz     1 4f0     1 4f2+    1 4f0     1 4f2+    1 4f0     1 4f2+    1 4f0     1 4f2+    1 4f0
                                   1 4f2+    1 4f0     1 4f2+    1 4f0     1 4f2+    1 4f0     1 4f2+    1 4f0     1 4f2+    1 4f0
                                   1 4f2+    1 4f0     1 4f2+    1 4f0     1 4f2+    1 4f0     1 4f2+    1 4f0     1 4f2+    1 4f0
                                   1 4f2+

   1.5   2  -364.3858-1027.1057  0.000000  0.000000  0.000000  0.000000  0.000002  0.000013  0.000073  0.000353  0.001482  0.005506
                                 0.018063  0.051845  0.125762  0.242106  0.334156  0.275164  0.106687  0.013364  0.000564 -0.000181
                                 0.000030 -0.000219 -0.000117  0.000322  0.000008 -0.000001  0.000000 -0.000000  0.000241 -0.000296
                                 0.000000  0.000000  0.000000  0.000000 -0.000000 -0.000001 -0.000000 -0.000000 -0.000000  0.000001
                                -0.000000  0.000001  0.000000  0.000001 -0.000000 -0.000000  0.000000  0.000000 -0.000000  0.000000
                                -0.000000  0.000000 -0.000000 -0.000001  0.000000 -0.000000  0.000000 -0.000000  0.000000 -0.000000
                                -0.000000

   2.5   2   -80.6397 -364.9441 -0.000000 -0.000000 -0.000000 -0.000000 -0.000001 -0.000007 -0.000036 -0.000176 -0.000740 -0.002764
                                -0.009182 -0.026966 -0.068093 -0.138851 -0.203941 -0.134209  0.167162  0.491561  0.387071  0.099812
                                 0.011529 -0.006375 -0.004620  0.013939  0.000328 -0.000061  0.000023 -0.000009  0.008898 -0.012906
                                 0.000003  0.000000 -0.000000 -0.000000  0.000000  0.000001 -0.000000  0.000007 -0.000000  0.000028
                                -0.000000  0.000009 -0.000000 -0.000007 -0.000000  0.000007 -0.000000 -0.000000  0.000000 -0.000002
                                 0.000000 -0.000000  0.000000  0.000009 -0.000000  0.000005 -0.000000  0.000001  0.000000  0.000000
                                 0.000000

   3.5   2   -15.1495 -155.5506  0.000000  0.000000  0.000000  0.000000  0.000000  0.000003  0.000018  0.000084  0.000356  0.001327
                                 0.004431  0.013053  0.033344  0.068782  0.103200  0.061403 -0.127103 -0.390060 -0.274634  0.272214
                                 0.575743  0.377454  0.078568 -0.063233 -0.001232  0.000263 -0.000106  0.000037 -0.043613  0.060697
                                -0.000012  0.000000 -0.000000  0.000001 -0.000000  0.000002 -0.000000  0.000010 -0.000000  0.000002
                                -0.000000  0.000032 -0.000000  0.000078 -0.000000  0.000301 -0.000000  0.000388 -0.000000  0.000097
                                 0.000000  0.000009  0.000000 -0.000224  0.000000 -0.000101 -0.000000 -0.000017 -0.000000 -0.000001
                                -0.000000

   4.5   2    -1.5292 -116.4366 -0.000000 -0.000000 -0.000000 -0.000000 -0.000000 -0.000000 -0.000000 -0.000001 -0.000002 -0.000008
                                -0.000028 -0.000083 -0.000213 -0.000439 -0.000665 -0.000381  0.000869  0.002789  0.001789 -0.002609
                                -0.006048 -0.003157  0.006214  0.003452  0.002374 -0.000825 -0.000119 -0.000006 -0.000534  0.005740
                                 0.000003  0.000221  0.000000  0.002230  0.000000  0.012781  0.000000  0.045610  0.000000  0.118587
                                 0.000001  0.227000  0.000002  0.303716  0.000002  0.307777  0.000002  0.224584  0.000002  0.105327
                                 0.000001  0.022844  0.000000  0.005940  0.000000  0.005537  0.000000  0.000600  0.000000  0.000552
                                 0.000000

   5.5   2    -1.5224 -116.4031 -0.000000  0.000000  0.000000  0.000000  0.000000  0.000000  0.000000  0.000000  0.000000  0.000000
                                 0.000000  0.000000  0.000000  0.000000  0.000000  0.000000 -0.000000 -0.000000 -0.000000  0.000000
                                 0.000000  0.000000 -0.000000 -0.000000 -0.000000 -0.000000 -0.000000 -0.000000  0.000000  0.000000
                                 0.000000 -0.000000  0.000221 -0.000000  0.002230 -0.000000  0.012782 -0.000000  0.045611 -0.000001
                                 0.118592 -0.000002  0.227024 -0.000002  0.303730 -0.000002  0.307617 -0.000002  0.223962 -0.000001
                                 0.104960 -0.000000  0.023410 -0.000000  0.006293 -0.000000  0.006661 -0.000000  0.001597 -0.000000
                                 0.000749

   6.5   2    -1.4252  -61.1036 -0.000000 -0.000000 -0.000000 -0.000000 -0.000000 -0.000001 -0.000006 -0.000030 -0.000126 -0.000470
                                -0.001572 -0.004629 -0.011867 -0.024501 -0.037003 -0.021370  0.048716  0.153881  0.100739 -0.144762
                                -0.320067 -0.233261  0.216334  0.755370  0.388832  0.064565 -0.002917  0.002931  0.038712 -0.207740
                                -0.000562 -0.000003  0.000000 -0.000027  0.000000 -0.000153  0.000000 -0.000551  0.000000 -0.001410
                                 0.000000 -0.002726  0.000000 -0.003560  0.000000 -0.003765  0.000000 -0.002771  0.000000 -0.000143
                                 0.000000 -0.001195 -0.000000 -0.000660 -0.000000 -0.002232 -0.000000 -0.003527 -0.000000 -0.000761
                                 0.000000

   7.5   0     0.1031   -6.5506  0.000000 -0.000000  0.000000  0.000000  0.000000  0.000000  0.000000  0.000001  0.000005  0.000012
                                 0.000058  0.000122  0.000437  0.000607  0.001551 -0.000213  0.000368 -0.008850  0.005067 -0.013317
                                 0.058761 -0.287847 -0.494769  4.109775  0.298900 -0.257522  0.516211 -0.899730  0.526349 -4.124583
                                 1.464676  0.000000  0.000000  0.000001  0.000000  0.000009  0.000000  0.000030  0.000000  0.000083
                                 0.000000  0.000146  0.000000  0.000220  0.000000  0.000143  0.000000  0.000542 -0.000000  0.001298
                                -0.000000  0.001009 -0.000000 -0.000868  0.000000 -0.001888  0.000000 -0.002071 -0.000000  0.000152
                                -0.000000

   8.5   0     0.1732  -12.1919  0.000000 -0.000000 -0.000000 -0.000000 -0.000000 -0.000000 -0.000001 -0.000004 -0.000014 -0.000064
                                -0.000182 -0.000622 -0.001372 -0.003359 -0.003943 -0.004249  0.009552  0.012333  0.027386 -0.050984
                                 0.044803 -0.561486 -0.843230  7.604948  0.656476 -0.528401  0.740860 -2.045062  0.953760 -7.509018
                                 1.030732 -0.000001 -0.000000 -0.000006 -0.000000 -0.000035 -0.000000 -0.000119 -0.000000 -0.000324
                                -0.000000 -0.000579 -0.000000 -0.000841 -0.000000 -0.000620 -0.000000 -0.001572  0.000000 -0.003013
                                 0.000001 -0.001345  0.000001  0.002242 -0.000000  0.004735 -0.000001  0.006082 -0.000000  0.001912
                                 0.000001

                                   1 3d1+    1 3d1+    1 3d1+    1 3d1+    1 3d1+    1 3d1+    1 3d1+    1 3d1+    1 3d1+    1 3d1+
                                   1 3d1+    1 3d1+    1 3d1+    1 3d1+    1 3d1+    1 3d1+    1 3d1+    1 3d1+    1 3d1+    1 3d1+
                                   1 3d1+    1 3d1+    1 5g1+    1 5g3+    1 5g1+    1 5g3+    1 5g1+    1 5g3+

   1.6   2   -66.4532 -348.4579  0.000003  0.000048  0.000446  0.002742  0.012395  0.041787  0.109751  0.219230  0.322337  0.311379
                                 0.156486  0.034372  0.002396 -0.000461  0.000215  0.000164 -0.000013  0.000003 -0.000001  0.001066
                                -0.000214  0.000000  0.000002 -0.000000 -0.000001  0.000000  0.000000 -0.000000

   2.6   2    -9.2431 -141.7764 -0.000002 -0.000024 -0.000219 -0.001349 -0.006161 -0.020947 -0.056248 -0.113342 -0.162607 -0.116579
                                 0.115383  0.371724  0.415092  0.210548  0.042865  0.005917 -0.000106  0.000024 -0.000023  0.006068
                                -0.005247  0.000004  0.000335 -0.000000 -0.000148  0.000000  0.000044 -0.000000

   3.6   +    -0.1429  -40.5225  0.000000  0.000005  0.000050  0.000309  0.001413  0.004814  0.012959  0.026171  0.037376  0.024974
                                -0.036391 -0.101930 -0.111660 -0.001833  0.198719  0.362650  0.377968  0.236905  0.070341 -0.006115
                                 0.002869  0.005242  0.000286 -0.000000  0.001031 -0.000000  0.000806 -0.000000

   4.6   0     0.1556   -7.2336 -0.000000 -0.000000 -0.000005 -0.000018 -0.000136 -0.000294 -0.001258 -0.001441 -0.004320  0.000961
                                -0.003193  0.021952 -0.040858 -0.274058  0.158301  0.650055 -0.247670  0.282340 -0.675461  0.255616
                                -0.686558  1.358711 -0.000012 -0.000000 -0.000167  0.000000  0.000154  0.000000

   5.6   0     0.3261  -12.7502 -0.000000 -0.000002 -0.000012 -0.000107 -0.000360 -0.001629 -0.003271 -0.009237 -0.007779 -0.014390
                                 0.025387 -0.003039  0.152495  0.660929 -0.484336 -1.789706  0.434822 -0.884285  1.965071 -0.612557
                                 1.686612 -0.873388 -0.000032 -0.000000 -0.000822  0.000000  0.001235 -0.000000

                                   1 3d1-    1 3d1-    1 3d1-    1 3d1-    1 3d1-    1 3d1-    1 3d1-    1 3d1-    1 3d1-    1 3d1-
                                   1 3d1-    1 3d1-    1 3d1-    1 3d1-    1 3d1-    1 3d1-    1 3d1-    1 3d1-    1 3d1-    1 3d1-
                                   1 3d1-    1 3d1-    1 5g1-    1 5g3-    1 5g1-    1 5g3-    1 5g1-    1 5g3-

   1.7   2   -66.4532 -348.4579  0.000003  0.000048  0.000446  0.002742  0.012395  0.041787  0.109751  0.219230  0.322337  0.311379
                                 0.156486  0.034372  0.002396 -0.000461  0.000215  0.000164 -0.000013  0.000003 -0.000001  0.001066
                                -0.000214  0.000000  0.000002 -0.000000 -0.000001  0.000000  0.000000 -0.000000

   2.7   2    -9.2431 -141.7764 -0.000002 -0.000024 -0.000219 -0.001349 -0.006161 -0.020947 -0.056248 -0.113342 -0.162607 -0.116579
                                 0.115383  0.371724  0.415092  0.210548  0.042865  0.005917 -0.000106  0.000024 -0.000023  0.006068
                                -0.005247  0.000004  0.000335 -0.000000 -0.000148  0.000000  0.000044 -0.000000

   3.7   +    -0.1429  -40.5225  0.000000  0.000005  0.000050  0.000309  0.001413  0.004814  0.012959  0.026171  0.037376  0.024974
                                -0.036391 -0.101930 -0.111660 -0.001833  0.198718  0.362650  0.377968  0.236905  0.070340 -0.006115
                                 0.002869  0.005242  0.000286 -0.000000  0.001031 -0.000000  0.000806 -0.000000

   4.7   0     0.1556   -7.2336 -0.000000 -0.000000 -0.000005 -0.000018 -0.000136 -0.000294 -0.001258 -0.001441 -0.004320  0.000961
                                -0.003193  0.021952 -0.040858 -0.274057  0.158300  0.650053 -0.247669  0.282339 -0.675460  0.255615
                                -0.686556  1.358710 -0.000012 -0.000000 -0.000167  0.000000  0.000154  0.000000

   5.7   0     0.3261  -12.7502 -0.000000 -0.000002 -0.000012 -0.000107 -0.000360 -0.001629 -0.003271 -0.009237 -0.007779 -0.014390
                                 0.025387 -0.003039  0.152495  0.660928 -0.484335 -1.789705  0.434822 -0.884285  1.965072 -0.612557
                                 1.686611 -0.873388 -0.000032 -0.000000 -0.000822  0.000000  0.001234 -0.000000

                                   1 4f2-    1 4f2-    1 4f2-    1 4f2-    1 4f2-    1 4f2-    1 4f2-    1 4f2-    1 4f2-    1 4f2-
                                   1 4f2-    1 4f2-    1 4f2-    1 4f2-    1 4f2-

   1.8   2    -1.5224 -116.4031  0.000221  0.002230  0.012782  0.045611  0.118592  0.227024  0.303730  0.307617  0.223962  0.104960
                                 0.023410  0.006293  0.006661  0.001597  0.000749

   2.8   0     0.4751  -14.1350  0.000002 -0.000118 -0.000107 -0.002130 -0.000885 -0.012413  0.006826 -0.052526  0.325414  1.006397
                                 1.036951 -0.646595 -1.186255 -0.709080  1.182974

   3.8   0     1.0042  -22.2728 -0.000048 -0.000132 -0.002189 -0.003419 -0.020615 -0.012235 -0.074126  0.079543 -0.864865 -2.647148
                                -2.862146  1.691274  3.298558  2.640058 -0.792219

 HOMO      3.4    -0.116916 =      -3.1815eV
 LUMO      7.5     0.103147 =       2.8068eV
 LUMO-HOMO         0.220063 =       5.9882eV


 **********************************************************************************************************************************
 DATASETS  * FILE   NREC   LENGTH (MB)   RECORD NAMES
              1      18       20.85       500      610      700      900      950      970     1000      129      960     1100
                                          VAR    BASINP    GEOM    SYMINP    ZMAT    AOBASIS   BASIS     P2S    ABASIS      S
                                         1400     1410     1200     1210     1080     1600     1650     1700
                                           T        V       H0       H01     AOSYM     SMH    MOLCAS    OPER

              2       5        6.00       200      700     1000      520     4202
                                        OPTIONS   GEOM     BASIS   MCVARS     RHF

 PROGRAMS   *        TOTAL       RHF       INT
 CPU TIMES  *       111.47      2.50    108.38
 REAL TIME  *       116.13 SEC
 DISK USED  *         5.00 GB
 SF USED    *         0.09 MB
 GA USED    *         0.00 MB       (max)       0.00 MB       (current)
 **********************************************************************************************************************************
   -->
   <time start="20:17:46" end="20:19:42" cpu="111.47" system="4.15" real="116.13"/>
   <storage units="megabyte" memory="8001.84" sf="0.09" df="331.05" eaf="4668.79" ga="0.0"/>
  </jobstep><!--
  --><jobstep command="POP" commandset="POP">
   <!--


 PROGRAM * POP (Mulliken population analysis)


 Density matrix read from record         4202.2  Type=RHF/CHARGE (state 1.1)

 Population analysis by basis function type

 Unique atom        s        p        d        f        g    Total    Charge
   1  TA     11.99713 23.99971 24.00269 14.00029  0.00018 74.00000  - 1.00000


 **********************************************************************************************************************************
 DATASETS  * FILE   NREC   LENGTH (MB)   RECORD NAMES
              1      18       20.85       500      610      700      900      950      970     1000      129      960     1100
                                          VAR    BASINP    GEOM    SYMINP    ZMAT    AOBASIS   BASIS     P2S    ABASIS      S
                                         1400     1410     1200     1210     1080     1600     1650     1700
                                           T        V       H0       H01     AOSYM     SMH    MOLCAS    OPER

              2       5        6.00       200      700     1000      520     4202
                                        OPTIONS   GEOM     BASIS   MCVARS     RHF

 PROGRAMS   *        TOTAL       POP       RHF       INT
 CPU TIMES  *       111.48      0.01      2.50    108.38
 REAL TIME  *       116.14 SEC
 DISK USED  *         5.00 GB
 SF USED    *         0.09 MB
 GA USED    *         0.00 MB       (max)       0.00 MB       (current)
 **********************************************************************************************************************************
   -->
   <time start="20:19:42" end="20:19:42" cpu="0.01" system="0.0" real="0.01"/>
   <storage units="megabyte" memory="8001.84" sf="0.09" df="331.05" eaf="4668.79" ga="0.0"/>
  </jobstep><!--
  --><jobstep command="MULTI" commandset="MULTI">
   <!--


 PROGRAM * MULTI (Direct Multiconfiguration SCF)       Authors: P.J. Knowles, H.-J. Werner (1984)     S.T. Elbert (1988)


 Number of closed-shell orbitals:  35 (  10   6   6   2   6   2   2   1 )
 Number of active  orbitals:        5 (   2   0   0   1   0   1   1   0 )
 Number of external orbitals:     330 (  76  55  55  25  55  25  25  14 )

 State symmetry 1

 Number of electrons:     4    Spin symmetry=Quintet   Space symmetry=1
 Number of states:        2
 Number of CSFs:          2   (2 determinants, 5 intermediate states)

 State symmetry 2

 Number of electrons:     4    Spin symmetry=Quintet   Space symmetry=4
 Number of states:        1
 Number of CSFs:          1   (1 determinants, 5 intermediate states)

 State symmetry 3

 Number of electrons:     4    Spin symmetry=Quintet   Space symmetry=6
 Number of states:        1
 Number of CSFs:          1   (1 determinants, 5 intermediate states)

 State symmetry 4

 Number of electrons:     4    Spin symmetry=Quintet   Space symmetry=7
 Number of states:        1
 Number of CSFs:          1   (1 determinants, 5 intermediate states)

 Molecular orbitals read from record     4202.2  Type=RHF/CANONICAL (state 1.1)
 *** IN SYMMETRY 1 ORBITAL  3 SYMMETRY CONTAMINATION OF 0.671D-04 HAS BEEN REMOVED
 *** IN SYMMETRY 1 ORBITAL  4 SYMMETRY CONTAMINATION OF 0.321D-03 HAS BEEN REMOVED
 *** IN SYMMETRY 1 ORBITAL  5 SYMMETRY CONTAMINATION OF 0.689D-03 HAS BEEN REMOVED
 *** IN SYMMETRY 1 ORBITAL  6 SYMMETRY CONTAMINATION OF 0.386D-03 HAS BEEN REMOVED
 *** IN SYMMETRY 1 ORBITAL  7 SYMMETRY CONTAMINATION OF 0.283D-03 HAS BEEN REMOVED
 *** IN SYMMETRY 1 ORBITAL  8 SYMMETRY CONTAMINATION OF 0.572D-02 HAS BEEN REMOVED
 *** IN SYMMETRY 1 ORBITAL  9 SYMMETRY CONTAMINATION OF 0.256D-02 HAS BEEN REMOVED
 *** IN SYMMETRY 1 ORBITAL 10 SYMMETRY CONTAMINATION OF 0.243D-01 HAS BEEN REMOVED
 *** IN SYMMETRY 1 ORBITAL 11 SYMMETRY CONTAMINATION OF 0.699D-02 HAS BEEN REMOVED
 *** IN SYMMETRY 1 ORBITAL 12 SYMMETRY CONTAMINATION OF 0.123D-01 HAS BEEN REMOVED

 EXTRA SYMMETRY OF MOS IN SYMMETRY 1:   1 1 1 3 2 1 3 2 1 1   3 2 1 3 2 1 3 2 3 2   1 4 6 5 3 2 1 6 4 5   2 3 1 2 3 4 6 5 1 2
                                        3 1 2 3 2 3 1 2 3 1   2 3 1 2 3 1 2 3 2 3   1 2 3 1 2 3 1 2 3 1   1 2 3 1 2 3 1 1 1 1
                                        1 1 1 1 1 1 1 1
 *** IN SYMMETRY 2 ORBITAL  2 SYMMETRY CONTAMINATION OF 0.238D-04 HAS BEEN REMOVED
 *** IN SYMMETRY 2 ORBITAL  3 SYMMETRY CONTAMINATION OF 0.207D-03 HAS BEEN REMOVED
 *** IN SYMMETRY 2 ORBITAL  4 SYMMETRY CONTAMINATION OF 0.106D+00 HAS BEEN REMOVED
 *** IN SYMMETRY 2 ORBITAL  5 SYMMETRY CONTAMINATION OF 0.320D-04 HAS BEEN REMOVED
 *** IN SYMMETRY 2 ORBITAL  6 SYMMETRY CONTAMINATION OF 0.300D-01 HAS BEEN REMOVED
 EXTRA SYMMETRY OF MOS IN SYMMETRY 2:   1 1 1 2 3 1 1 1 1 3   2 1 3 2 1 3 2 2 3 1   2 3 1 2 3 1 2 3 1 2   3 2 3 1 2 3 1 2 3 1
                                        2 3 1 1 2 3 1 2 3 1   1 1 1 1 1 1 1 1 1 1   1
 *** IN SYMMETRY 3 ORBITAL  2 SYMMETRY CONTAMINATION OF 0.238D-04 HAS BEEN REMOVED
 *** IN SYMMETRY 3 ORBITAL  3 SYMMETRY CONTAMINATION OF 0.207D-03 HAS BEEN REMOVED
 *** IN SYMMETRY 3 ORBITAL  4 SYMMETRY CONTAMINATION OF 0.106D+00 HAS BEEN REMOVED
 *** IN SYMMETRY 3 ORBITAL  5 SYMMETRY CONTAMINATION OF 0.312D-04 HAS BEEN REMOVED
 *** IN SYMMETRY 3 ORBITAL  6 SYMMETRY CONTAMINATION OF 0.300D-01 HAS BEEN REMOVED
 EXTRA SYMMETRY OF MOS IN SYMMETRY 3:   1 1 1 2 3 1 1 1 1 3   2 1 3 2 1 3 2 2 3 1   2 3 1 2 3 1 2 3 1 2   3 2 3 1 2 3 1 2 3 1
                                        2 3 1 1 2 3 1 2 3 1   1 1 1 1 1 1 1 1 1 1   1
 *** IN SYMMETRY 4 ORBITAL  2 SYMMETRY CONTAMINATION OF 0.100D-03 HAS BEEN REMOVED
 *** IN SYMMETRY 4 ORBITAL  3 SYMMETRY CONTAMINATION OF 0.688D-02 HAS BEEN REMOVED
 EXTRA SYMMETRY OF MOS IN SYMMETRY 4:   1 1 1 1 1 1 2 3 1 2   3 1 1 2 3 1 1 1 1 1   1 1 1 1 1 1 1 1
 *** IN SYMMETRY 5 ORBITAL  2 SYMMETRY CONTAMINATION OF 0.434D-04 HAS BEEN REMOVED
 *** IN SYMMETRY 5 ORBITAL  3 SYMMETRY CONTAMINATION OF 0.495D-03 HAS BEEN REMOVED
 *** IN SYMMETRY 5 ORBITAL  4 SYMMETRY CONTAMINATION OF 0.270D-01 HAS BEEN REMOVED
 *** IN SYMMETRY 5 ORBITAL  6 SYMMETRY CONTAMINATION OF 0.837D-02 HAS BEEN REMOVED
 EXTRA SYMMETRY OF MOS IN SYMMETRY 5:   1 1 1 2 3 1 1 1 1 3   2 1 3 2 1 3 2 3 2 1   2 3 1 2 3 1 2 3 1 2   3 2 3 1 2 3 1 2 3 1
                                        2 3 1 1 2 3 1 2 3 1   1 1 1 1 1 1 1 1 1 1   1
 *** IN SYMMETRY 6 ORBITAL  2 SYMMETRY CONTAMINATION OF 0.320D-03 HAS BEEN REMOVED
 *** IN SYMMETRY 6 ORBITAL  3 SYMMETRY CONTAMINATION OF 0.131D-02 HAS BEEN REMOVED
 EXTRA SYMMETRY OF MOS IN SYMMETRY 6:   1 1 1 1 1 1 2 3 1 2   3 1 1 2 3 1 1 1 1 1   1 1 1 1 1 1 1 1
 *** IN SYMMETRY 7 ORBITAL  2 SYMMETRY CONTAMINATION OF 0.320D-03 HAS BEEN REMOVED
 *** IN SYMMETRY 7 ORBITAL  3 SYMMETRY CONTAMINATION OF 0.131D-02 HAS BEEN REMOVED
 EXTRA SYMMETRY OF MOS IN SYMMETRY 7:   1 1 1 1 1 1 2 3 1 2   3 1 1 2 3 1 1 1 1 1   1 1 1 1 1 1 1 1

 Wavefunction dump at record             5202.2

 Convergence thresholds  0.10E-01 (gradient)  0.15E-05 (energy)  0.10E-02 (step length)

 Weight factors for state symmetry  1:    0.20000   0.20000
 Weight factors for state symmetry  2:    0.20000
 Weight factors for state symmetry  3:    0.20000
 Weight factors for state symmetry  4:    0.20000

 Number of orbital rotations:     2167   (    26 Core/Active   1914 Core/Virtual   0 Active/Active    227 Active/Virtual)
 Total number of variables:       2174


 ITER. MIC  NCI  NEG     ENERGY(VAR)     ENERGY(PROJ)   ENERGY CHANGE     GRAD(0)  GRAD(ORB)   GRAD(CI)     STEP       TIME

   1   40   28    0  -14799.69655862  -14799.87063962   -0.17408099    0.27188868 0.00000008 0.00000000  0.10D+01      7.66
   2   21   32    0  -14799.81430845  -14799.83689070   -0.02258225    0.22342818 0.00000000 0.00000000  0.19D+00     14.13
   3   20   32    0  -14799.83828097  -14799.83859448   -0.00031350    0.01487290 0.00000000 0.00000000  0.31D-01     19.83
   4   21   20    0  -14799.83859869  -14799.83859883   -0.00000014    0.00026661 0.00000000 0.00000000  0.73D-03     24.09

 ** WVFN ****  CONVERGENCE REACHED, FINAL GRADIENT:  0.12D-06



 Results for state 1.1
 =====================

 !MCSCF STATE 1.1 Energy             -14799.8385988334
   --><property name="Energy" method="MCSCF" principal="true" stateSymmetry="1" stateNumber="1"
     value="-14799.8385988334"/><!--
 Nuclear energy                         0.00000000
 Kinetic energy                     14799.84261011
 One electron energy               -20477.80170630
 Two electron energy                 5677.96310747
 Virial ratio                           1.99999973

 !MCSCF STATE 1.1 Dipole moment         0.00000000     0.00000000     0.00000000
 Dipole moment /Debye                   0.00000000     0.00000000     0.00000000
   --><property name="Dipole moment" method="MCSCF" principal="true" stateSymmetry="1"
     stateNumber="1" value="0.0 0.0 0.0"/><!--

 Results for state 2.1
 =====================

 !MCSCF STATE 2.1 Energy             -14799.8385988333
   --><property name="Energy" method="MCSCF" principal="true" stateSymmetry="1" stateNumber="2"
     value="-14799.8385988333"/><!--
 Nuclear energy                         0.00000000
 Kinetic energy                     14799.84261050
 One electron energy               -20477.80170815
 Two electron energy                 5677.96310932
 Virial ratio                           1.99999973

 !MCSCF STATE 2.1 Dipole moment         0.00000000     0.00000000     0.00000000
 Dipole moment /Debye                   0.00000000     0.00000000     0.00000000
   --><property name="Dipole moment" method="MCSCF" principal="true" stateSymmetry="1"
     stateNumber="2" value="0.0 0.0 0.0"/><!--



 Results for state 1.4
 =====================

 !MCSCF STATE 1.4 Energy             -14799.8385988334
   --><property name="Energy" method="MCSCF" principal="true" stateSymmetry="4" stateNumber="1"
     value="-14799.8385988334"/><!--
 Nuclear energy                         0.00000000
 Kinetic energy                     14799.84261011
 One electron energy               -20477.80170630
 Two electron energy                 5677.96310747
 Virial ratio                           1.99999973

 !MCSCF STATE 1.4 Dipole moment         0.00000000     0.00000000     0.00000000
 Dipole moment /Debye                   0.00000000     0.00000000     0.00000000
   --><property name="Dipole moment" method="MCSCF" principal="true" stateSymmetry="4"
     stateNumber="1" value="0.0 0.0 0.0"/><!--



 Results for state 1.6
 =====================

 !MCSCF STATE 1.6 Energy             -14799.8385988325
   --><property name="Energy" method="MCSCF" principal="true" stateSymmetry="6" stateNumber="1"
     value="-14799.8385988325"/><!--
 Nuclear energy                         0.00000000
 Kinetic energy                     14799.84261001
 One electron energy               -20477.80170584
 Two electron energy                 5677.96310701
 Virial ratio                           1.99999973

 !MCSCF STATE 1.6 Dipole moment         0.00000000     0.00000000     0.00000000
 Dipole moment /Debye                   0.00000000     0.00000000     0.00000000
   --><property name="Dipole moment" method="MCSCF" principal="true" stateSymmetry="6"
     stateNumber="1" value="0.0 0.0 0.0"/><!--



 Results for state 1.7
 =====================

 !MCSCF STATE 1.7 Energy             -14799.8385988325
   --><property name="Energy" method="MCSCF" principal="true" stateSymmetry="7" stateNumber="1"
     value="-14799.8385988325"/><!--
 Nuclear energy                         0.00000000
 Kinetic energy                     14799.84261001
 One electron energy               -20477.80170584
 Two electron energy                 5677.96310701
 Virial ratio                           1.99999973

 !MCSCF STATE 1.7 Dipole moment         0.00000000     0.00000000     0.00000000
 Dipole moment /Debye                   0.00000000     0.00000000     0.00000000
   --><property name="Dipole moment" method="MCSCF" principal="true" stateSymmetry="7"
     stateNumber="1" value="0.0 0.0 0.0"/><!--

 State-averaged charge density matrix saved on record  5202.2 (density set 1)


 NATURAL ORBITALS (state averaged)
 =================================

   Orb     Occ        Energy       Coefficients

                                   1 1s      1 1s      1 1s      1 1s      1 1s      1 1s      1 1s      1 1s      1 1s      1 1s
                                   1 1s      1 1s      1 1s      1 1s      1 1s      1 1s      1 1s      1 1s      1 1s      1 1s
                                   1 1s      1 1s      1 1s      1 1s      1 1s      1 1s      1 1s      1 1s      1 1s      1 1s
                                   1 1s      1 1s      1 1s      1 1s      1 1s      1 3d0     1 3d2+    1 3d0     1 3d2+    1 3d0
                                   1 3d2+    1 3d0     1 3d2+    1 3d0     1 3d2+    1 3d0     1 3d2+    1 3d0     1 3d2+    1 3d0
                                   1 3d2+    1 3d0     1 3d2+    1 3d0     1 3d2+    1 3d0     1 3d2+    1 3d0     1 3d2+    1 3d0
                                   1 3d2+    1 3d0     1 3d2+    1 3d0     1 3d2+    1 3d0     1 3d2+    1 3d0     1 3d2+    1 3d0
                                   1 3d2+    1 3d0     1 3d2+    1 3d0     1 3d2+    1 3d0     1 3d2+    1 3d0     1 3d2+    1 5g0
                                   1 5g4+    1 5g2+    1 5g0     1 5g4+    1 5g2+    1 5g0     1 5g4+    1 5g2+

   1.1  2.00000 -2296.563697     0.000000  0.000000  0.000000  0.000001  0.000005  0.000016  0.000053  0.000161  0.000458  0.001256
                                 0.003351  0.008704  0.021908  0.052491  0.115782  0.219936  0.319355  0.284405  0.109077  0.009616
                                 0.000759 -0.000407  0.000219 -0.000201  0.000160 -0.000177 -0.000523  0.000103  0.000041 -0.000003
                                 0.000002 -0.000001  0.000571 -0.000083  0.000000 -0.000000 -0.000000 -0.000000 -0.000000 -0.000000
                                -0.000000 -0.000000 -0.000000 -0.000000 -0.000000 -0.000000 -0.000000 -0.000000 -0.000000 -0.000000
                                -0.000000 -0.000000 -0.000000 -0.000000 -0.000000  0.000000  0.000000  0.000000  0.000000  0.000000
                                 0.000000  0.000000  0.000000  0.000000  0.000000  0.000000  0.000000 -0.000000 -0.000000  0.000000
                                 0.000000 -0.000000 -0.000000  0.000000  0.000000 -0.000000 -0.000000  0.000000  0.000000  0.000000
                                 0.000000  0.000000  0.000000  0.000000  0.000000  0.000000  0.000000  0.000000

   2.1  2.00000  -381.011348    -0.000000 -0.000000 -0.000000 -0.000000 -0.000002 -0.000005 -0.000018 -0.000053 -0.000152 -0.000417
                                -0.001117 -0.002918 -0.007441 -0.018311 -0.042703 -0.090539 -0.162073 -0.201252 -0.058517  0.339443
                                 0.552272  0.265356  0.030403  0.000953 -0.000258 -0.000128 -0.000240  0.000072  0.000033 -0.000002
                                 0.000001 -0.000001  0.000229 -0.000058  0.000000 -0.000000 -0.000000 -0.000000 -0.000000 -0.000000
                                -0.000000 -0.000000 -0.000000 -0.000000 -0.000000 -0.000000 -0.000000 -0.000000 -0.000000 -0.000000
                                -0.000000 -0.000000 -0.000000 -0.000000 -0.000000  0.000000  0.000000  0.000000  0.000000  0.000000
                                 0.000000  0.000000  0.000000  0.000000  0.000000  0.000000  0.000000 -0.000000 -0.000000  0.000000
                                 0.000000 -0.000000 -0.000000  0.000000  0.000000 -0.000000 -0.000000  0.000000  0.000000  0.000000
                                 0.000000  0.000000  0.000000  0.000000  0.000000  0.000000  0.000000  0.000000

   3.1  2.00000   -88.348055     0.000000  0.000000  0.000000  0.000000  0.000001  0.000003  0.000008  0.000025  0.000071  0.000196
                                 0.000525  0.001372  0.003510  0.008661  0.020402  0.043936  0.081566  0.107415  0.034695 -0.260032
                                -0.583793 -0.305258  0.619131  0.695201  0.137910  0.021080  0.047370 -0.010258 -0.004298  0.000287
                                -0.000172  0.000073 -0.049850  0.008477 -0.000020 -0.000000  0.000000 -0.000000  0.000000 -0.000000
                                 0.000000 -0.000000  0.000000 -0.000000  0.000000 -0.000000  0.000000 -0.000000  0.000000 -0.000000
                                 0.000000 -0.000000  0.000000 -0.000000  0.000000 -0.000000  0.000000 -0.000000  0.000000 -0.000000
                                 0.000000  0.000000 -0.000000 -0.000000  0.000000 -0.000000  0.000000  0.000000 -0.000000 -0.000000
                                 0.000000  0.000000 -0.000000 -0.000000  0.000000  0.000000 -0.000000 -0.000000  0.000000  0.000000
                                 0.000000  0.000000  0.000000  0.000000  0.000000  0.000000  0.000000  0.000000

   4.1  2.00000   -66.452418     0.000000  0.000000  0.000000  0.000000  0.000000  0.000000  0.000000  0.000000  0.000000  0.000000
                                 0.000000  0.000000  0.000000  0.000000  0.000000  0.000000  0.000000  0.000000  0.000000 -0.000000
                                -0.000000 -0.000000  0.000000  0.000000 -0.000000 -0.000000 -0.000000  0.000000  0.000000  0.000000
                                 0.000000  0.000000 -0.000000 -0.000000  0.000000  0.000003 -0.000000  0.000048 -0.000000  0.000446
                                -0.000000  0.002742 -0.000000  0.012395 -0.000000  0.041786 -0.000000  0.109749 -0.000001  0.219226
                                -0.000003  0.322334 -0.000004  0.311386 -0.000004  0.156490 -0.000002  0.034369 -0.000000  0.002397
                                -0.000000 -0.000457  0.000000  0.000216 -0.000000  0.000163 -0.000000 -0.000013  0.000000  0.000003
                                -0.000000 -0.000001  0.000000  0.001064 -0.000000 -0.000213  0.000000  0.000000 -0.000000  0.000000
                                 0.000000  0.000000  0.000000  0.000000  0.000000  0.000000  0.000000  0.000000

   5.1  2.00000   -66.452418    -0.000000 -0.000000 -0.000000 -0.000000 -0.000000 -0.000000 -0.000000 -0.000000 -0.000000 -0.000000
                                -0.000000 -0.000000 -0.000000 -0.000000 -0.000000 -0.000000 -0.000000 -0.000000 -0.000000  0.000000
[...]
                                   1 4f3-

   1.3  2.00000  -364.385549     0.000000  0.000000  0.000000  0.000000  0.000002  0.000013  0.000073  0.000353  0.001482  0.005506
                                 0.018063  0.051845  0.125762  0.242107  0.334156  0.275164  0.106688  0.013363  0.000563 -0.000182
                                 0.000030 -0.000219 -0.000117  0.000323  0.000008 -0.000001  0.000000 -0.000000  0.000241 -0.000297
                                 0.000000  0.000000  0.000000  0.000000  0.000000  0.000000  0.000000  0.000000  0.000000  0.000000
                                 0.000000  0.000000  0.000000  0.000000  0.000000  0.000000  0.000000  0.000000  0.000000  0.000000
                                 0.000000  0.000000  0.000000  0.000000  0.000000  0.000000  0.000000  0.000000  0.000000  0.000000
                                 0.000000

   2.3  2.00000   -80.637069    -0.000000 -0.000000 -0.000000 -0.000000 -0.000001 -0.000007 -0.000036 -0.000176 -0.000740 -0.002764
                                -0.009182 -0.026966 -0.068094 -0.138853 -0.203941 -0.134210  0.167169  0.491571  0.387052  0.099817
                                 0.011530 -0.006369 -0.004619  0.013923  0.000326 -0.000061  0.000023 -0.000009  0.008890 -0.012892
                                 0.000003  0.000000  0.000000  0.000000  0.000000  0.000000  0.000000  0.000000  0.000000  0.000000
                                 0.000000  0.000000  0.000000  0.000000  0.000000  0.000000  0.000000  0.000000  0.000000  0.000000
                                 0.000000  0.000000  0.000000  0.000000  0.000000  0.000000  0.000000  0.000000  0.000000  0.000000
                                 0.000000

   3.3  2.00000   -15.143527     0.000000  0.000000  0.000000  0.000000  0.000000  0.000003  0.000018  0.000084  0.000356  0.001327
                                 0.004431  0.013055  0.033350  0.068795  0.103217  0.061414 -0.127131 -0.390152 -0.274652  0.272296
                                 0.575984  0.377420  0.078437 -0.063218 -0.001209  0.000269 -0.000106  0.000038 -0.043783  0.060701
                                -0.000012  0.000000  0.000000  0.000000  0.000000  0.000000  0.000000  0.000000  0.000000  0.000000
                                 0.000000  0.000000  0.000000  0.000000  0.000000  0.000000  0.000000  0.000000  0.000000  0.000000
                                 0.000000  0.000000  0.000000  0.000000  0.000000  0.000000  0.000000  0.000000  0.000000  0.000000
                                 0.000000

   4.3  2.00000    -1.524013    -0.000000 -0.000000 -0.000000 -0.000000 -0.000000 -0.000000 -0.000000 -0.000000 -0.000000 -0.000000
                                -0.000000 -0.000000 -0.000000 -0.000000 -0.000000 -0.000000  0.000000  0.000000  0.000000 -0.000000
                                -0.000000 -0.000000  0.000000  0.000000  0.000000  0.000000 -0.000000  0.000000  0.000000 -0.000000
                                -0.000000  0.000221  0.000000  0.002230  0.000000  0.012784  0.000000  0.045618  0.000000  0.118611
                                 0.000000  0.227052  0.000000  0.303768  0.000000  0.307710  0.000000  0.224181  0.000000  0.105022
                                 0.000000  0.023173  0.000000  0.006131  0.000000  0.006216  0.000000  0.001249  0.000000  0.000686
                                 0.000000

   5.3  2.00000    -1.524013     0.000000  0.000000  0.000000  0.000000  0.000000  0.000000  0.000000  0.000000  0.000000  0.000000
                                 0.000000  0.000000  0.000000  0.000000  0.000000  0.000000 -0.000000 -0.000000 -0.000000  0.000000
                                 0.000000  0.000000 -0.000000 -0.000000 -0.000000 -0.000000  0.000000 -0.000000 -0.000000  0.000000
                                 0.000000 -0.000000  0.000221 -0.000000  0.002230 -0.000000  0.012784 -0.000000  0.045618 -0.000000
                                 0.118611 -0.000000  0.227052 -0.000000  0.303768 -0.000000  0.307710 -0.000000  0.224181 -0.000000
                                 0.105022 -0.000000  0.023173 -0.000000  0.006131 -0.000000  0.006216 -0.000000  0.001249 -0.000000
                                 0.000686

   6.3  2.00000    -1.421664    -0.000000 -0.000000 -0.000000 -0.000000 -0.000000 -0.000001 -0.000006 -0.000030 -0.000126 -0.000469
                                -0.001570 -0.004623 -0.011852 -0.024470 -0.036954 -0.021345  0.048659  0.153681  0.100614 -0.144610
                                -0.319609 -0.234027  0.214819  0.770783  0.390114  0.066968 -0.002650  0.002936  0.040703 -0.225535
                                -0.000574 -0.000000  0.000000 -0.000000  0.000000 -0.000000  0.000000 -0.000000  0.000000 -0.000000
                                 0.000000 -0.000000  0.000000 -0.000000  0.000000 -0.000000  0.000000 -0.000000  0.000000 -0.000000
                                 0.000000 -0.000000  0.000000 -0.000000  0.000000 -0.000000  0.000000 -0.000000  0.000000 -0.000000
                                 0.000000

                                   1 3d2-    1 3d2-    1 3d2-    1 3d2-    1 3d2-    1 3d2-    1 3d2-    1 3d2-    1 3d2-    1 3d2-
                                   1 3d2-    1 3d2-    1 3d2-    1 3d2-    1 3d2-    1 3d2-    1 3d2-    1 3d2-    1 3d2-    1 3d2-
                                   1 3d2-    1 3d2-    1 5g2-    1 5g4-    1 5g2-    1 5g4-    1 5g2-    1 5g4-

   1.4  2.00000   -66.452418     0.000003  0.000048  0.000446  0.002742  0.012395  0.041786  0.109749  0.219226  0.322334  0.311386
                                 0.156490  0.034369  0.002397 -0.000457  0.000216  0.000163 -0.000013  0.000003 -0.000001  0.001064
                                -0.000213  0.000000  0.000000  0.000000  0.000000  0.000000  0.000000  0.000000

   2.4  2.00000    -9.240359    -0.000002 -0.000024 -0.000219 -0.001349 -0.006160 -0.020943 -0.056236 -0.113319 -0.162574 -0.116562
                                 0.115336  0.371606  0.415046  0.210694  0.042947  0.005971 -0.000068  0.000055 -0.000014  0.006083
                                -0.005293  0.000005  0.000000  0.000000  0.000000  0.000000  0.000000  0.000000

   3.4  0.80000     0.156572     0.000000  0.000005  0.000050  0.000307  0.001404  0.004784  0.012877  0.026005  0.037140  0.024815
                                -0.036156 -0.101275 -0.110936 -0.001683  0.197269  0.358710  0.375265  0.242048  0.077330 -0.006102
                                 0.002935  0.006857  0.000000  0.000000  0.000000  0.000000  0.000000  0.000000

                                   1 2pz     1 2pz     1 2pz     1 2pz     1 2pz     1 2pz     1 2pz     1 2pz     1 2pz     1 2pz
                                   1 2pz     1 2pz     1 2pz     1 2pz     1 2pz     1 2pz     1 2pz     1 2pz     1 2pz     1 2pz
                                   1 2pz     1 2pz     1 2pz     1 2pz     1 2pz     1 2pz     1 2pz     1 2pz     1 2pz     1 2pz
                                   1 2pz     1 4f0     1 4f2+    1 4f0     1 4f2+    1 4f0     1 4f2+    1 4f0     1 4f2+    1 4f0
                                   1 4f2+    1 4f0     1 4f2+    1 4f0     1 4f2+    1 4f0     1 4f2+    1 4f0     1 4f2+    1 4f0
                                   1 4f2+    1 4f0     1 4f2+    1 4f0     1 4f2+    1 4f0     1 4f2+    1 4f0     1 4f2+    1 4f0
                                   1 4f2+

   1.5  2.00000  -364.385549     0.000000  0.000000  0.000000  0.000000  0.000002  0.000013  0.000073  0.000353  0.001482  0.005506
                                 0.018063  0.051845  0.125762  0.242107  0.334156  0.275164  0.106688  0.013363  0.000563 -0.000182
                                 0.000030 -0.000219 -0.000117  0.000323  0.000008 -0.000001  0.000000 -0.000000  0.000241 -0.000297
                                 0.000000 -0.000000  0.000000 -0.000000  0.000000 -0.000000  0.000000 -0.000000  0.000000 -0.000000
                                 0.000000 -0.000000  0.000000 -0.000000  0.000000 -0.000000  0.000000 -0.000000  0.000000 -0.000000
                                 0.000000 -0.000000  0.000000 -0.000000  0.000000 -0.000000  0.000000 -0.000000  0.000000 -0.000000
                                 0.000000

   2.5  2.00000   -80.637069    -0.000000 -0.000000 -0.000000 -0.000000 -0.000001 -0.000007 -0.000036 -0.000176 -0.000740 -0.002764
                                -0.009182 -0.026966 -0.068094 -0.138853 -0.203941 -0.134210  0.167169  0.491571  0.387052  0.099817
                                 0.011530 -0.006369 -0.004619  0.013923  0.000326 -0.000061  0.000023 -0.000009  0.008890 -0.012892
                                 0.000003  0.000000  0.000000  0.000000  0.000000  0.000000  0.000000  0.000000  0.000000  0.000000
                                 0.000000  0.000000  0.000000  0.000000  0.000000  0.000000  0.000000  0.000000  0.000000  0.000000
                                 0.000000  0.000000  0.000000  0.000000  0.000000  0.000000  0.000000  0.000000  0.000000  0.000000
                                 0.000000

   3.5  2.00000   -15.143527     0.000000  0.000000  0.000000  0.000000  0.000000  0.000003  0.000018  0.000084  0.000356  0.001327
                                 0.004431  0.013055  0.033350  0.068795  0.103217  0.061414 -0.127131 -0.390152 -0.274652  0.272296
                                 0.575984  0.377420  0.078437 -0.063218 -0.001209  0.000269 -0.000106  0.000038 -0.043783  0.060701
                                -0.000012 -0.000000  0.000000 -0.000000  0.000000 -0.000000  0.000000 -0.000000  0.000000 -0.000000
                                 0.000000 -0.000000  0.000000 -0.000000  0.000000 -0.000000  0.000000 -0.000000  0.000000 -0.000000
                                 0.000000 -0.000000  0.000000 -0.000000  0.000000 -0.000000  0.000000 -0.000000  0.000000 -0.000000
                                 0.000000

   4.5  2.00000    -1.524013     0.000000  0.000000  0.000000  0.000000  0.000000  0.000000  0.000000  0.000000  0.000000  0.000000
                                 0.000000  0.000000  0.000000  0.000000  0.000000  0.000000 -0.000000 -0.000000 -0.000000  0.000000
                                 0.000000  0.000000 -0.000000 -0.000000 -0.000000 -0.000000  0.000000 -0.000000 -0.000000  0.000000
                                 0.000000  0.000221 -0.000000  0.002230 -0.000000  0.012784 -0.000000  0.045618 -0.000000  0.118611
                                -0.000000  0.227052 -0.000000  0.303768 -0.000000  0.307710 -0.000000  0.224181 -0.000000  0.105022
                                -0.000000  0.023173 -0.000000  0.006131 -0.000000  0.006216 -0.000000  0.001249 -0.000000  0.000686
                                -0.000000

   5.5  2.00000    -1.524013     0.000000  0.000000  0.000000  0.000000  0.000000  0.000000  0.000000  0.000000  0.000000  0.000000
                                 0.000000  0.000000  0.000000  0.000000  0.000000  0.000000 -0.000000 -0.000000 -0.000000  0.000000
                                 0.000000  0.000000 -0.000000 -0.000000 -0.000000 -0.000000  0.000000 -0.000000 -0.000000  0.000000
                                 0.000000  0.000000  0.000221  0.000000  0.002230  0.000000  0.012784  0.000000  0.045618  0.000000
                                 0.118611  0.000000  0.227052  0.000000  0.303768  0.000000  0.307710  0.000000  0.224181  0.000000
                                 0.105022  0.000000  0.023173  0.000000  0.006131  0.000000  0.006216  0.000000  0.001249  0.000000
                                 0.000686

   6.5  2.00000    -1.421664    -0.000000 -0.000000 -0.000000 -0.000000 -0.000000 -0.000001 -0.000006 -0.000030 -0.000126 -0.000469
                                -0.001570 -0.004623 -0.011852 -0.024470 -0.036954 -0.021345  0.048659  0.153681  0.100614 -0.144610
                                -0.319609 -0.234027  0.214819  0.770783  0.390114  0.066968 -0.002650  0.002936  0.040703 -0.225535
                                -0.000574  0.000000  0.000000  0.000000  0.000000  0.000000  0.000000  0.000000  0.000000  0.000000
                                 0.000000  0.000000  0.000000  0.000000  0.000000  0.000000  0.000000  0.000000  0.000000  0.000000
                                 0.000000  0.000000  0.000000  0.000000  0.000000  0.000000  0.000000  0.000000  0.000000  0.000000
                                 0.000000

                                   1 3d1+    1 3d1+    1 3d1+    1 3d1+    1 3d1+    1 3d1+    1 3d1+    1 3d1+    1 3d1+    1 3d1+
                                   1 3d1+    1 3d1+    1 3d1+    1 3d1+    1 3d1+    1 3d1+    1 3d1+    1 3d1+    1 3d1+    1 3d1+
                                   1 3d1+    1 3d1+    1 5g1+    1 5g3+    1 5g1+    1 5g3+    1 5g1+    1 5g3+

   1.6  2.00000   -66.452418     0.000003  0.000048  0.000446  0.002742  0.012395  0.041786  0.109749  0.219226  0.322334  0.311386
                                 0.156490  0.034369  0.002397 -0.000457  0.000216  0.000163 -0.000013  0.000003 -0.000001  0.001064
                                -0.000213  0.000000  0.000000  0.000000  0.000000  0.000000  0.000000  0.000000

   2.6  2.00000    -9.240359    -0.000002 -0.000024 -0.000219 -0.001349 -0.006160 -0.020943 -0.056236 -0.113319 -0.162574 -0.116562
                                 0.115336  0.371606  0.415046  0.210694  0.042947  0.005971 -0.000068  0.000055 -0.000014  0.006083
                                -0.005293  0.000005  0.000000  0.000000  0.000000  0.000000  0.000000  0.000000

   3.6  0.80000     0.156572     0.000000  0.000005  0.000050  0.000307  0.001404  0.004784  0.012877  0.026005  0.037140  0.024815
                                -0.036156 -0.101275 -0.110936 -0.001683  0.197269  0.358710  0.375265  0.242048  0.077330 -0.006102
                                 0.002935  0.006857  0.000000  0.000000  0.000000  0.000000  0.000000  0.000000

                                   1 3d1-    1 3d1-    1 3d1-    1 3d1-    1 3d1-    1 3d1-    1 3d1-    1 3d1-    1 3d1-    1 3d1-
                                   1 3d1-    1 3d1-    1 3d1-    1 3d1-    1 3d1-    1 3d1-    1 3d1-    1 3d1-    1 3d1-    1 3d1-
                                   1 3d1-    1 3d1-    1 5g1-    1 5g3-    1 5g1-    1 5g3-    1 5g1-    1 5g3-

   1.7  2.00000   -66.452418     0.000003  0.000048  0.000446  0.002742  0.012395  0.041786  0.109749  0.219226  0.322334  0.311386
                                 0.156490  0.034369  0.002397 -0.000457  0.000216  0.000163 -0.000013  0.000003 -0.000001  0.001064
                                -0.000213  0.000000  0.000000  0.000000  0.000000  0.000000  0.000000  0.000000

   2.7  2.00000    -9.240359    -0.000002 -0.000024 -0.000219 -0.001349 -0.006160 -0.020943 -0.056236 -0.113319 -0.162574 -0.116562
                                 0.115336  0.371606  0.415046  0.210694  0.042947  0.005971 -0.000068  0.000055 -0.000014  0.006083
                                -0.005293  0.000005  0.000000  0.000000  0.000000  0.000000  0.000000  0.000000

   3.7  0.80000     0.156572     0.000000  0.000005  0.000050  0.000307  0.001404  0.004784  0.012877  0.026005  0.037140  0.024815
                                -0.036156 -0.101275 -0.110936 -0.001683  0.197269  0.358710  0.375265  0.242048  0.077330 -0.006102
                                 0.002935  0.006857  0.000000  0.000000  0.000000  0.000000  0.000000  0.000000

                                   1 4f2-    1 4f2-    1 4f2-    1 4f2-    1 4f2-    1 4f2-    1 4f2-    1 4f2-    1 4f2-    1 4f2-
                                   1 4f2-    1 4f2-    1 4f2-    1 4f2-    1 4f2-

   1.8  2.00000    -1.524013     0.000221  0.002230  0.012784  0.045618  0.118611  0.227052  0.303768  0.307710  0.224181  0.105022
                                 0.023173  0.006131  0.006216  0.001249  0.000686

 Total charge:  -1.000000000000

 *** IN SYMMETRY 1 ORBITAL  4 SYMMETRY CONTAMINATION OF 0.116D-04 HAS BEEN REMOVED
 *** IN SYMMETRY 1 ORBITAL  5 SYMMETRY CONTAMINATION OF 0.116D-04 HAS BEEN REMOVED

 EXTRA SYMMETRY OF MOS IN SYMMETRY 1:   1 1 1 2 3 1 2 3 1 1   2 3 1 3 2 1 3 2 3 2   1 4 6 5 3 2 1 4 6 5   3 2 1 2 3 4 6 5 1 2
                                        3 1 2 3 2 3 1 2 3 1   2 3 1 2 3 1 2 3 2 3   1 2 3 1 2 3 1 2 3 1   1 3 2 1 2 3 1 1 1 1
                                        1 1 1 1 1 1 1 1
 EXTRA SYMMETRY OF MOS IN SYMMETRY 2:   1 1 1 2 3 1 1 1 1 2   3 1 2 3 1 3 2 2 3 1   2 3 1 2 3 1 2 3 1 2   3 2 3 1 2 3 1 2 3 1
                                        2 3 1 1 2 3 1 2 3 1   1 1 1 1 1 1 1 1 1 1   1
 EXTRA SYMMETRY OF MOS IN SYMMETRY 4:   1 1 1 1 1 1 3 2 1 2   3 1 1 2 3 1 1 1 1 1   1 1 1 1 1 1 1 1
 EXTRA SYMMETRY OF MOS IN SYMMETRY 5:   1 1 1 2 3 1 1 1 1 2   3 1 3 2 1 3 2 3 2 1   2 3 1 2 3 1 2 3 1 2   3 2 3 1 2 3 1 2 3 1
                                        2 3 1 1 2 3 1 2 3 1   1 1 1 1 1 1 1 1 1 1   1
 EXTRA SYMMETRY OF MOS IN SYMMETRY 6:   1 1 1 1 1 1 3 2 1 2   3 1 1 2 3 1 1 1 1 1   1 1 1 1 1 1 1 1
 EXTRA SYMMETRY OF MOS IN SYMMETRY 7:   1 1 1 1 1 1 3 2 1 2   3 1 1 2 3 1 1 1 1 1   1 1 1 1 1 1 1 1

 Natural orbital dump (state averaged) at molpro section  5202.2    (Orbital set 2)


 CI vector for state symmetry 1
 ==============================

 0a a a a         -0.0000185   1.0000000
 a0 a a a          1.0000000   0.0000185

 TOTAL ENERGIES                    -14799.83859883-14799.83859883

 CI vector for state symmetry 2
 ==============================

 aa 0 a a          1.0000000

 TOTAL ENERGIES                    -14799.83859883

 CI vector for state symmetry 3
 ==============================

 aa a 0 a          1.0000000

 TOTAL ENERGIES                    -14799.83859883

 CI vector for state symmetry 4
 ==============================

 aa a a 0          1.0000000

 TOTAL ENERGIES                    -14799.83859883



 **********************************************************************************************************************************
 DATASETS  * FILE   NREC   LENGTH (MB)   RECORD NAMES
              1      19      195.85       500      610      700      900      950      970     1000      129      960     1100
                                          VAR    BASINP    GEOM    SYMINP    ZMAT    AOBASIS   BASIS     P2S    ABASIS      S
                                         1400     1410     1200     1210     1080     1600     1650     1700     1380
                                           T        V       H0       H01     AOSYM     SMH    MOLCAS    OPER     JKOP

              2       6        9.28       200      700     1000      520     4202     5202
                                        OPTIONS   GEOM     BASIS   MCVARS     RHF     MCSCF

 PROGRAMS   *        TOTAL     MULTI       POP       RHF       INT
 CPU TIMES  *       142.33     30.85      0.01      2.50    108.38
 REAL TIME  *       151.34 SEC
 DISK USED  *         5.00 GB
 SF USED    *       681.04 MB
 GA USED    *         0.00 MB       (max)       0.00 MB       (current)
 **********************************************************************************************************************************
   -->
   <time start="20:19:42" end="20:20:17" cpu="30.85" system="2.01" real="35.2"/>
   <storage units="megabyte" memory="8001.84" sf="681.04" df="331.05" eaf="4668.79"
     ga="0.0"/>
  </jobstep><!--
  --><jobstep command="RHF-SCF" commandset="SCFPRO">
   <!--


 PROGRAM * RHF-SCF (OPEN SHELL)       Authors: W. Meyer, H.-J. Werner


 NUMBER OF ELECTRONS:      40+   34-    SPACE SYMMETRY=1    SPIN SYMMETRY: Septet
 CONVERGENCE THRESHOLDS:    1.00E-05 (Density)    1.48E-07 (Energy)
 MAX. NUMBER OF ITERATIONS:        0
 INTERPOLATION TYPE:            DIIS
 INTERPOLATION STEPS:              2 (START)      1 (STEP)
 LEVEL SHIFTS:                 -0.60 (CLOSED) -0.30 (OPEN)


 TOO MANY CLOSED SHELL ORBITALS! NOC=40  NCL=35  MS2= 6
   --><error/><!--
  --></jobstep><!--
  -->
  <input>
  <!--
 --></job><!--
--></molpro>
