<?xml version="1.0"?>
<molpro xmlns="http://www.molpro.net/schema/molpro-output"
  xmlns:xsd="http://www.w3.org/1999/XMLSchema"
  xmlns:cml="http://www.xml-cml.org/schema"
  xmlns:stm="http://www.xml-cml.org/schema"
  xmlns:xhtml="http://www.w3.org/1999/xhtml">
 <!--

 Nodes     nprocs
 nid00049    11
 Number of processes for MPI-2 version of Molpro:   nprocs(total)=   12   nprocs(compute)=   11   nprocs(helper)=    1

 Using customized tuning parameters: mindgm=7; mindgv=16; mindgc=1; mindgr=1; noblas=0; minvec=7
 default implementation of scratch files=sf

 --><job>
  <!--

 Variables initialized (889), CPU time= 0.02 sec
 Commands  initialized (702), CPU time= 0.01 sec, 572 directives.
 Default parameters read. Elapsed time= 0.15 sec

 Checking input...
 Passed
1


                                         ***  PROGRAM SYSTEM MOLPRO  ***
                                       Copyright, TTI GmbH Stuttgart, 2015
                                    Version 2015.1 linked Dec 29 2018 15:55:43


 **********************************************************************************************************************************
 LABEL *   Calculation for GdH3 atom, singlet and triplet
  64 bit mpp version                                                                     DATE: 23-Nov-22          TIME: 19:03:32
 **********************************************************************************************************************************

 SHA1:             19cd028119e0e09f93f0674bd8af7968d9b3eff6
 **********************************************************************************************************************************
  -->
  <!--

 THRESHOLDS:

 ZERO    =  1.00D-12  ONEINT  =  1.00D-12  TWOINT  =  1.00D-15  PREFAC  =  1.00D-14  LOCALI  =  1.00D-09  EORDER  =  1.00D-04
 ENERGY  =  0.00D+00  ETEST   =  0.00D+00  EDENS   =  0.00D+00  THRDEDEF=  1.00D-06  GRADIENT=  1.00D-02  STEP    =  1.00D-03
 ORBITAL =  1.00D-05  CIVEC   =  1.00D-05  COEFF   =  1.00D-04  PRINTCI =  5.00D-02  PUNCHCI =  9.90D+01  OPTGRAD =  3.00D-04
 OPTENERG=  1.00D-06  OPTSTEP =  3.00D-04  THRGRAD =  1.00D-10  COMPRESS=  1.00D-11  VARMIN  =  1.00D-07  VARMAX  =  1.00D-03
 THRDOUB =  0.00D+00  THRDIV  =  1.00D-05  THRRED  =  1.00D-07  THRPSP  =  1.00D+00  THRDC   =  1.00D-10  THRCS   =  1.00D-10
 THRNRM  =  1.00D-08  THREQ   =  0.00D+00  THRDE   =  1.00D+00  THRREF  =  1.00D-05  SPARFAC =  1.00D+00  THRDLP  =  1.00D-07
 THRDIA  =  1.00D-10  THRDLS  =  1.00D-07  THRGPS  =  0.00D+00  THRKEX  =  0.00D+00  THRDIS  =  2.00D-01  THRVAR  =  1.00D-10
 THRLOC  =  1.00D-06  THRGAP  =  1.00D-06  THRLOCT = -1.00D+00  THRGAPT = -1.00D+00  THRORB  =  1.00D-06  THRMLTP =  0.00D+00
 THRCPQCI=  1.00D-10  KEXTA   =  0.00D+00  THRCOARS=  0.00D+00  SYMTOL  =  1.00D-06  GRADTOL =  1.00D-06  THROVL  =  1.00D-08
 THRORTH =  1.00D-08  GRID    =  1.00D-06  GRIDMAX =  1.00D-03  DTMAX   =  0.00D+00  THROCCDE=  1.00D-01  THROCCDE=  1.00D-01



 THRESHOLDS:

 ZERO    =  1.00D-12  ONEINT  =  1.00D-12  TWOINT  =  1.00D-15  PREFAC  =  1.00D-14  LOCALI  =  1.00D-09  EORDER  =  1.00D-04
 ENERGY  =  0.00D+00  ETEST   =  0.00D+00  EDENS   =  0.00D+00  THRDEDEF=  1.00D-06  GRADIENT=  1.00D-02  STEP    =  1.00D-03
 ORBITAL =  1.00D-05  CIVEC   =  1.00D-05  COEFF   =  1.00D-04  PRINTCI =  5.00D-02  PUNCHCI =  9.90D+01  OPTGRAD =  3.00D-04
 OPTENERG=  1.00D-06  OPTSTEP =  3.00D-04  THRGRAD =  1.00D-10  COMPRESS=  1.00D-11  VARMIN  =  1.00D-07  VARMAX  =  1.00D-03
 THRDOUB =  0.00D+00  THRDIV  =  1.00D-05  THRRED  =  1.00D-07  THRPSP  =  1.00D+00  THRDC   =  1.00D-10  THRCS   =  1.00D-10
 THRNRM  =  1.00D-08  THREQ   =  0.00D+00  THRDE   =  1.00D+00  THRREF  =  1.00D-05  SPARFAC =  1.00D+00  THRDLP  =  1.00D-07
 THRDIA  =  1.00D-10  THRDLS  =  1.00D-07  THRGPS  =  0.00D+00  THRKEX  =  0.00D+00  THRDIS  =  2.00D-01  THRVAR  =  1.00D-10
 THRLOC  =  1.00D-06  THRGAP  =  1.00D-06  THRLOCT = -1.00D+00  THRGAPT = -1.00D+00  THRORB  =  1.00D-06  THRMLTP =  0.00D+00
 THRCPQCI=  1.00D-10  KEXTA   =  0.00D+00  THRCOARS=  0.00D+00  SYMTOL  =  1.00D-06  GRADTOL =  1.00D-06  THROVL  =  1.00D-15
 THRORTH =  1.00D-08  GRID    =  1.00D-06  GRIDMAX =  1.00D-03  DTMAX   =  0.00D+00  THROCCDE=  1.00D-01  THROCCDE=  1.00D-01



 Variable memory set to 1000000000 words,  buffer space   230000 words

 SETTING BASIS          =    USERDEF
 SETTING GD_CCSD        =      -109.29937150
 SETTING H_CCSD         =        -0.49982987
 SETTING NE             =        21.00000000
 SETTING SYMM           =         4.00000000
 SETTING SS             =         7.00000000
 SETTING A1             =         7.00000000
 SETTING B1             =         3.00000000
 SETTING B2             =         3.00000000
 SETTING A2             =         1.00000000
 ZUNIT=ANG

  --><jobstep command="RKS-SCF" commandset="SCFPRO">
   <!--


 Recomputing integrals since basis changed


 Using spherical harmonics



 PROGRAM * SEWARD (Integral evaluation for generally contracted gaussian basis sets)     Author: Roland Lindh, 1990

 Geometry written to block  1 of record 700

 Orientation using atomic masses
 Molecule type: Symmetric top,     Order of principal axis = 3
 Symmetry elements: Y,Z
 Rotational constants:     197.7900977    197.7900977     98.8950489 GHz  (calculated with average atomic masses)

 Point group  C2v


   --><cml:molecule>
    <cml:symmetry pointGroup="C2v"/>
    <cml:atomArray>
     <cml:atom id="a1" elementType="Gd" x3="-0.275392839220456E-17" y3="0.0" z3="0.0"/>
     <cml:atom id="a2" elementType="H" x3="1.3" y3="0.0" z3="0.0"/>
     <cml:atom id="a3" elementType="H" x3="-0.65" y3="-1.12583302491977" z3="0.0"/>
     <cml:atom id="a4" elementType="H" x3="-0.65" y3="1.12583302491977" z3="0.0"/>
    </cml:atomArray>
    <cml:bondArray>
     <cml:bond atomRefs2="a1 a2"/>
     <cml:bond atomRefs2="a1 a3"/>
     <cml:bond atomRefs2="a1 a4"/>
    </cml:bondArray>
   </cml:molecule><!--

 ATOMIC COORDINATES

 NR  ATOM    CHARGE       X              Y              Z

   1  GD     18.00   -0.000000000    0.000000000    0.000000000
   2  H1      1.00    2.456643962    0.000000000    0.000000000
   3  H2      1.00   -1.228321981   -2.127516079    0.000000000
   4  H3      1.00   -1.228321981    2.127516079    0.000000000

 Bond lengths in Bohr (Angstrom)

 1-2  2.456643962  1-3  2.456643962  1-4  2.456643962
     ( 1.300000000)     ( 1.300000000)     ( 1.300000000)

 Bond angles

  2-1-3  120.00000000   2-1-4  120.00000000   3-1-4  120.00000000

 NUCLEAR CHARGE:                   21
 NUMBER OF PRIMITIVE AOS:         673
 NUMBER OF SYMMETRY AOS:          519
 NUMBER OF CONTRACTIONS:          519   ( 201A1  + 130B1  + 119B2  +  69A2  )
 NUMBER OF CORE ORBITALS:           0   (   0A1  +   0B1  +   0B2  +   0A2  )
 NUMBER OF VALENCE ORBITALS:       20   (   9A1  +   5B1  +   4B2  +   2A2  )


 NUCLEAR REPULSION ENERGY   22.68625477


 Eigenvalues of metric

         1 0.110E-06 0.265E-06 0.401E-06 0.570E-06 0.707E-06 0.709E-06 0.728E-06 0.744E-06
         2 0.570E-06 0.709E-06 0.744E-06 0.214E-05 0.406E-05 0.108E-04 0.229E-04 0.354E-04
         3 0.614E-06 0.724E-06 0.436E-05 0.136E-04 0.236E-04 0.439E-04 0.827E-04 0.142E-03
         4 0.724E-06 0.236E-04 0.142E-03 0.472E-03 0.607E-03 0.799E-03 0.843E-03 0.409E-02


 Contracted 2-electron integrals neglected if value below      1.0D-15
 AO integral compression algorithm  1   Integral accuracy      1.0D-15

     11326.980 MB (compressed) written to integral file ( 59.4%)

     Node minimum: 552.600 MB, node maximum: 1287.127 MB


 NUMBER OF SORTED TWO-ELECTRON INTEGRALS:  209955357.     BUFFER LENGTH:  32768
 NUMBER OF SEGMENTS:   7  SEGMENT LENGTH:   31983120      RECORD LENGTH: 524288

 Memory used in sort:      32.54 MW

 SORT1 READ  2385076976. AND WROTE   126931439. INTEGRALS IN    367 RECORDS. CPU TIME:    52.28 SEC, REAL TIME:    74.43 SEC
 SORT2 READ  1390079482. AND WROTE  2310732286. INTEGRALS IN  41437 RECORDS. CPU TIME:     5.94 SEC, REAL TIME:    24.48 SEC

 Node minimum:   209948383.  Node maximum:   210299431. integrals

 OPERATOR DM      FOR CENTER  0  COORDINATES:    0.000000    0.000000    0.000000


 **********************************************************************************************************************************
 DATASETS  * FILE   NREC   LENGTH (MB)   RECORD NAMES
              1      19       23.13       500      610      700      900      950      970     1000      129      960     1100
                                          VAR    BASINP    GEOM    SYMINP    ZMAT    AOBASIS   BASIS     P2S    ABASIS      S
                                         1400     1410     1420     1200     1210     1080     1600     1650     1700
                                           T        V       ECP      H0       H01     AOSYM     SMH    MOLCAS    OPER

 PROGRAMS   *        TOTAL       INT
 CPU TIMES  *       203.43    203.13
 REAL TIME  *       246.70 SEC
 DISK USED  *        28.14 GB
 GA USED    *         0.00 MB       (max)       0.00 MB       (current)
 **********************************************************************************************************************************

 Density functional group PBE0=PBEX+PBEC
 Functional: PBEX(Automatically generated (new) PBEX)                          Gradient terms: 1
 Functional: PBEC(Automatically generated (new) PBEC)                          Gradient terms: 1
 Use grid at  1800.2


 Exact exchange will be calculated, factor:  0.2500

 Functional: PBEX                      Factor:  0.7500
 Functional: PBEC                      Factor:  1.0000

 Generated new metagrid on record  1800.2 with target accuracy 1.0D-06 and 6667 points in CPU time    0.1
 Computed new grid on record 1800.1 in CPU time    0.1
  414270 words reserved for DFT integration

 PROGRAM * RKS-SCF (Restricted open shell Kohn-Sham)     Authors: W. Meyer, H.-J. Werner, P.J. Knowles, 1993

 NUMBER OF ELECTRONS:      14+    7-    SPACE SYMMETRY=4    SPIN SYMMETRY: Octet
 CONVERGENCE THRESHOLDS:    1.00E-05 (Density)    1.00E-06 (Energy)
 MAX. NUMBER OF ITERATIONS:      200
 INTERPOLATION TYPE:            DIIS
 INTERPOLATION STEPS:              2 (START)      1 (STEP)
 LEVEL SHIFTS:                 -2.00 (CLOSED) -1.00 (OPEN)

 Number of closed-shell orbitals:    7 (   5   1   1   0 )
 Number of open-shell orbitals:      7 (   2   2   2   1 )


 Use fine grid record 1800.2 for energy threshold  1.0D-06

 Molecular orbital dump at record        2202.2

 ITERATION    DDIFF          GRAD             ENERGY        2-EL.EN.            DIPOLE MOMENTS         DIIS   ORB.
    1      0.000D+00      0.000D+00       -72.49520784    428.156853   -0.02132    0.00000    0.00000    0    start
    2      0.000D+00      0.184D+00       -34.57441395     28.466817    0.78875    0.00000    0.00000    0    diag,B
    3      0.162D+02      0.784D-01       -80.33110396    408.498635    0.26884    0.00000    0.00000    1    diag,B
    4      0.162D+02      0.165D+00       -91.06884844    379.126668    0.15618    0.00000    0.00000    2    diag,B
    5      0.127D+00      0.122D+00       -99.84349380    346.413305   -0.00192    0.00000    0.00000    3    diag,B
    6      0.166D+00      0.829D-01      -106.68091702    308.285778   -0.08913    0.00000    0.00000    4    diag,B
    7      0.260D+00      0.458D-01      -109.00394564    289.746324   -0.25541    0.00000    0.00000    5    diag,B
    8      0.118D+00      0.307D-01      -110.55571403    270.593659   -0.38190    0.00000    0.00000    6    diag,B
    9      0.721D-01      0.156D-01      -111.36510596    254.569191   -0.48366    0.00000    0.00000    7    diag,B
   10      0.828D-01      0.470D-02      -111.56032609    251.147348   -0.50387    0.00000    0.00000    8    orth
   11      0.546D-01      0.298D-02      -111.62899145    249.855612   -0.54772    0.00000    0.00000    9    diag,B
   12      0.440D-01      0.196D-02      -111.66070086    248.893742   -0.55214    0.00000    0.00000    9    diag,B
   13      0.326D-01      0.160D-02      -111.68008456    248.575873   -0.55195    0.00000    0.00000    9    diag,B
   14      0.250D-01      0.111D-02      -111.69530325    248.562273   -0.51646    0.00000    0.00000    9    diag,B
   15      0.355D-01      0.483D-03      -111.69733196    248.330091   -0.51520    0.00000    0.00000    9    diag,B
   16      0.133D-01      0.371D-03      -111.69986373    248.177655   -0.50090    0.00000    0.00000    9    diag,B
   17      0.103D-01      0.338D-03      -111.70199573    248.115280   -0.49186    0.00000    0.00000    9    diag,B
   18      0.705D-02      0.337D-03      -111.70208411    248.115751   -0.49155    0.00000    0.00000    9    diag,B
   19      0.389D-03      0.338D-03      -111.69870487    248.168212   -0.49633    0.00000    0.00000    9    diag,B
   20      0.139D-01      0.313D-03      -111.69481541    248.201901   -0.50183    0.00000    0.00000    9    orth
   21      0.199D-01      0.262D-03      -111.69364405    248.205847   -0.49590    0.00000    0.00000    9    diag,B
   22      0.119D-01      0.187D-03      -111.69311785    248.133047   -0.48848    0.00000    0.00000    9    diag,B
   23      0.130D-01      0.132D-03      -111.69342166    248.131215   -0.47577    0.00000    0.00000    9    diag,B
   24      0.575D-02      0.951D-04      -111.69355623    248.129785   -0.46912    0.00000    0.00000    9    diag,B
   25      0.461D-02      0.724D-04      -111.69370907    248.131969   -0.45929    0.00000    0.00000    9    diag,B
   26      0.658D-02      0.488D-04      -111.69380381    248.140875   -0.44931    0.00000    0.00000    9    diag,B
   27      0.443D-02      0.335D-04      -111.69384572    248.145369   -0.44175    0.00000    0.00000    9    diag,B
   28      0.208D-02      0.246D-04      -111.69386727    248.147689   -0.43479    0.00000    0.00000    9    diag,B
   29      0.312D-02      0.176D-04      -111.69387813    248.150415   -0.42977    0.00000    0.00000    9    diag,B
   30      0.209D-02      0.147D-04      -111.69388766    248.154441   -0.42393    0.00000    0.00000    9    orth
   31      0.148D-02      0.119D-04      -111.69389466    248.156312   -0.41845    0.00000    0.00000    9    diag,B
   32      0.824D-03      0.102D-04      -111.69389852    248.158471   -0.41585    0.00000    0.00000    9    diag,B
   33      0.679D-03      0.926D-05      -111.69390459    248.158116   -0.41044    0.00000    0.00000    9    diag,B
   34      0.788D-03      0.827D-05      -111.69390996    248.158663   -0.40624    0.00000    0.00000    9    diag,B
   35      0.835D-03      0.720D-05      -111.69391587    248.157925   -0.40119    0.00000    0.00000    9    diag,B
   36      0.933D-03      0.640D-05      -111.69391956    248.157291   -0.39857    0.00000    0.00000    9    diag,B
   37      0.315D-03      0.598D-05      -111.69392140    248.156378   -0.39748    0.00000    0.00000    9    diag,B
   38      0.268D-03      0.591D-05      -111.69392260    248.155676   -0.39700    0.00000    0.00000    9    diag,B
   39      0.295D-03      0.594D-05      -111.69392199    248.156011   -0.39693    0.00000    0.00000    9    diag,B
   40      0.173D-03      0.590D-05      -111.69392193    248.156168   -0.39705    0.00000    0.00000    9    orth
   41      0.215D-04      0.589D-05      -111.69392209    248.156051   -0.39671    0.00000    0.00000    9    diag,B
   42      0.963D-04      0.590D-05      -111.69392182    248.156173   -0.39715    0.00000    0.00000    9    diag,B
   43      0.892D-04      0.590D-05      -111.69392221    248.156107   -0.39653    0.00000    0.00000    9    diag,B
   44      0.110D-03      0.586D-05      -111.69392393    248.155374   -0.39503    0.00000    0.00000    9    diag,B
   45      0.339D-03      0.565D-05      -111.69392788    248.152469   -0.39293    0.00000    0.00000    9    diag,B
   46      0.534D-03      0.495D-05      -111.69393276    248.146269   -0.39172    0.00000    0.00000    9    diag,B
   47      0.144D-02      0.381D-05      -111.69393524    248.141983   -0.39163    0.00000    0.00000    9    diag,B
   48      0.692D-03      0.335D-05      -111.69393704    248.139676   -0.39183    0.00000    0.00000    9    diag,B
   49      0.488D-03      0.276D-05      -111.69393799    248.137217   -0.39143    0.00000    0.00000    9    diag,B
   50      0.305D-03      0.246D-05      -111.69393918    248.136411   -0.39219    0.00000    0.00000    9    orth
   51      0.949D-03      0.210D-05      -111.69393949    248.136552   -0.39239    0.00000    0.00000    9    diag,B
   52      0.250D-03      0.176D-05      -111.69393992    248.135010   -0.39272    0.00000    0.00000    9    diag,B
   53      0.290D-03      0.141D-05      -111.69394022    248.135245   -0.39377    0.00000    0.00000    9    diag,B
   54      0.338D-03      0.113D-05      -111.69394047    248.134714   -0.39431    0.00000    0.00000    9    diag,B
   55      0.375D-03      0.778D-06      -111.69394062    248.133278   -0.39458    0.00000    0.00000    9    diag,B
   56      0.183D-03      0.591D-06      -111.69394065    248.133162   -0.39480    0.00000    0.00000    9    diag,B
   57      0.651D-04      0.467D-06      -111.69394067    248.132839   -0.39473    0.00000    0.00000    9    diag,B
   58      0.123D-03      0.303D-06      -111.69394067    248.133194   -0.39464    0.00000    0.00000    9    diag,B
   59      0.992D-04      0.267D-06      -111.69394068    248.132938   -0.39453    0.00000    0.00000    9    fixocc
   60      0.484D-04      0.176D-06      -111.69394068    248.132958   -0.39454    0.00000    0.00000    9    orth
   61      0.180D-04      0.157D-06      -111.69394068    248.132818   -0.39448    0.00000    0.00000    9    diag,B
   62      0.338D-04      0.138D-06      -111.69394068    248.132744   -0.39443    0.00000    0.00000    9    diag,B
   63      0.184D-04      0.126D-06      -111.69394068    248.132664   -0.39438    0.00000    0.00000    9    diag,B
   64      0.113D-04      0.117D-06      -111.69394068    248.132589   -0.39436    0.00000    0.00000    9    diag,B
   65      0.778D-05      0.109D-06      -111.69394068    248.132585   -0.39436    0.00000    0.00000    0    orth

 Final alpha occupancy:   7   3   3   1
 Final beta  occupancy:   5   1   1   0

 !RKS STATE 1.4 Energy               -111.693940683183
   --><property name="Energy" method="RKS" principal="true" stateSymmetry="4" stateNumber="1"
     value="-111.693940683183"/><!--
 Nuclear energy                        22.68625477
 One-electron energy                 -247.78601710
 Two-electron energy                  124.06629263
 Density functional                   -10.66047099     PBEX=-13.21400853 PBEC= -0.74996459
 Virial quotient                       -0.74634071
 !RKS STATE 1.4 Dipole moment          -0.39435575     0.00000000     0.00000000
 Dipole moment /Debye                  -1.00228668     0.00000000     0.00000000
   --><property name="Dipole moment" method="RKS" principal="true" stateSymmetry="4"
     stateNumber="1" value="-0.394355748853459 0.0 0.0"/><!--

 ELECTRON ORBITALS
 =================


   Orb  Occ    Energy  Couls-En    Coefficients

                                   1 1s      1 1s      1 1s      1 1s      1 1s      1 1s      1 1s      1 1s      1 1s      1 1s
                                   1 1s      1 1s      1 1s      1 1s      1 1s      1 1s      1 1s      1 1s      1 1s      1 1s
                                   1 1s      1 1s      1 1s      1 1s      1 1s      1 1s      1 1s      1 1s      1 1s      1 1s
                                   1 1s      1 1s      1 2px     1 2px     1 2px     1 2px     1 2px     1 2px     1 2px     1 2px
                                   1 2px     1 2px     1 2px     1 2px     1 2px     1 2px     1 2px     1 2px     1 2px     1 2px
                                   1 2px     1 2px     1 2px     1 2px     1 2px     1 2px     1 2px     1 2px     1 2px     1 2px
                                   1 2px     1 2px     1 3d0     1 3d2+    1 3d0     1 3d2+    1 3d0     1 3d2+    1 3d0     1 3d2+
                                   1 3d0     1 3d2+    1 3d0     1 3d2+    1 3d0     1 3d2+    1 3d0     1 3d2+    1 3d0     1 3d2+
                                   1 3d0     1 3d2+    1 3d0     1 3d2+    1 3d0     1 3d2+    1 3d0     1 3d2+    1 3d0     1 3d2+
                                   1 3d0     1 3d2+    1 3d0     1 3d2+    1 3d0     1 3d2+    1 3d0     1 3d2+    1 3d0     1 3d2+
                                   1 3d0     1 3d2+    1 3d0     1 3d2+    1 3d0     1 3d2+    1 4f1+    1 4f3+    1 4f1+    1 4f3+
                                   1 4f1+    1 4f3+    1 4f1+    1 4f3+    1 4f1+    1 4f3+    1 4f1+    1 4f3+    1 4f1+    1 4f3+
                                   1 4f1+    1 4f3+    1 4f1+    1 4f3+    1 4f1+    1 4f3+    1 4f1+    1 4f3+    1 4f1+    1 4f3+
                                   1 4f1+    1 4f3+    1 4f1+    1 4f3+    1 5g0     1 5g4+    1 5g2+    1 5g0     1 5g4+    1 5g2+
                                   1 5g0     1 5g4+    1 5g2+    1 5g0     1 5g4+    1 5g2+    1 5g0     1 5g4+    1 5g2+    1 5g0
                                   1 5g4+    1 5g2+    1 5g0     1 5g4+    1 5g2+    1 5g0     1 5g4+    1 5g2+    1 5g0     1 5g4+
                                   1 5g2+    1 6h1+    1 6h3+    1 6h5+    1 6h1+    1 6h3+    1 6h5+    1 6h1+    1 6h3+    1 6h5+
                                   2 1s      2 1s      2 1s      2 1s      2 1s      2 1s      2 2px     2 2px     2 2px     2 3d0
                                   2 3d2+    2 3d0     2 3d2+    3 1s      3 1s      3 1s      3 1s      3 1s      3 1s      3 2px
                                   3 2py     3 2px     3 2py     3 2px     3 2py     3 3d0     3 3d2+    3 3d2-    3 3d0     3 3d2+
                                   3 3d2-

   1.1   2    -1.7911  -15.0871 -0.000000  0.000001 -0.000005  0.000087  0.000380  0.001173  0.002444  0.005252 -0.001934  0.005244
                                -0.096808  0.574820 -0.072055  0.026297  0.705856  0.459132  0.482108  0.453304  0.190747 -0.000152
                                -0.000682 -0.001994 -0.005489  0.149507 -1.086644  0.166922 -0.307425 -0.796006 -0.259026 -0.008275
                                 0.002955 -0.000643 -0.000000  0.000000 -0.000000  0.000000 -0.000000  0.000000 -0.000000  0.000000
                                -0.000002  0.000015  0.000148  0.000113  0.001775 -0.003766  0.006173  0.000610  0.002150  0.010354
                                 0.000210 -0.000059 -0.000185 -0.000759 -0.001728  0.005227  0.002619 -0.000004 -0.001704 -0.000392
                                 0.000010 -0.000003 -0.000000  0.000000  0.000000 -0.000001 -0.000001  0.000004  0.000004 -0.000024
                                -0.000108  0.000497 -0.002201  0.003621  0.006502  0.000754  0.000957  0.001723 -0.006840 -0.001469
                                 0.002862 -0.002925  0.000330 -0.001191  0.005309 -0.004736 -0.009419  0.001385  0.001028 -0.002547
                                -0.007100 -0.006074  0.013455  0.000793  0.008731  0.002004  0.003199  0.000356 -0.002614 -0.000448
                                 0.000454 -0.000107 -0.000259  0.000015  0.000079 -0.000003  0.000000 -0.000000 -0.000000  0.000000
                                 0.000004  0.000010  0.000052  0.000471 -0.000079  0.002113 -0.000440  0.003223  0.000231  0.002120
                                 0.000046 -0.000366  0.000283 -0.002157 -0.000065 -0.008027 -0.000672 -0.007563 -0.000218  0.000748
                                 0.000072  0.000029  0.000003  0.000111 -0.000049 -0.000004 -0.000041  0.000080 -0.000222  0.000312
                                 0.000233  0.000157 -0.000112 -0.000068 -0.000902 -0.000358  0.000009  0.000144  0.000152  0.000442
                                 0.001182  0.000074 -0.001232  0.000217 -0.000075  0.000267  0.000250 -0.000041  0.000039 -0.000019
                                 0.000015 -0.000001  0.000008  0.000002  0.000004 -0.000043  0.000034  0.000007 -0.000145 -0.000029
                                 0.000592  0.005728  0.019711  0.036838  0.048487 -0.003076 -0.006560 -0.011648 -0.011983 -0.001300
                                 0.001971 -0.000405  0.000835  0.000895  0.008845  0.032033  0.057690  0.094142 -0.011214  0.004789
                                 0.008599  0.007796  0.015001  0.009222  0.018411 -0.001629 -0.001617  0.002521 -0.000325 -0.000752
                                 0.000738

   2.1   2    -1.0078  -12.3088  0.000000 -0.000000  0.000000 -0.000000 -0.000001 -0.000004 -0.000008 -0.000015  0.000004  0.000011
                                -0.000776 -0.002216 -0.008504  0.011042  0.057089 -0.022594 -0.037497 -0.013147 -0.005900  0.000000
                                 0.000002  0.000006  0.000016  0.001497  0.003569 -0.046360  0.029674  0.034498  0.003332  0.000097
                                -0.000034  0.000007  0.000000 -0.000000  0.000001 -0.000002  0.000002 -0.000003  0.000007 -0.000020
                                 0.000084 -0.000812 -0.008882 -0.010089  0.114195 -0.085577  0.188975  0.278096 -0.041391 -0.159645
                                 0.008903  0.003321  0.012262 -0.038896 -0.179956  0.130581  0.327781 -0.000418  0.037631  0.013236
                                -0.000272  0.000079 -0.000000  0.000000  0.000000 -0.000000 -0.000001  0.000001  0.000004 -0.000005
                                -0.000073  0.000092 -0.000529  0.000770  0.000376  0.002603  0.000290 -0.005956 -0.000788  0.004180
                                 0.002627 -0.009563  0.000167 -0.000224  0.000837 -0.001102 -0.000800 -0.000770 -0.000045  0.000643
                                -0.001346  0.024509 -0.004488 -0.046774  0.002374 -0.034349 -0.002257 -0.012814  0.001203  0.015544
                                -0.000303  0.001513  0.000140  0.000209 -0.000041 -0.000109 -0.000004 -0.000001  0.000029  0.000007
                                -0.000433 -0.000123 -0.007429 -0.002393 -0.012501 -0.004255 -0.015769 -0.006552 -0.013968 -0.006032
                                -0.001147 -0.000231  0.001839  0.001219  0.012243  0.004280  0.010669  0.001530 -0.002114  0.000189
                                -0.000507  0.000033 -0.000485 -0.000041 -0.000006  0.000014 -0.000027 -0.000006  0.000064  0.000011
                                -0.000043  0.000024 -0.000231  0.000168  0.001517 -0.001094 -0.000084  0.001877 -0.000459 -0.000259
                                -0.002032  0.001149  0.000352 -0.007241  0.004206 -0.000155  0.002839 -0.000994  0.000084  0.000101
                                -0.000206 -0.000021  0.000017 -0.000047  0.000603 -0.000050  0.000125  0.000398 -0.000124 -0.000639
                                 0.001924  0.020011  0.073390  0.171591  0.270479 -0.087124 -0.014820 -0.036949 -0.064019 -0.002349
                                 0.003505 -0.001030  0.001522 -0.001520 -0.015942 -0.061119 -0.140033 -0.194732  0.064583 -0.001606
                                -0.012190 -0.006589 -0.027443 -0.026940 -0.035320  0.001771  0.003392 -0.001619 -0.000121 -0.000121
                                -0.000327

   3.1   2    -0.3356   -8.3222  0.000000 -0.000000  0.000002 -0.000043 -0.000186 -0.000577 -0.001208 -0.002627  0.000997 -0.003023
                                 0.052022 -0.184661  0.076937 -0.122130 -0.643404 -0.138472  0.098205  0.494668  0.732258  0.000074
                                 0.000335  0.000983  0.002734 -0.083082  0.395045  0.242911 -0.442488 -1.028150  0.168033 -0.007378
                                 0.002298 -0.000476  0.000000 -0.000000  0.000000 -0.000000  0.000000 -0.000000  0.000000 -0.000001
                                 0.000005 -0.000038 -0.000484 -0.000479  0.014400 -0.009111  0.008729  0.037322  0.075591 -0.078523
                                 0.024581  0.000164  0.000669 -0.006001 -0.021161  0.016967  0.054055 -0.008139 -0.044823  0.017434
                                 0.002352 -0.000443  0.000000  0.000000 -0.000003 -0.000000  0.000011  0.000001 -0.000057 -0.000006
                                 0.001033  0.000091  0.009537  0.000806 -0.030431 -0.006374  0.026474  0.006075  0.001846 -0.001648
                                -0.110984 -0.038854 -0.002458 -0.000195 -0.018805 -0.002049  0.034096  0.005936 -0.009427  0.000586
                                -0.099977 -0.025096  0.003086  0.001789 -0.003926 -0.033485  0.048034  0.012987 -0.065162 -0.011088
                                -0.008799  0.001497  0.000205 -0.000945  0.000141  0.000298  0.000011  0.000020 -0.000088 -0.000159
                                 0.001263  0.002324  0.020316  0.038711  0.030371  0.060621  0.031494  0.068838  0.020795  0.065107
                                 0.004521  0.007856  0.001144 -0.001996 -0.001795 -0.024135  0.007491 -0.015651  0.001801 -0.013644
                                 0.000274  0.014723  0.000149  0.001995  0.000074  0.000014  0.000029 -0.000057  0.000097 -0.000190
                                 0.000458  0.000033  0.000118  0.001933  0.000517  0.000794  0.003830 -0.000402  0.001099  0.001428
                                 0.002828  0.001092 -0.005731  0.005124 -0.001202  0.001444 -0.003751  0.001436 -0.000106  0.000723
                                -0.000522 -0.000002 -0.000018  0.000044  0.000024 -0.000262 -0.000156 -0.000107 -0.001068 -0.000625
                                 0.001814  0.019879  0.076415  0.219190  0.462047 -0.295486 -0.003247 -0.019927 -0.054572 -0.001244
                                 0.000606  0.000937 -0.003424  0.003939  0.043625  0.178705  0.500079  0.633569 -0.481666  0.003552
                                 0.003498  0.015634  0.017650  0.044776  0.042617 -0.001655 -0.000250  0.002862  0.003276  0.005100
                                -0.004275

   4.1   2    -0.2544   -9.7557  0.000000 -0.000000  0.000001 -0.000011 -0.000047 -0.000145 -0.000305 -0.000669  0.000259 -0.000812
                                 0.012070 -0.039379  0.012594 -0.012818 -0.131577 -0.031546  0.173735  0.108912  0.117660  0.000019
                                 0.000084  0.000247  0.000694 -0.018590  0.084681  0.029244 -0.106337 -0.164856  0.047017 -0.000058
                                 0.000065 -0.000010 -0.000000  0.000000 -0.000000  0.000000 -0.000000  0.000001 -0.000001  0.000004
                                -0.000012  0.000082  0.001189  0.001716 -0.050120  0.019885 -0.056831 -0.137495 -0.265905  1.032304
                                -0.152611 -0.000358 -0.001906  0.020257  0.082473 -0.055801 -0.157697  0.053714  0.178310 -0.139653
                                -0.014891  0.002765  0.000000 -0.000001 -0.000000  0.000003  0.000002 -0.000013 -0.000010  0.000069
                                 0.000182 -0.001231  0.001718 -0.010414 -0.005983  0.033421  0.004733 -0.035611  0.002111  0.011117
                                -0.020285  0.190098 -0.000429  0.002878 -0.003524  0.019580  0.006698 -0.035394 -0.002905  0.007223
                                -0.017964  0.138438 -0.000175  0.011768 -0.012836  0.365005  0.008152 -0.012028 -0.010990  0.028762
                                -0.001065 -0.010442 -0.000062  0.004618  0.000053 -0.001384 -0.000061  0.000004  0.000491 -0.000036
                                -0.007012  0.000503 -0.112609  0.008462 -0.168544  0.013828 -0.173879  0.016448 -0.119648  0.018396
                                -0.024786  0.001397 -0.006024 -0.001416  0.011537 -0.005330 -0.069618  0.000097 -0.022454 -0.002146
                                 0.004012  0.002343 -0.001084  0.000368  0.000042  0.000055 -0.000082  0.000044 -0.000061 -0.000032
                                 0.000384  0.000490 -0.000766  0.000604 -0.000029 -0.001806  0.001152  0.001040 -0.003710 -0.000019
                                -0.000530 -0.001442 -0.000307 -0.003358  0.004089  0.000272  0.025474 -0.011151 -0.000071 -0.003804
                                 0.003076  0.000022 -0.000021 -0.000043  0.000146  0.000107 -0.000014  0.001082  0.000232  0.000875
                                 0.003183  0.034876  0.136752  0.389280 -0.851735 -0.027252 -0.006914 -0.021414  0.157050 -0.001994
                                 0.002858  0.001232 -0.007437 -0.001264 -0.014065 -0.058833 -0.164134  0.682858 -0.093333 -0.011219
                                 0.002616 -0.031439  0.009644 -0.022098  0.138360  0.000812 -0.002664 -0.004352  0.001702 -0.005308
                                 0.000049

   5.1   2    -0.1845  -12.9757  0.000000 -0.000000  0.000000 -0.000000 -0.000002 -0.000007 -0.000014 -0.000030  0.000010 -0.000035
                                 0.001162 -0.007427 -0.003739  0.016599  0.057082 -0.069801 -0.406337 -0.032604 -0.044851  0.000001
                                 0.000004  0.000011  0.000031 -0.001898  0.015353 -0.072633  0.173647  0.158224  0.023600  0.005375
                                -0.001371  0.000297  0.000000 -0.000000  0.000001 -0.000002  0.000003 -0.000003  0.000008 -0.000023
                                 0.000101 -0.001011 -0.010696 -0.013462 -0.052263 -0.073148 -0.047366  0.077293 -0.150898  2.850064
                                -0.344827  0.004096  0.014805  0.050155  0.040341  0.079549  0.078870  0.135488 -0.037051 -0.450036
                                -0.035622  0.006536 -0.000000  0.000000  0.000001 -0.000001 -0.000003  0.000005  0.000014 -0.000029
                                -0.000245  0.000520 -0.002072  0.004800  0.004604 -0.019257 -0.002275  0.022486 -0.003786  0.018180
                                 0.006500 -0.101369  0.000575 -0.001232  0.003883 -0.009599 -0.006043  0.019402  0.001765 -0.013134
                                 0.005713 -0.112815 -0.009545 -0.220504  0.043213  0.735849 -0.003794  0.019534  0.011825 -0.111822
                                 0.000690 -0.044717  0.000437  0.010496 -0.000142 -0.002653 -0.000121 -0.000010  0.000970  0.000078
                                -0.013805 -0.001175 -0.219845 -0.019325 -0.323358 -0.028572 -0.330585 -0.031104 -0.210035 -0.023485
                                -0.050928 -0.004671 -0.019713 -0.001342  0.020848  0.009805 -0.164215 -0.005320 -0.052128  0.000685
                                 0.022496 -0.000014  0.000233 -0.000374  0.000037  0.000111 -0.000118  0.000154 -0.000438  0.000211
                                 0.000281  0.001088 -0.001001  0.000874 -0.001881  0.001244 -0.000381  0.004110 -0.000529  0.001201
                                -0.008880  0.005611 -0.000015  0.006339  0.001541 -0.000487  0.045177 -0.022205  0.000339 -0.011010
                                 0.007294  0.000030  0.000001 -0.000177  0.000687  0.000318  0.000213  0.001217  0.001119 -0.001334
                                -0.001023 -0.011961 -0.050944 -0.045421 -3.180990  0.964569 -0.001901 -0.009488  0.473165 -0.003167
                                 0.003598 -0.001821 -0.007722  0.000519  0.006455  0.029125 -0.015081  2.414246 -0.635408  0.005969
                                -0.007836  0.018729 -0.029204  0.140251  0.350362  0.003329  0.004045 -0.001402 -0.001679  0.001104
                                 0.010040

   6.1   +    -0.3991  -14.5943 -0.000000  0.000000 -0.000000  0.000005  0.000024  0.000074  0.000154  0.000328 -0.000119  0.000299
                                -0.008178  0.065230  0.077956 -0.288137 -1.050724  0.612167  4.071336  0.427559  0.115510 -0.000010
                                -0.000043 -0.000126 -0.000344  0.013627 -0.145705  1.249753 -1.598561 -1.109617 -0.404735 -0.010910
                                 0.004176 -0.000941  0.000000 -0.000000  0.000000 -0.000000  0.000000 -0.000000  0.000000 -0.000000
                                -0.000001  0.000030  0.000288  0.000227 -0.001425 -0.009492 -0.006647  0.013446 -0.006765  0.214313
                                -0.023922 -0.000130 -0.000325  0.000731  0.008369 -0.000610 -0.001033  0.012601 -0.016393 -0.043763
                                -0.003299  0.000608  0.000000  0.000000 -0.000002 -0.000000  0.000006  0.000001 -0.000034 -0.000004
                                 0.000629  0.000083  0.005327  0.000730 -0.006962 -0.002044 -0.002483  0.001850 -0.013712  0.002827
                                 0.032983 -0.006674 -0.001482 -0.000199 -0.009640 -0.001387  0.012201  0.002386  0.001864 -0.000212
                                 0.043582 -0.009614  0.164100 -0.018939 -0.316086  0.047015  0.071277  0.000973 -0.023103 -0.013866
                                 0.015371 -0.005090 -0.006107  0.001145  0.001771 -0.000285 -0.000010  0.000135  0.000083 -0.001081
                                -0.001193  0.015539 -0.018690  0.252050 -0.027381  0.363361 -0.028551  0.359328 -0.018711  0.203991
                                -0.004711  0.063826 -0.002299  0.033499 -0.000481 -0.061536 -0.013536  0.085223 -0.004043  0.013176
                                 0.001951 -0.009623  0.000210  0.001731  0.000102  0.000106 -0.000025 -0.000284  0.000141 -0.000030
                                 0.001011  0.000919 -0.000361 -0.001412  0.000756 -0.000213  0.000098  0.001232 -0.000357 -0.005454
                                -0.001977 -0.000273 -0.001927 -0.001675  0.000267  0.007123  0.003893 -0.001866 -0.003799 -0.001239
                                 0.000661 -0.000167  0.000226 -0.000442  0.000059 -0.000260 -0.000979  0.000131  0.000338 -0.001477
                                 0.000083 -0.000419 -0.004840  0.085777 -1.191333  0.168252 -0.007280 -0.022271  0.225091 -0.003395
                                 0.007102  0.009508 -0.008062  0.000158 -0.000032 -0.002317  0.118816 -1.196654  0.007640  0.006485
                                 0.008986  0.023297  0.026688 -0.124679 -0.211573 -0.003969 -0.004649  0.008590  0.013658  0.005921
                                -0.008543

   7.1   +    -0.1185   -6.1199  0.000000 -0.000000  0.000000 -0.000006 -0.000027 -0.000084 -0.000174 -0.000368  0.000131 -0.000361
                                 0.013409 -0.091545 -0.020271  0.030150 -0.186689 -0.122362  1.169136  0.376862  0.072574  0.000011
                                 0.000049  0.000143  0.000386 -0.023097  0.192897 -0.041282 -0.264192  0.005520  0.064987  0.037434
                                -0.008013  0.001668 -0.000000  0.000000 -0.000000  0.000000 -0.000000  0.000000 -0.000000  0.000001
                                -0.000005  0.000053  0.000657  0.000832  0.007197  0.003404  0.005498  0.002662  0.005577 -0.401003
                                 0.026984 -0.000236 -0.000925 -0.004888 -0.008433 -0.002349  0.009240 -0.021046 -0.035893  0.052318
                                 0.004908 -0.000883 -0.000001 -0.000000  0.000003  0.000000 -0.000013 -0.000002  0.000067  0.000008
                                -0.001205 -0.000148 -0.010848 -0.001305  0.033813  0.003009 -0.033043 -0.002375  0.001646 -0.003122
                                 0.191828 -0.000296  0.002849  0.000349  0.020956  0.002455 -0.037329 -0.003816  0.013220  0.003605
                                 0.131182  0.010153  0.136191  0.007753  0.081551 -0.108085  0.093801 -0.008851  0.061381  0.006194
                                 0.018398  0.003004 -0.002554 -0.000805  0.000744  0.000168  0.000011  0.000014 -0.000090 -0.000111
                                 0.001297  0.001575  0.021143  0.024907  0.031318  0.033823  0.031217  0.030979  0.019248  0.009412
                                 0.004867  0.007138  0.001600  0.006228  0.000659 -0.010185  0.011558  0.022765 -0.001934  0.002356
                                -0.004473 -0.005148 -0.000535 -0.000251 -0.000001 -0.000007  0.000002 -0.000037  0.000072 -0.000026
                                -0.000008 -0.000139  0.000041 -0.001213  0.000591 -0.000605 -0.002713 -0.000268 -0.000926 -0.000567
                                -0.000927 -0.000864  0.009221  0.000750 -0.001136  0.006231 -0.002953  0.001045  0.000441  0.001345
                                -0.001362 -0.000071 -0.000015 -0.000041 -0.000115 -0.000111 -0.000103 -0.000187  0.000390 -0.000023
                                -0.000654 -0.007152 -0.030719 -0.044786  0.121725 -0.021521  0.004081 -0.001667 -0.022037  0.001828
                                -0.000281  0.002794 -0.000278 -0.000953 -0.010719 -0.049767 -0.086123 -0.756908  0.185558 -0.003313
                                -0.005852 -0.004123 -0.006787 -0.068038 -0.125084  0.002558  0.000248 -0.000082  0.003288  0.000712
                                 0.001082

   8.1   0    -0.0257   -4.0425  0.000000 -0.000000  0.000000 -0.000002 -0.000010 -0.000032 -0.000067 -0.000145  0.000055 -0.000174
                                 0.003994 -0.016037  0.001813  0.001435 -0.031218 -0.021969  0.053704  0.223681  0.025778  0.000004
                                 0.000019  0.000054  0.000151 -0.006710  0.035956 -0.014560 -0.030464 -0.251410 -0.053382 -0.054361
                                -0.003050 -0.002650  0.000000 -0.000000  0.000000 -0.000000  0.000000 -0.000000  0.000001 -0.000002
                                 0.000009 -0.000066 -0.000549 -0.000689 -0.045328 -0.010352 -0.152908 -0.179184 -0.025300 -0.001602
                                 0.049494  0.000232  0.000709  0.022351  0.078063 -0.005391  0.007080  0.248421  0.632188  0.091737
                                 0.033839  0.013805 -0.000000 -0.000000  0.000000  0.000000 -0.000000 -0.000000  0.000001  0.000001
                                -0.000012 -0.000041 -0.000088 -0.000449  0.000804 -0.003093 -0.001541  0.008319  0.001845 -0.018016
                                 0.012816 -0.085253  0.000025  0.000111  0.000172  0.000799 -0.000570  0.000815 -0.000059  0.005354
                                 0.006026 -0.032091  0.015393 -0.069623  0.025945 -0.041825  0.014074 -0.086115  0.022198  0.013431
                                 0.019680 -0.022794  0.004581 -0.011736  0.000997 -0.001125 -0.000000 -0.000002  0.000003  0.000017
                                -0.000049 -0.000242 -0.000906 -0.003795 -0.001533 -0.005060 -0.000804 -0.004531 -0.000700 -0.002594
                                -0.000055 -0.001143  0.000174 -0.001078  0.005804 -0.003218  0.013202  0.001235  0.022457 -0.001512
                                -0.008351 -0.000092  0.005956 -0.001336  0.000005  0.000008 -0.000001 -0.000012 -0.000020  0.000022
                                 0.000050  0.000074 -0.000006 -0.000143 -0.000070  0.000634  0.000162  0.001857 -0.001069 -0.000859
                                -0.005300  0.004284  0.000351  0.004263  0.002199  0.001450 -0.012324  0.001077  0.000542  0.004166
                                -0.002265  0.000013 -0.000007  0.000013  0.000086  0.000044 -0.000035  0.000191  0.000158  0.000133
                                 0.000072  0.001292  0.001677  0.087233  0.228330 -0.433021  0.007539 -0.000368  0.042100  0.001089
                                -0.001854 -0.003041 -0.004406  0.000015 -0.000071  0.002125 -0.035004 -0.060181  0.300212  0.007874
                                 0.001777  0.025148 -0.005678  0.103175  0.002287 -0.000294 -0.000375  0.001361  0.003315 -0.000330
                                -0.001230

   9.1   0    -0.0018   -1.6810 -0.000000  0.000000 -0.000000  0.000008  0.000034  0.000104  0.000218  0.000475 -0.000183  0.000598
                                -0.010760  0.024475 -0.019712  0.035174  0.174035  0.014227 -1.546630 -3.063353 -2.432397 -0.000013
                                -0.000060 -0.000177 -0.000493  0.017753 -0.061090 -0.094520  0.395310  3.031196  4.670887  1.061245
                                -0.494151  0.982745  0.000000 -0.000000  0.000000 -0.000000  0.000000 -0.000000  0.000000 -0.000000
                                 0.000001 -0.000011 -0.000086 -0.000117 -0.006433 -0.001994 -0.021157 -0.023974  0.002472 -0.094387
                                 0.091169  0.000036  0.000114  0.003240  0.011093 -0.000160  0.001009 -0.152739 -0.121302  0.140678
                                 0.061991 -0.106555  0.000000  0.000000 -0.000000 -0.000000  0.000002  0.000000 -0.000009 -0.000001
                                 0.000155  0.000015  0.001348  0.000103 -0.004535 -0.000533  0.005143  0.001130 -0.002101 -0.002143
                                -0.039412 -0.008003 -0.000363 -0.000034 -0.002571 -0.000166  0.004735  0.000386 -0.001253  0.000128
                                -0.020353 -0.004015 -0.029273 -0.003490 -0.038174 -0.031582  0.001519 -0.002387 -0.099430 -0.017860
                                -0.049590 -0.024867  0.015781 -0.006840 -0.013673 -0.010463  0.000001  0.000000 -0.000005 -0.000004
                                 0.000071  0.000055  0.001104  0.000908  0.001495  0.001304  0.001529  0.001258  0.000769  0.000563
                                 0.000330  0.000218  0.000288  0.000121 -0.000667  0.003879  0.005855 -0.002149  0.003495 -0.011090
                                 0.002262  0.020098  0.001832  0.006029 -0.000004  0.000002  0.000000  0.000002 -0.000002  0.000001
                                -0.000036  0.000033 -0.000022  0.000036 -0.000085  0.000097  0.000330  0.000263  0.000068  0.000105
                                -0.000352  0.000415 -0.002335  0.000023  0.000888 -0.001558 -0.000965  0.000565 -0.000897  0.000912
                                -0.000271 -0.000003 -0.000004 -0.000000  0.000006  0.000005 -0.000012  0.000030 -0.000049  0.000036
                                -0.000026 -0.000286 -0.000864 -0.011799  0.109734 -0.528648  0.000177  0.005838 -0.002235 -0.000171
                                -0.000190 -0.000787 -0.001606 -0.000093 -0.001129 -0.003730 -0.033079 -0.107613 -1.007279  0.001587
                                 0.001405  0.001099 -0.003731 -0.007985 -0.029979 -0.000727 -0.000238  0.000319 -0.000502  0.000396
                                -0.001182

                                   1 2py     1 2py     1 2py     1 2py     1 2py     1 2py     1 2py     1 2py     1 2py     1 2py
                                   1 2py     1 2py     1 2py     1 2py     1 2py     1 2py     1 2py     1 2py     1 2py     1 2py
                                   1 2py     1 2py     1 2py     1 2py     1 2py     1 2py     1 2py     1 2py     1 2py     1 2py
                                   1 3d2-    1 3d2-    1 3d2-    1 3d2-    1 3d2-    1 3d2-    1 3d2-    1 3d2-    1 3d2-    1 3d2-
                                   1 3d2-    1 3d2-    1 3d2-    1 3d2-    1 3d2-    1 3d2-    1 3d2-    1 3d2-    1 3d2-    1 3d2-
                                   1 3d2-    1 3d2-    1 4f1-    1 4f3-    1 4f1-    1 4f3-    1 4f1-    1 4f3-    1 4f1-    1 4f3-
                                   1 4f1-    1 4f3-    1 4f1-    1 4f3-    1 4f1-    1 4f3-    1 4f1-    1 4f3-    1 4f1-    1 4f3-
                                   1 4f1-    1 4f3-    1 4f1-    1 4f3-    1 4f1-    1 4f3-    1 4f1-    1 4f3-    1 4f1-    1 4f3-
                                   1 5g2-    1 5g4-    1 5g2-    1 5g4-    1 5g2-    1 5g4-    1 5g2-    1 5g4-    1 5g2-    1 5g4-
                                   1 5g2-    1 5g4-    1 5g2-    1 5g4-    1 5g2-    1 5g4-    1 5g2-    1 5g4-    1 6h1-    1 6h3-
                                   1 6h5-    1 6h1-    1 6h3-    1 6h5-    1 6h1-    1 6h3-    1 6h5-    2 2py     2 2py     2 2py
                                   2 3d2-    2 3d2-    3 1s      3 1s      3 1s      3 1s      3 1s      3 1s      3 2py     3 2px
                                   3 2py     3 2px     3 2py     3 2px     3 3d2-    3 3d0     3 3d2+    3 3d2-    3 3d0     3 3d2+


   1.2   2    -1.0434  -12.3364 -0.000000  0.000000 -0.000001  0.000002 -0.000003  0.000003 -0.000007  0.000022 -0.000092  0.000900
                                 0.010348  0.012740 -0.107579  0.081223 -0.212159 -0.295774  0.039899  0.189114 -0.012868 -0.003757
                                -0.014724  0.030930  0.183872 -0.125243 -0.300004 -0.000370 -0.020246 -0.007245  0.000394 -0.000095
                                 0.000000 -0.000001  0.000003 -0.000015  0.000303  0.003040 -0.003574 -0.002070  0.006805  0.002395
                                -0.000750 -0.005753  0.007101 -0.004300  0.013030 -0.034867 -0.047394 -0.007938  0.010059  0.000468
                                 0.000309 -0.000119  0.000004 -0.000000 -0.000031  0.000002  0.000478 -0.000013  0.008485  0.000204
                                 0.014427 -0.000008  0.018337  0.002491  0.016575  0.004621  0.001123 -0.000115 -0.001999 -0.000197
                                -0.007957  0.002929 -0.011776  0.001119  0.001574 -0.000268  0.000245  0.000135  0.000305 -0.000041
                                -0.000017 -0.000026 -0.000005 -0.000009 -0.000147  0.000017 -0.000717 -0.001794 -0.000246 -0.001483
                                -0.000974  0.000919  0.004458  0.006366 -0.000915 -0.002607 -0.000135  0.000052 -0.000011 -0.000024
                                 0.000030 -0.000282  0.000076  0.000168  0.000006  0.000254  0.000409 -0.002950 -0.007390  0.003421
                                 0.001865  0.000683  0.002527  0.026652  0.102132  0.203650  0.370590 -0.063295  0.015620  0.011141
                                 0.030531  0.024639  0.072538  0.039622  0.005181 -0.002771 -0.001544  0.000526 -0.001294  0.000435

   2.2   +    -0.4264  -15.1089 -0.000000  0.000000 -0.000000  0.000000 -0.000001  0.000001 -0.000002  0.000005 -0.000024  0.000234
                                 0.002496  0.003346  0.021276  0.005029  0.008548  0.002948  0.067153 -0.673941  0.077654 -0.000947
                                -0.003524 -0.016102 -0.015966 -0.012235  0.022042 -0.029083 -0.008087  0.096313  0.007404 -0.001315
                                 0.000000 -0.000000  0.000000 -0.000000  0.000011  0.000177 -0.000071 -0.001037  0.011146  0.016441
                                -0.000033 -0.000443  0.000613 -0.002624 -0.001492 -0.032796  0.186955  0.007111 -0.017686 -0.009182
                                 0.002281 -0.000575  0.000038  0.000132 -0.000304 -0.001059  0.004455  0.015284  0.073359  0.249351
                                 0.106295  0.363341  0.104488  0.357659  0.060090  0.214972  0.018282  0.060907  0.008913  0.028142
                                -0.007797 -0.044261  0.038086  0.092706  0.011492  0.012667 -0.004795  0.004029 -0.000015 -0.002100
                                -0.000016  0.000055  0.000061  0.000291 -0.000218  0.000442  0.000198  0.001379 -0.000023 -0.000256
                                 0.000130  0.001035  0.000749 -0.001294 -0.005687 -0.012072  0.001685  0.002502 -0.000175 -0.000184
                                -0.000633 -0.000417 -0.000381 -0.001024 -0.000543 -0.001451 -0.001496  0.002699  0.024590 -0.052205
                                -0.001464 -0.007346  0.000220  0.002206  0.007960  0.038602 -0.896349  0.226834 -0.000470  0.005027
                                -0.016132  0.035608 -0.062123 -0.168591  0.002899 -0.001298  0.000924  0.003451 -0.000287  0.012066

   3.2   +    -0.3820  -14.0447 -0.000000  0.000000 -0.000000  0.000000 -0.000000  0.000000 -0.000001  0.000002 -0.000012  0.000190
                                 0.003057  0.003483  0.056060  0.018475  0.055916  0.044112  0.252379 -2.092554  0.258968 -0.000998
                                -0.004268 -0.031580 -0.086062  0.016937  0.112961 -0.092387 -0.095321  0.291053  0.023939 -0.004290
                                -0.000000  0.000002 -0.000006  0.000034 -0.000606 -0.005241  0.015391 -0.014295  0.020450  0.092787
                                 0.001420  0.009934 -0.017180 -0.003198  0.043069 -0.107144  0.604102 -0.001278 -0.030944 -0.027170
                                 0.007636 -0.002018  0.000117 -0.000037 -0.000936  0.000300  0.013675 -0.004324  0.224975 -0.070431
                                 0.328550 -0.103186  0.326072 -0.102673  0.197328 -0.062674  0.054613 -0.016849  0.023987 -0.007284
                                -0.025488  0.010191  0.119658 -0.029558  0.036441 -0.005429 -0.013744 -0.000841  0.000514  0.000518
                                -0.000019 -0.000134  0.000254  0.000225 -0.000335 -0.001338  0.000570  0.000198 -0.002279 -0.004159
                                 0.001329  0.002303  0.003784 -0.000726 -0.018217 -0.039261  0.005510  0.007747 -0.000013 -0.000557
                                 0.000150 -0.000986 -0.000949  0.000401 -0.002155 -0.000763  0.000430  0.001731 -0.000157  0.096375
                                -0.001246  0.001383  0.001889  0.020434  0.081789  0.272738 -2.670128  0.560069  0.008206 -0.000185
                                 0.020381 -0.006060 -0.357347 -0.226006  0.003801 -0.003829 -0.004293 -0.011653  0.000159  0.002998

   4.2   0    -0.1938   -9.2498  0.000000 -0.000000  0.000000 -0.000001  0.000002 -0.000003  0.000005 -0.000016  0.000069 -0.000710
                                -0.008607 -0.011789 -0.009425 -0.076539  0.011851  0.158004  0.062671  1.542333 -0.154980  0.003052
                                 0.012505  0.029323 -0.031399  0.114573  0.195424  0.060070 -0.188948 -0.236264 -0.014808  0.002642
                                -0.000001  0.000003 -0.000013  0.000070 -0.001265 -0.011549  0.038309 -0.038629 -0.007866  0.179593
                                 0.002998  0.022554 -0.041428  0.017527  0.171863  0.139780 -0.351032 -0.040349  0.111676  0.026591
                                -0.004397  0.000908 -0.000055  0.000011  0.000441 -0.000085 -0.006414  0.001220 -0.104698  0.019964
                                -0.150547  0.029822 -0.147539  0.029240 -0.079906  0.019179 -0.026431  0.004486 -0.014485  0.001138
                                 0.016492 -0.003713 -0.077438  0.007393 -0.024932  0.002002  0.016329 -0.000200  0.000868 -0.000084
                                 0.000001  0.000029 -0.000218 -0.000221  0.000156  0.000377 -0.002859 -0.002658 -0.002410 -0.001400
                                -0.004279 -0.010093  0.004297  0.004116  0.010397  0.017429 -0.003265 -0.005959  0.000017  0.000268
                                -0.000031  0.000292  0.000366 -0.000109  0.000018  0.000115  0.001029  0.009145  0.029953 -0.005704
                                -0.003734 -0.005680  0.003250  0.036923  0.156270  0.325235  2.454446 -0.898408  0.003012 -0.007578
                                -0.002449 -0.025321  0.298784  0.154730 -0.002745  0.002328 -0.001214  0.000695 -0.002003 -0.003953

   5.2   0    -0.0261   -4.1416  0.000000 -0.000000  0.000000 -0.000000  0.000000 -0.000000  0.000001 -0.000003  0.000010 -0.000082
                                -0.000778 -0.001000 -0.040856 -0.012664 -0.124296 -0.137415  0.037349  0.287265  0.008938  0.000308
                                 0.001049  0.020920  0.069646 -0.004862 -0.005122  0.269008  0.613938  0.030898  0.028429  0.014520
                                -0.000000  0.000001 -0.000005  0.000029 -0.000525 -0.004724  0.015764 -0.016382  0.005164  0.096915
                                 0.001240  0.009156 -0.016837  0.004163  0.065801  0.074893 -0.071071  0.053357 -0.025242 -0.017020
                                 0.000371 -0.001226 -0.000004  0.000000  0.000031 -0.000001 -0.000457  0.000007 -0.007563  0.000079
                                -0.011032  0.000034 -0.010103  0.000366 -0.004378  0.000565 -0.001760  0.000064 -0.000818  0.000129
                                 0.000290 -0.003596  0.003397 -0.014292  0.021121 -0.010513 -0.004593 -0.007594  0.006325 -0.003849
                                -0.000003 -0.000009 -0.000029 -0.000020  0.000004 -0.000098 -0.000756 -0.000680 -0.000160 -0.000192
                                -0.001859 -0.005051 -0.000249  0.007108  0.000147 -0.016285  0.001256  0.002785  0.000001  0.000018
                                -0.000006  0.000069  0.000052  0.000040  0.000159  0.000143  0.000247  0.004902  0.020825  0.106860
                                -0.001253 -0.001547  0.000350  0.003608  0.019090  0.006444  0.285780  0.329181  0.011546  0.001050
                                 0.026346 -0.006045  0.169722  0.016491  0.001027 -0.001116 -0.001827  0.001684  0.007422 -0.002925

                                   1 2pz     1 2pz     1 2pz     1 2pz     1 2pz     1 2pz     1 2pz     1 2pz     1 2pz     1 2pz
                                   1 2pz     1 2pz     1 2pz     1 2pz     1 2pz     1 2pz     1 2pz     1 2pz     1 2pz     1 2pz
                                   1 2pz     1 2pz     1 2pz     1 2pz     1 2pz     1 2pz     1 2pz     1 2pz     1 2pz     1 2pz
                                   1 3d1+    1 3d1+    1 3d1+    1 3d1+    1 3d1+    1 3d1+    1 3d1+    1 3d1+    1 3d1+    1 3d1+
                                   1 3d1+    1 3d1+    1 3d1+    1 3d1+    1 3d1+    1 3d1+    1 3d1+    1 3d1+    1 3d1+    1 3d1+
                                   1 3d1+    1 3d1+    1 4f0     1 4f2+    1 4f0     1 4f2+    1 4f0     1 4f2+    1 4f0     1 4f2+
                                   1 4f0     1 4f2+    1 4f0     1 4f2+    1 4f0     1 4f2+    1 4f0     1 4f2+    1 4f0     1 4f2+
                                   1 4f0     1 4f2+    1 4f0     1 4f2+    1 4f0     1 4f2+    1 4f0     1 4f2+    1 4f0     1 4f2+
                                   1 5g1+    1 5g3+    1 5g1+    1 5g3+    1 5g1+    1 5g3+    1 5g1+    1 5g3+    1 5g1+    1 5g3+
                                   1 5g1+    1 5g3+    1 5g1+    1 5g3+    1 5g1+    1 5g3+    1 5g1+    1 5g3+    1 6h2+    1 6h4+
                                   1 6h0     1 6h2+    1 6h4+    1 6h0     1 6h2+    1 6h4+    1 6h0     2 2pz     2 2pz     2 2pz
                                   2 3d1+    2 3d1+    3 2pz     3 2pz     3 2pz     3 3d1+    3 3d1-    3 3d1+    3 3d1-

   1.3   2    -0.8898  -12.2970 -0.000000  0.000000 -0.000001  0.000002 -0.000003  0.000004 -0.000009  0.000026 -0.000108  0.001034
                                 0.011530  0.014220 -0.102557  0.108406 -0.170103 -0.341929 -0.097859 -0.014904  0.012334 -0.004246
                                -0.016287  0.024191  0.179582 -0.159297 -0.387378 -0.004598 -0.015963  0.011706  0.001254 -0.000227
                                 0.000000 -0.000000  0.000000 -0.000001  0.000021  0.000333 -0.001095  0.001053 -0.002228 -0.001168
                                -0.000061 -0.000717  0.001281  0.000037 -0.003589  0.001696  0.000143  0.000185 -0.000065  0.000033
                                -0.000014  0.000004  0.000001 -0.000001 -0.000010  0.000011  0.000153 -0.000132  0.002841 -0.001707
                                 0.005567 -0.002315  0.008191  0.000509  0.010206  0.002470  0.000268 -0.000586 -0.002271 -0.001305
                                -0.007239 -0.000257  0.000014 -0.000133 -0.002122 -0.000027  0.000575  0.000006 -0.000177  0.000002
                                 0.000006 -0.000004 -0.000003 -0.000045  0.000040  0.000135  0.000389 -0.000555 -0.000097 -0.001865
                                -0.000267  0.002449 -0.000148  0.000094  0.000034 -0.000045 -0.000003  0.000280 -0.000047  0.000049
                                 0.000001 -0.000320  0.000036  0.000449  0.000007  0.000321  0.000135 -0.004116 -0.009894 -0.004789
                                 0.002221  0.002432 -0.006512 -0.014744 -0.006640 -0.001617 -0.002794 -0.002584 -0.002819

   2.3   +    -0.4169  -15.1178  0.000000 -0.000000  0.000000 -0.000000  0.000000 -0.000000  0.000001 -0.000004  0.000021 -0.000249
                                -0.002776 -0.003527 -0.010883  0.005608 -0.007344 -0.009502 -0.043541  0.084642  0.005247  0.001055
                                 0.003856  0.011022 -0.006850  0.019736  0.015871 -0.001620 -0.006886  0.004386  0.000427 -0.000077
                                 0.000000 -0.000001  0.000003 -0.000017  0.000310  0.002815 -0.006211  0.003567  0.005897 -0.004446
                                -0.000739 -0.005335  0.008178 -0.005854 -0.012303  0.016953 -0.057899 -0.006751  0.001377 -0.000161
                                 0.000022 -0.000001 -0.000070 -0.000119  0.000561  0.000955 -0.008079 -0.013832 -0.131769 -0.226849
                                -0.192430 -0.331319 -0.189020 -0.324717 -0.108879 -0.185789 -0.031767 -0.054249 -0.013925 -0.023463
                                 0.010006  0.015748 -0.040438 -0.054695  0.001884  0.013155 -0.005351 -0.011820  0.002151  0.004505
                                 0.000024 -0.000036 -0.000061 -0.000180  0.000319 -0.000184 -0.000400 -0.001176  0.002464  0.002041
                                -0.003426 -0.003325  0.000465 -0.000174  0.007998  0.009598 -0.000857 -0.000907  0.001056  0.000190
                                 0.000152  0.001521  0.000870  0.000371  0.002411  0.000898  0.001098 -0.001464 -0.008396  0.014951
                                 0.000442  0.001647  0.003166  0.022219 -0.090881  0.001270  0.000464  0.007215  0.001300

   3.3   +    -0.3785  -15.0639  0.000000 -0.000000  0.000000 -0.000000  0.000000 -0.000000  0.000001 -0.000002  0.000004  0.000028
                                 0.001163  0.001179  0.005532 -0.000573  0.015584  0.008161  0.053641 -0.158090 -0.011982 -0.000314
                                -0.001632 -0.004141 -0.002904 -0.007328 -0.010089  0.002918  0.012762 -0.008044 -0.000764  0.000137
                                 0.000000 -0.000000  0.000002 -0.000011  0.000193  0.001741 -0.004183  0.003158  0.001540 -0.007061
                                -0.000455 -0.003305  0.005199 -0.004690 -0.011452  0.008029 -0.035568 -0.006040  0.001658 -0.000411
                                 0.000143 -0.000039  0.000118 -0.000068 -0.000947  0.000547  0.013783 -0.008004  0.227555 -0.132925
                                 0.331152 -0.193590  0.323007 -0.188483  0.187242 -0.108290  0.053965 -0.031198  0.023203 -0.013073
                                -0.014770  0.007127  0.070581 -0.033801 -0.003037  0.007248  0.009374 -0.007030 -0.003786  0.002698
                                 0.000097 -0.000088  0.000141  0.000020  0.000832 -0.000894  0.000923  0.000071  0.001799 -0.004373
                                -0.001705  0.005367 -0.000251  0.000801  0.004865 -0.016600 -0.000493  0.001586 -0.000172  0.000017
                                -0.000314 -0.000190  0.000556 -0.000958  0.000176  0.000914 -0.002058 -0.002794 -0.020910  0.099379
                                 0.000825  0.004159 -0.001322 -0.012475  0.068631  0.000324 -0.000576  0.000790 -0.003665

   4.3   0    -0.0295   -3.8772  0.000000 -0.000000  0.000000 -0.000000  0.000000 -0.000000  0.000001 -0.000003  0.000014 -0.000136
                                -0.001610 -0.002307  0.021027 -0.013699  0.048910  0.085635  0.074017 -0.158066 -0.211981  0.000573
                                 0.002386 -0.004586 -0.046851  0.034954  0.094555 -0.200651 -0.291242 -0.166935 -0.043268 -0.007078
                                -0.000000  0.000001 -0.000005  0.000027 -0.000485 -0.004389  0.012827 -0.011411  0.000670  0.064993
                                 0.001149  0.008464 -0.014640  0.004568  0.043350  0.039881  0.077087  0.050998  0.063946  0.047854
                                 0.009409  0.001616  0.000003 -0.000000 -0.000022  0.000000  0.000316 -0.000001  0.005140 -0.000017
                                 0.007290  0.000123  0.006419 -0.000181  0.001607  0.000837  0.001287 -0.000054  0.000792 -0.000205
                                 0.000721  0.000422 -0.019463  0.004296 -0.023323  0.004341 -0.005991  0.002375 -0.008269  0.001143
                                -0.000004 -0.000009 -0.000024  0.000015 -0.000041 -0.000079 -0.000575 -0.000161 -0.000297 -0.000439
                                -0.000688  0.001202  0.001334  0.000911  0.002384  0.001505  0.001431 -0.000933 -0.000011  0.000003
                                 0.000003 -0.000139 -0.000006  0.000008 -0.000282  0.000073  0.000074  0.002336  0.000626 -0.026100
                                -0.000891 -0.001642 -0.004148 -0.021427 -0.038033  0.000792 -0.000400  0.002898  0.003908

   5.3   0    -0.0084   -5.5952 -0.000000  0.000000 -0.000000  0.000000 -0.000000  0.000000 -0.000000  0.000001 -0.000004  0.000039
                                 0.000463  0.000652 -0.003035  0.004904 -0.002997 -0.014628 -0.006371 -0.009553  0.018306 -0.000164
                                -0.000682 -0.000046  0.007680 -0.010082 -0.024731  0.126749  0.093768  0.025152  0.043230  0.040207
                                -0.000001  0.000004 -0.000018  0.000095 -0.001718 -0.015555  0.044547 -0.038379 -0.002262  0.214729
                                 0.004075  0.029972 -0.051397  0.017199  0.145894  0.169424  0.164919  0.136221  0.181097  0.148694
                                 0.056548  0.027497  0.000000 -0.000005 -0.000000  0.000040  0.000000 -0.000566 -0.000120 -0.008771
                                -0.000662 -0.011307 -0.000552 -0.010402  0.000521 -0.003876  0.000212 -0.002814  0.000688 -0.003049
                                -0.001374  0.000009  0.015411 -0.008300  0.017843 -0.017164  0.008231 -0.001269  0.015504 -0.013027
                                -0.000014 -0.000020 -0.000089  0.000002 -0.000116 -0.000211 -0.001668 -0.000694 -0.001140 -0.002329
                                -0.001733  0.000596  0.008917 -0.001493  0.006539 -0.004259  0.006386 -0.001870  0.000032  0.000013
                                -0.000009  0.000032  0.000015  0.000006 -0.000081  0.000509 -0.000109  0.010151  0.031688  0.074458
                                -0.002706  0.004469 -0.008385 -0.027115 -0.019395  0.001454 -0.003059  0.005981 -0.002617

                                   1 3d1-    1 3d1-    1 3d1-    1 3d1-    1 3d1-    1 3d1-    1 3d1-    1 3d1-    1 3d1-    1 3d1-
                                   1 3d1-    1 3d1-    1 3d1-    1 3d1-    1 3d1-    1 3d1-    1 3d1-    1 3d1-    1 3d1-    1 3d1-
                                   1 3d1-    1 3d1-    1 4f2-    1 4f2-    1 4f2-    1 4f2-    1 4f2-    1 4f2-    1 4f2-    1 4f2-
                                   1 4f2-    1 4f2-    1 4f2-    1 4f2-    1 4f2-    1 4f2-    1 5g1-    1 5g3-    1 5g1-    1 5g3-
                                   1 5g1-    1 5g3-    1 5g1-    1 5g3-    1 5g1-    1 5g3-    1 5g1-    1 5g3-    1 5g1-    1 5g3-
                                   1 5g1-    1 5g3-    1 5g1-    1 5g3-    1 6h4-    1 6h2-    1 6h4-    1 6h2-    1 6h4-    1 6h2-
                                   2 3d1-    2 3d1-    3 2pz     3 2pz     3 2pz     3 3d1-    3 3d1+    3 3d1-    3 3d1+

   1.4   +    -0.4008  -15.1064  0.000000 -0.000001  0.000003 -0.000017  0.000324  0.002950 -0.006131  0.002625  0.009036  0.001067
                                -0.000783 -0.005574  0.008443 -0.004909 -0.007889  0.024744 -0.070810 -0.006406  0.000683  0.000114
                                -0.000099  0.000036  0.000137 -0.001101  0.015971  0.262120  0.383587  0.376922  0.217078  0.062446
                                 0.026167 -0.019391  0.065787 -0.016014  0.014236 -0.005426  0.000015  0.000075 -0.000136  0.000163
                                 0.000162  0.000620 -0.000838  0.001090  0.003055  0.000332 -0.004471 -0.000027  0.000207 -0.000377
                                 0.009589 -0.000042 -0.001094 -0.000011 -0.000480 -0.000892 -0.000962 -0.001274 -0.001519 -0.002414
                                 0.000544  0.003892  0.003762  0.025478 -0.075852  0.001400  0.000046  0.006181  0.000472

   2.4   0    -0.0242   -6.4482 -0.000001  0.000005 -0.000021  0.000114 -0.002054 -0.018443  0.052206 -0.045740 -0.003003  0.248569
                                 0.004862  0.035354 -0.060250  0.021723  0.175940  0.185575  0.199563  0.145120  0.168610  0.104897
                                 0.024703  0.004349  0.000004 -0.000029  0.000416  0.006586  0.008988  0.008479  0.004019  0.001874
                                 0.001538  0.001219 -0.012786 -0.004094 -0.013851 -0.004872 -0.000021 -0.000016 -0.000074 -0.000001
                                -0.000157 -0.000195 -0.001907 -0.000761 -0.002385 -0.000976 -0.001720 -0.003003  0.007354 -0.003700
                                 0.004308 -0.002087  0.003800 -0.001908 -0.000006 -0.000019 -0.000036 -0.000035  0.000483  0.000174
                                 0.001887  0.006442 -0.016848 -0.055027 -0.060603 -0.002819 -0.002849  0.004390 -0.002481

   3.4   0     0.0104   -1.0558  0.000000 -0.000002  0.000009 -0.000049  0.000916  0.008370 -0.015459  0.002616  0.025025  0.053787
                                -0.002192 -0.015952  0.023099 -0.016033  0.002682 -0.063006  0.156537 -0.332324  0.469793 -0.634299
                                 0.869374 -1.451146  0.000000 -0.000003  0.000044  0.000746  0.001146  0.001060 -0.000058  0.000141
                                -0.000013  0.004782  0.004073  0.022284 -0.016466  0.024138 -0.000016 -0.000002  0.000041 -0.000002
                                -0.000164 -0.000020  0.000126 -0.000113 -0.001241 -0.000088  0.002797 -0.000472 -0.001944 -0.000142
                                 0.008740 -0.000615 -0.002253  0.000770 -0.000001 -0.000003 -0.000000  0.000002  0.000042 -0.000005
                                 0.000244  0.000329 -0.001605 -0.013755 -0.090262 -0.000325 -0.000342 -0.008041 -0.004984

 HOMO      7.1    -0.118468 =      -3.2237eV
 LUMO      4.2    -0.193829 =      -5.2743eV
 LUMO-HOMO        -0.075361 =      -2.0507eV


 **********************************************************************************************************************************
 DATASETS  * FILE   NREC   LENGTH (MB)   RECORD NAMES
              1      20       23.20       500      610      700      900      950      970     1000      129      960     1100
                                          VAR    BASINP    GEOM    SYMINP    ZMAT    AOBASIS   BASIS     P2S    ABASIS      S
                                         1400     1410     1420     1200     1210     1080     1600     1650     1700     1800
                                           T        V       ECP      H0       H01     AOSYM     SMH    MOLCAS    OPER     GRID

              2       5        5.00       700     1000      520     1800     2202
                                         GEOM     BASIS   MCVARS    GRID      RKS

 PROGRAMS   *        TOTAL       RKS       INT
 CPU TIMES  *       286.90     83.45    203.13
 REAL TIME  *       349.70 SEC
 DISK USED  *        28.57 GB
 SF USED    *         0.31 MB
 GA USED    *         0.28 MB       (max)       0.28 MB       (current)
 **********************************************************************************************************************************
   -->
   <time start="19:03:32" end="19:09:22" cpu="286.9" system="37.38" real="349.7"/>
   <storage units="megabyte" memory="8001.84" sf="0.31" df="433.19" eaf="28140.4" ga="0.28"/>
  </jobstep><!--
  --><jobstep command="RHF-SCF" commandset="SCFPRO">
   <!--


 PROGRAM * RHF-SCF (OPEN SHELL)       Authors: W. Meyer, H.-J. Werner


 NUMBER OF ELECTRONS:      14+    7-    SPACE SYMMETRY=4    SPIN SYMMETRY: Octet
 CONVERGENCE THRESHOLDS:    1.00E-05 (Density)    1.00E-07 (Energy)
 MAX. NUMBER OF ITERATIONS:      200
 INTERPOLATION TYPE:            DIIS
 INTERPOLATION STEPS:              2 (START)      1 (STEP)
 LEVEL SHIFTS:                 -0.60 (CLOSED) -0.30 (OPEN)

 Number of closed-shell orbitals:    7 (   5   1   1   0 )
 Number of open-shell orbitals:      7 (   2   2   2   1 )


 Molecular orbitals read from record     2202.2  Type=RKS/CANONICAL (state 1.4)

 Molecular orbital dump at record        3202.2

 ITERATION    DDIFF          GRAD             ENERGY        2-EL.EN.            DIPOLE MOMENTS         DIIS   ORB.
    1      0.000D+00      0.000D+00      -109.19546537    231.808594   -0.39436    0.00000    0.00000    0    start
    2      0.000D+00      0.482D-02      -109.22577538    228.079992   -0.34703    0.00000    0.00000    1    diag,B
    3      0.181D-01      0.283D-02      -109.23892576    229.541155   -0.39077    0.00000    0.00000    2    diag,B
    4      0.247D-01      0.923D-03      -109.25328305    228.752426   -0.36779    0.00000    0.00000    3    diag,B
    5      0.119D-01      0.113D-02      -109.25957589    228.566257   -0.35922    0.00000    0.00000    4    diag,B
    6      0.493D-02      0.116D-02      -109.21537171    229.072609   -0.42704    0.00000    0.00000    5    diag,B
    7      0.338D-01      0.162D-02      -109.20583141    228.919190   -0.41509    0.00000    0.00000    6    diag,B
    8      0.712D-02      0.195D-02      -109.21363265    228.786876   -0.42173    0.00000    0.00000    7    orth
    9      0.498D-02      0.198D-02      -109.21627431    228.713759   -0.42985    0.00000    0.00000    8    diag,B
   10      0.184D-02      0.203D-02      -109.21557685    228.537207   -0.39647    0.00000    0.00000    9    diag,B
   11      0.685D-02      0.201D-02      -109.21552326    228.519181   -0.39502    0.00000    0.00000    9    diag,B
   12      0.387D-03      0.202D-02      -109.21768226    228.604221   -0.40527    0.00000    0.00000    9    diag,B
   13      0.278D-02      0.200D-02      -109.22276930    228.086464   -0.42400    0.00000    0.00000    9    diag,B
   14      0.554D-02      0.240D-02      -109.21978738    228.661598   -0.38278    0.00000    0.00000    9    diag,B
   15      0.103D-01      0.200D-02      -109.21089726    228.614542   -0.43858    0.00000    0.00000    9    diag,B
   16      0.147D-01      0.222D-02      -109.23279609    228.494929   -0.38423    0.00000    0.00000    9    diag,B
   17      0.246D-01      0.154D-02      -109.23324775    228.681866   -0.38985    0.00000    0.00000    9    diag,B
   18      0.745D-03      0.142D-02      -109.22026019    228.600899   -0.38491    0.00000    0.00000    9    orth
   19      0.124D-01      0.156D-02      -109.21578399    228.162060   -0.36707    0.00000    0.00000    9    diag,B
   20      0.334D-01      0.137D-02      -109.21774546    228.267531   -0.35048    0.00000    0.00000    9    diag,B
   21      0.429D-02      0.121D-02      -109.22039667    228.135079   -0.36056    0.00000    0.00000    9    diag,B
   22      0.264D-01      0.879D-03      -109.22106618    227.930125   -0.34972    0.00000    0.00000    9    diag,B
   23      0.167D-02      0.963D-03      -109.22311823    227.757876   -0.36564    0.00000    0.00000    9    diag,B
   24      0.759D-02      0.106D-02      -109.22186016    227.860428   -0.36520    0.00000    0.00000    9    diag,B
   25      0.192D-02      0.104D-02      -109.21993851    227.265340   -0.32979    0.00000    0.00000    9    diag,B
   26      0.116D-01      0.162D-02      -109.22067372    227.435956   -0.39508    0.00000    0.00000    9    diag,B
   27      0.596D-02      0.143D-02      -109.22392158    227.974076   -0.32999    0.00000    0.00000    9    diag,B
   28      0.553D-02      0.836D-03      -109.23366295    227.122152   -0.35926    0.00000    0.00000    9    orth
   29      0.178D-01      0.993D-03      -109.23494960    227.008915   -0.33916    0.00000    0.00000    9    diag,B
   30      0.422D-02      0.980D-03      -109.23731387    226.863024   -0.32931    0.00000    0.00000    9    diag,B
   31      0.550D-02      0.943D-03      -109.24018801    226.727724   -0.32749    0.00000    0.00000    9    diag,B
   32      0.560D-02      0.891D-03      -109.24335604    226.652085   -0.33441    0.00000    0.00000    9    diag,B
   33      0.638D-02      0.801D-03      -109.24281506    226.694067   -0.33867    0.00000    0.00000    9    diag,B
   34      0.177D-02      0.803D-03      -109.24644833    226.394168   -0.32323    0.00000    0.00000    9    diag,B
   35      0.831D-02      0.818D-03      -109.24824990    226.318566   -0.33184    0.00000    0.00000    9    diag,B
   36      0.592D-02      0.828D-03      -109.24590346    226.400939   -0.32352    0.00000    0.00000    9    diag,B
   37      0.214D-01      0.677D-03      -109.24612161    226.375044   -0.31924    0.00000    0.00000    9    diag,B
   38      0.847D-02      0.715D-03      -109.22645895    227.782205   -0.33278    0.00000    0.00000    9    orth
   39      0.374D-01      0.687D-03      -109.21533568    228.198731   -0.34790    0.00000    0.00000    9    diag,B
   40      0.455D-01      0.119D-02      -109.22199768    227.860129   -0.30010    0.00000    0.00000    9    diag,B
   41      0.230D-01      0.104D-02      -109.22724489    227.701956   -0.28368    0.00000    0.00000    9    diag,B
   42      0.100D-01      0.982D-03      -109.22856726    227.706652   -0.30447    0.00000    0.00000    9    diag,B
   43      0.650D-02      0.828D-03      -109.22710575    228.210342   -0.35883    0.00000    0.00000    9    diag,B
   44      0.167D-01      0.623D-03      -109.22559167    228.236925   -0.38205    0.00000    0.00000    9    diag,B
   45      0.110D-01      0.476D-03      -109.21567949    228.165952   -0.37929    0.00000    0.00000    9    diag,B
   46      0.275D-01      0.119D-02      -109.21834315    228.171928   -0.38029    0.00000    0.00000    9    diag,B
   47      0.976D-02      0.974D-03      -109.22481119    228.018416   -0.37256    0.00000    0.00000    9    diag,B
   48      0.979D-02      0.830D-03      -109.22501528    227.881822   -0.37278    0.00000    0.00000    9    orth
   49      0.472D-02      0.852D-03      -109.21647175    228.198404   -0.38473    0.00000    0.00000    9    diag,B
   50      0.195D-01      0.108D-02      -109.22831002    227.705605   -0.36948    0.00000    0.00000    9    diag,B
   51      0.239D-01      0.860D-03      -109.22583014    227.838018   -0.37212    0.00000    0.00000    9    diag,B
   52      0.365D-02      0.854D-03      -109.22060231    228.083986   -0.37861    0.00000    0.00000    9    diag,B
   53      0.103D-01      0.912D-03      -109.22013185    228.092029   -0.38244    0.00000    0.00000    9    diag,B
   54      0.192D-02      0.944D-03      -109.22080805    228.144333   -0.37527    0.00000    0.00000    9    diag,B
   55      0.107D-01      0.941D-03      -109.21679001    228.125009   -0.38109    0.00000    0.00000    9    diag,B
   56      0.574D-02      0.115D-02      -109.22537485    227.898660   -0.39269    0.00000    0.00000    9    diag,B
   57      0.155D-01      0.859D-03      -109.23056426    227.509849   -0.39246    0.00000    0.00000    9    fixocc
   58      0.110D-01      0.881D-03      -109.21540337    228.221027   -0.39200    0.00000    0.00000    9    orth
   59      0.284D-01      0.115D-02      -109.23025042    227.573064   -0.37967    0.00000    0.00000    9    diag,B
   60      0.297D-01      0.851D-03      -109.22956428    227.638868   -0.37618    0.00000    0.00000    9    diag,B
   61      0.237D-02      0.833D-03      -109.21959011    228.147150   -0.39483    0.00000    0.00000    9    diag,B
   62      0.253D-01      0.100D-02      -109.21999455    228.129603   -0.38469    0.00000    0.00000    9    diag,B
   63      0.112D-01      0.928D-03      -109.21639116    228.170077   -0.38512    0.00000    0.00000    9    diag,B
   64      0.804D-02      0.111D-02      -109.22036706    228.022156   -0.38100    0.00000    0.00000    9    diag,B
   65      0.109D-01      0.957D-03      -109.21886465    228.085486   -0.37896    0.00000    0.00000    9    diag,B
   66      0.297D-02      0.997D-03      -109.22123667    227.953758   -0.38674    0.00000    0.00000    9    diag,B
   67      0.541D-02      0.953D-03      -109.22749591    227.839715   -0.39466    0.00000    0.00000    9    diag,B
   68      0.102D-01      0.738D-03      -109.23452964    227.343149   -0.41328    0.00000    0.00000    9    orth
   69      0.181D-01      0.777D-03      -109.23545835    227.430489   -0.44274    0.00000    0.00000    9    diag,B
   70      0.129D-01      0.655D-03      -109.23491467    227.554678   -0.46808    0.00000    0.00000    9    diag,B
[...]
                                -0.002361 -0.004027 -0.004513 -0.001055  0.017501  0.036870 -0.004874 -0.007117  0.000054  0.000132
                                 0.000064  0.000539  0.000322 -0.000020  0.002271  0.000845 -0.000224 -0.003297 -0.006244 -0.050369
                                 0.001593  0.001246 -0.002222 -0.023492 -0.094468 -0.350069  2.373651 -0.439645 -0.009250 -0.003158
                                -0.027897 -0.021888  0.287751  0.235214 -0.005111  0.003689  0.003815  0.008022  0.000533 -0.007651

   4.2   0    -0.0536   -8.9532  0.000000 -0.000000  0.000000 -0.000001  0.000002 -0.000002  0.000005 -0.000014  0.000058 -0.000540
                                -0.006126 -0.008808  0.001887 -0.059785  0.035160  0.204878  0.048437  1.816337 -0.256232  0.002214
                                 0.009004  0.018618 -0.040341  0.094194  0.141862  0.068810 -0.216971 -0.332662 -0.025483  0.004511
                                -0.000000  0.000002 -0.000008  0.000041 -0.000780 -0.007524  0.027609 -0.032028 -0.008174  0.128908
                                 0.001879  0.014794 -0.028256  0.019379  0.145897  0.143844 -0.417991 -0.009702  0.153526  0.049891
                                -0.005392  0.001832 -0.000067 -0.000013  0.000539  0.000108 -0.007727 -0.001559 -0.119403 -0.024295
                                -0.174783 -0.036045 -0.175939 -0.036494 -0.103768 -0.021179 -0.028260 -0.005507 -0.015273 -0.002518
                                 0.010188  0.007855 -0.089120 -0.009599 -0.029464 -0.001770  0.023440 -0.002297  0.000771  0.000187
                                 0.000001  0.000031 -0.000214 -0.000226  0.000250  0.000468 -0.002468 -0.002052 -0.002703 -0.000768
                                -0.002374 -0.007399 -0.000983  0.004510  0.011713  0.021716 -0.006485 -0.008559 -0.000019  0.000050
                                 0.000053  0.000069  0.000131 -0.000057 -0.000197  0.000039  0.001272  0.006490  0.011831 -0.006074
                                -0.001880 -0.003863  0.002617  0.029311  0.122060  0.283478  2.821268 -1.007812  0.000582 -0.007885
                                 0.007474 -0.021909  0.329095  0.204077 -0.003037  0.002330 -0.000908  0.004715  0.000259 -0.006569

   5.2   0     0.0049   -1.0283 -0.000000  0.000000 -0.000000  0.000000 -0.000000  0.000001 -0.000001  0.000003 -0.000014  0.000129
                                 0.001398  0.001920  0.012312  0.013629  0.022155  0.003023 -0.067238  2.132358 -1.183373 -0.000518
                                -0.002003 -0.009843 -0.013623 -0.013056 -0.016556  3.160890  1.950580 -3.919409 -2.462103  2.007149
                                 0.000000 -0.000000  0.000001 -0.000003  0.000050  0.000442  0.000171 -0.002125  0.004967  0.022040
                                -0.000120 -0.000833  0.000739 -0.001345  0.009483  0.026331 -0.544106 -0.091026  0.220515  0.054138
                                 0.040867 -0.124418 -0.000004 -0.000001  0.000030  0.000005 -0.000419 -0.000076 -0.006232 -0.001193
                                -0.008478 -0.001776 -0.008594 -0.001772 -0.007216 -0.000995 -0.001828 -0.000268 -0.001749 -0.000119
                                 0.010841  0.000236 -0.062887 -0.001207 -0.021580 -0.000444  0.035195 -0.001574 -0.005761  0.000023
                                 0.000003  0.000014 -0.000025 -0.000070  0.000054  0.000172 -0.000331 -0.000663  0.000289  0.001337
                                -0.002037 -0.006576  0.005295  0.007862  0.009926 -0.002620 -0.006145 -0.008513  0.000000  0.000003
                                 0.000001  0.000007  0.000011  0.000007 -0.000007  0.000004  0.000085  0.000683  0.005691  0.078045
                                -0.000209 -0.005767  0.000169  0.001941  0.007446 -0.003325  2.815441 -2.342486  0.001472 -0.000039
                                -0.003133 -0.008310  0.524337  0.236936  0.000132 -0.000038 -0.000373 -0.003173 -0.001536 -0.002970

                                   1 2pz     1 2pz     1 2pz     1 2pz     1 2pz     1 2pz     1 2pz     1 2pz     1 2pz     1 2pz
                                   1 2pz     1 2pz     1 2pz     1 2pz     1 2pz     1 2pz     1 2pz     1 2pz     1 2pz     1 2pz
                                   1 2pz     1 2pz     1 2pz     1 2pz     1 2pz     1 2pz     1 2pz     1 2pz     1 2pz     1 2pz
                                   1 3d1+    1 3d1+    1 3d1+    1 3d1+    1 3d1+    1 3d1+    1 3d1+    1 3d1+    1 3d1+    1 3d1+
                                   1 3d1+    1 3d1+    1 3d1+    1 3d1+    1 3d1+    1 3d1+    1 3d1+    1 3d1+    1 3d1+    1 3d1+
                                   1 3d1+    1 3d1+    1 4f0     1 4f2+    1 4f0     1 4f2+    1 4f0     1 4f2+    1 4f0     1 4f2+
                                   1 4f0     1 4f2+    1 4f0     1 4f2+    1 4f0     1 4f2+    1 4f0     1 4f2+    1 4f0     1 4f2+
                                   1 4f0     1 4f2+    1 4f0     1 4f2+    1 4f0     1 4f2+    1 4f0     1 4f2+    1 4f0     1 4f2+
                                   1 5g1+    1 5g3+    1 5g1+    1 5g3+    1 5g1+    1 5g3+    1 5g1+    1 5g3+    1 5g1+    1 5g3+
                                   1 5g1+    1 5g3+    1 5g1+    1 5g3+    1 5g1+    1 5g3+    1 5g1+    1 5g3+    1 6h2+    1 6h4+
                                   1 6h0     1 6h2+    1 6h4+    1 6h0     1 6h2+    1 6h4+    1 6h0     2 2pz     2 2pz     2 2pz
                                   2 3d1+    2 3d1+    3 2pz     3 2pz     3 2pz     3 3d1+    3 3d1-    3 3d1+    3 3d1-

   1.3   2    -1.1445  -12.6581 -0.000000  0.000000 -0.000001  0.000002 -0.000002  0.000003 -0.000007  0.000019 -0.000079  0.000742
                                 0.008532  0.012075 -0.101669  0.089912 -0.178142 -0.344283 -0.082900 -0.017120  0.003469 -0.003061
                                -0.012591  0.022172  0.203505 -0.176349 -0.387339 -0.002463 -0.008377  0.006006  0.000678 -0.000124
                                 0.000000 -0.000000  0.000000 -0.000000  0.000008  0.000065 -0.000568  0.001282 -0.001926 -0.001824
                                -0.000019 -0.000136  0.000431 -0.000063 -0.004831 -0.000277  0.000941 -0.000933  0.000427 -0.000162
                                 0.000069 -0.000020 -0.000000  0.000001  0.000001 -0.000010 -0.000013  0.000147 -0.000028  0.002604
                                 0.000435  0.004706  0.000287  0.006011  0.001012  0.005351 -0.000256  0.000166 -0.000829 -0.000915
                                -0.006364 -0.000488 -0.003535  0.001382 -0.000697 -0.000490 -0.000151  0.000314  0.000021 -0.000098
                                 0.000047 -0.000014  0.000071 -0.000085  0.000347 -0.000033  0.000743 -0.001035  0.000409 -0.001883
                                 0.000796  0.000854  0.000205  0.000072 -0.000010  0.000092  0.000069  0.000005 -0.000029  0.000018
                                 0.000002 -0.000146  0.000041  0.000063 -0.000385  0.000586  0.000239 -0.003290 -0.002549 -0.000477
                                 0.001279 -0.000245 -0.005139 -0.007656 -0.001787 -0.001140 -0.002077 -0.000952 -0.001135

   2.3   +    -0.7007  -15.4499  0.000000 -0.000000  0.000000 -0.000000  0.000000 -0.000000  0.000000 -0.000001  0.000004 -0.000037
                                -0.000436 -0.000719 -0.005332 -0.000531 -0.015665 -0.008011 -0.044219  0.110230  0.002629  0.000154
                                 0.000668  0.004319  0.000982  0.011648  0.014356 -0.000239 -0.002720  0.001005  0.000032 -0.000003
                                 0.000000 -0.000001  0.000002 -0.000013  0.000243  0.002227 -0.004885  0.002884  0.004402 -0.003279
                                -0.000581 -0.004212  0.006419 -0.005121 -0.010245  0.013436 -0.042416 -0.004144  0.000554  0.000021
                                -0.000043  0.000016 -0.000104 -0.000103  0.000838  0.000834 -0.012011 -0.011961 -0.186030 -0.185332
                                -0.272478 -0.271793 -0.267142 -0.267311 -0.148477 -0.147668 -0.043374 -0.043019 -0.022276 -0.021927
                                 0.017687  0.016720 -0.048076 -0.038151  0.004041  0.010554 -0.006855 -0.008488  0.002648  0.003147
                                -0.000033 -0.000052 -0.000121 -0.000199 -0.000109 -0.000116 -0.000873 -0.001357  0.001591  0.002748
                                -0.002751 -0.004787  0.000389 -0.000731  0.005721  0.011454 -0.000601 -0.001143  0.000116  0.000278
                                -0.000021  0.000347  0.000597  0.000202  0.001480  0.000414  0.001509 -0.000487 -0.001391 -0.006614
                                 0.000149  0.000278  0.002542  0.024361 -0.088845  0.000844  0.000818  0.006134  0.002546

   3.3   +    -0.6374  -15.3423 -0.000000  0.000000 -0.000000  0.000000 -0.000000  0.000000 -0.000000  0.000001 -0.000005  0.000046
                                 0.000509  0.000627  0.003051  0.007583  0.013607 -0.003664  0.035960 -0.114428 -0.003598 -0.000187
                                -0.000714 -0.002879 -0.004346 -0.006657 -0.017814  0.000493  0.003743 -0.001681 -0.000099  0.000015
                                 0.000000 -0.000001  0.000003 -0.000018  0.000333  0.003062 -0.007048  0.006116  0.001916 -0.015054
                                -0.000796 -0.005675  0.008617 -0.009623 -0.023087  0.009789 -0.044649 -0.006238  0.001506 -0.000269
                                 0.000074 -0.000017  0.000103 -0.000103 -0.000831  0.000830  0.011922 -0.011924  0.184583 -0.184749
                                 0.270900 -0.271616  0.266787 -0.268536  0.151652 -0.151717  0.042447 -0.042206  0.020900 -0.020428
                                -0.015107  0.013298  0.050374 -0.041355 -0.004204  0.010402  0.007206 -0.008896 -0.002790  0.003313
                                 0.000157 -0.000149  0.000220 -0.000148  0.001337 -0.001408  0.001397 -0.000969  0.003036 -0.004293
                                -0.002102  0.004450 -0.000045  0.000943  0.006012 -0.011730 -0.000595  0.001165 -0.000239  0.000346
                                 0.000292 -0.000461  0.000855  0.000292  0.000375  0.001091 -0.001051 -0.002167 -0.020779  0.086727
                                 0.000608  0.004264 -0.000234 -0.007453  0.034577  0.000267 -0.000403  0.002244 -0.003527

   4.3   0     0.0051   -1.0874 -0.000000  0.000000 -0.000000  0.000001 -0.000001  0.000002 -0.000004  0.000011 -0.000046  0.000425
                                 0.004657  0.006477  0.037320  0.049711  0.124159  0.073754 -0.147811  0.256248 -0.757894 -0.001717
                                -0.006709 -0.031405 -0.039850 -0.062236 -0.145958  2.826947  2.165277 -3.000015 -2.296719  1.927299
                                 0.000000 -0.000000  0.000001 -0.000007  0.000132  0.001199 -0.002619  0.001320  0.002365  0.000093
                                -0.000314 -0.002288  0.003509 -0.002129 -0.003907 -0.008956  0.013644 -0.030087  0.033842 -0.058157
                                 0.073221 -0.145080 -0.000000  0.000000  0.000003 -0.000000 -0.000046  0.000000 -0.000675 -0.000003
                                -0.000897 -0.000020 -0.000814  0.000031 -0.000094  0.000107 -0.000197  0.000008 -0.000217  0.000022
                                 0.002567 -0.000683  0.003479 -0.000742  0.002891 -0.000867  0.003129 -0.001291 -0.011690  0.000195
                                -0.000000  0.000005  0.000001 -0.000020 -0.000005  0.000051  0.000015 -0.000136 -0.000027  0.000297
                                 0.000112 -0.001140 -0.000044  0.001027 -0.000206 -0.001402  0.000833 -0.000242 -0.000000 -0.000000
                                -0.000002 -0.000000 -0.000001  0.000004  0.000006  0.000017  0.000007 -0.000063  0.002377  0.010670
                                 0.000062 -0.002368  0.000202  0.003294  0.014646 -0.000032 -0.000041  0.000705  0.001968

   5.3   0     0.0116   -0.9177 -0.000000  0.000000 -0.000000  0.000000 -0.000000  0.000001 -0.000001  0.000004 -0.000015  0.000140
                                 0.001523  0.002099  0.015533  0.017005  0.049013  0.036769 -0.054538  0.070969 -0.335439 -0.000564
                                -0.002182 -0.011735 -0.019462 -0.018314 -0.043754  1.115463  0.862677 -1.236514 -0.947395  0.516601
                                -0.000001  0.000003 -0.000014  0.000075 -0.001383 -0.012584  0.026113 -0.010368 -0.029251 -0.022762
                                 0.003302  0.024005 -0.036181  0.022048  0.025418  0.098775 -0.153923  0.375284 -0.486623  0.669431
                                -1.134724  1.604172  0.000000 -0.000000 -0.000001  0.000001  0.000011 -0.000010  0.000187 -0.000146
                                 0.000309 -0.000184  0.000277 -0.000177 -0.000160 -0.000277  0.000021 -0.000047 -0.000029 -0.000063
                                 0.001146  0.003679  0.000772  0.007238  0.008769  0.009962 -0.008475  0.003014  0.013619 -0.012824
                                 0.000009  0.000002 -0.000036 -0.000010  0.000103  0.000026 -0.000267 -0.000080  0.000638  0.000183
                                -0.002293 -0.000779  0.001290  0.000449 -0.004627 -0.002632 -0.001829 -0.000192 -0.000001  0.000002
                                -0.000000  0.000005 -0.000004  0.000002 -0.000033  0.000027 -0.000018  0.000471 -0.004521 -0.039687
                                -0.000089  0.005517 -0.000528  0.004730  0.056153 -0.000009 -0.000045  0.003865  0.005525

                                   1 3d1-    1 3d1-    1 3d1-    1 3d1-    1 3d1-    1 3d1-    1 3d1-    1 3d1-    1 3d1-    1 3d1-
                                   1 3d1-    1 3d1-    1 3d1-    1 3d1-    1 3d1-    1 3d1-    1 3d1-    1 3d1-    1 3d1-    1 3d1-
                                   1 3d1-    1 3d1-    1 4f2-    1 4f2-    1 4f2-    1 4f2-    1 4f2-    1 4f2-    1 4f2-    1 4f2-
                                   1 4f2-    1 4f2-    1 4f2-    1 4f2-    1 4f2-    1 4f2-    1 5g1-    1 5g3-    1 5g1-    1 5g3-
                                   1 5g1-    1 5g3-    1 5g1-    1 5g3-    1 5g1-    1 5g3-    1 5g1-    1 5g3-    1 5g1-    1 5g3-
                                   1 5g1-    1 5g3-    1 5g1-    1 5g3-    1 6h4-    1 6h2-    1 6h4-    1 6h2-    1 6h4-    1 6h2-
                                   2 3d1-    2 3d1-    3 2pz     3 2pz     3 2pz     3 3d1-    3 3d1+    3 3d1-    3 3d1+

   1.4   +    -0.6691  -15.4226  0.000000 -0.000001  0.000003 -0.000013  0.000248  0.002254 -0.004602  0.000573  0.009367  0.007693
                                -0.000595 -0.004410  0.006814 -0.002246  0.000642  0.024531 -0.061145 -0.005683  0.000825  0.000011
                                -0.000044  0.000018  0.000146 -0.001178  0.016918  0.262171  0.385140  0.380275  0.211646  0.060237
                                 0.029724 -0.024384  0.055830 -0.015498  0.012468 -0.004624  0.000053  0.000163 -0.000003  0.000297
                                 0.000441  0.001211 -0.000483  0.002079  0.002937  0.001243 -0.004191  0.000438  0.000125 -0.000096
                                 0.008364  0.000021 -0.000922 -0.000008 -0.000289 -0.000058 -0.000672 -0.000277 -0.001328 -0.001694
                                -0.000053  0.003347  0.002158  0.021631 -0.067116  0.001028  0.000112  0.005677  0.000302

   2.4   0     0.0115   -0.9153  0.000001 -0.000003  0.000014 -0.000073  0.001355  0.012327 -0.025598  0.010205  0.028483  0.021343
                                -0.003235 -0.023513  0.035448 -0.021548 -0.025005 -0.100547  0.147347 -0.388346  0.498647 -0.681890
                                 1.157188 -1.631529 -0.000000  0.000000 -0.000004  0.000005  0.000169  0.000134 -0.000596 -0.000090
                                -0.000237  0.004906  0.005519  0.022685 -0.015344  0.017956 -0.000010  0.000000  0.000041 -0.000000
                                -0.000112  0.000003  0.000311  0.000008 -0.000711  0.000022  0.002639  0.000025 -0.001578  0.000058
                                 0.006372  0.000012  0.001878  0.000093 -0.000001 -0.000002  0.000005  0.000006 -0.000036 -0.000037
                                -0.000020 -0.000214  0.000753 -0.006970 -0.083694  0.000110  0.000083 -0.008689 -0.004839

   3.4   0     0.0326   -1.4130 -0.000001  0.000007 -0.000029  0.000157 -0.002902 -0.026374  0.052946 -0.017475 -0.066475 -0.080699
                                 0.006927  0.050296 -0.074968  0.046272  0.034856  0.195722 -0.368995  0.823491 -1.160332  1.584262
                                -2.905675  1.454654 -0.000000  0.000001 -0.000011 -0.000144 -0.000151 -0.000206 -0.000008 -0.000074
                                -0.000094 -0.007480 -0.016607 -0.016225 -0.014308  0.058727  0.000030  0.000002 -0.000097  0.000001
                                 0.000306  0.000015 -0.000646  0.000065  0.002168  0.000135 -0.006053  0.000220  0.005625  0.000280
                                -0.015655  0.000231  0.008396  0.000407  0.000000  0.000002 -0.000005 -0.000013 -0.000051  0.000002
                                -0.000164  0.000964  0.000496  0.019192  0.147088  0.000100  0.000206  0.015543  0.008207

 HOMO      7.1    -0.307736 =      -8.3739eV
 LUMO      4.2    -0.053565 =      -1.4576eV
 LUMO-HOMO         0.254170 =       6.9163eV

 No convergence



 **********************************************************************************************************************************
 DATASETS  * FILE   NREC   LENGTH (MB)   RECORD NAMES
              1      20       23.20       500      610      700      900      950      970     1000      129      960     1100
                                          VAR    BASINP    GEOM    SYMINP    ZMAT    AOBASIS   BASIS     P2S    ABASIS      S
                                         1400     1410     1420     1200     1210     1080     1600     1650     1700     1800
                                           T        V       ECP      H0       H01     AOSYM     SMH    MOLCAS    OPER     GRID

              2       6       10.57       700     1000      520     1800     2202     3202
                                         GEOM     BASIS   MCVARS    GRID      RKS      RHF

 PROGRAMS   *        TOTAL       RHF       RKS       INT
 CPU TIMES  *       430.63    143.73     83.45    203.13
 REAL TIME  *       509.47 SEC
 DISK USED  *        28.63 GB
 SF USED    *         0.31 MB
 GA USED    *         0.28 MB       (max)       0.28 MB       (current)
 **********************************************************************************************************************************
   -->
   <time start="19:09:22" end="19:12:01" cpu="143.73" system="15.9" real="159.77"/>
   <storage units="megabyte" memory="8001.84" sf="0.31" df="494.44" eaf="28140.4" ga="0.28"/>
  </jobstep><!--
 SETTING SCF            =      -109.16671127  AU
 SETTING _CC_NORM_MAX   =         2.00000000
  --><jobstep command="RCCSD(T)" commandset="CCSD">
   <!--


 PROGRAM * CCSD (Restricted open-shell coupled cluster)     Authors: C. Hampel, H.-J. Werner, 1991, M. Deegan, P.J. Knowles, 1992


 Convergence thresholds:  THRVAR = 1.00D-08  THRDEN = 1.00D-06

 CCSD(T)     terms to be evaluated (factor= 1.000)


 Number of closed-shell orbitals:   7 (   5   1   1   0 )
 Number of active  orbitals:        7 (   2   2   2   1 )
 Number of external orbitals:     505 ( 194 127 116  68 )

 Memory could be reduced to 719.03 Mwords without degradation in triples

 Number of N-1 electron functions:              21
 Number of N-2 electron functions:             210
 Number of singly external CSFs:              3409
 Number of doubly external CSFs:          10408396
 Total number of CSFs:                    10411805

 Molecular orbitals read from record     3202.2  Type=RHF/CANONICAL (state 1.4)

 ?Error: RHF not converged. This error exit can be avoided using the IGNORE_ERROR option on the ORBITAL directive
   --><error/><!--
  --></jobstep><!--
  -->
  <input>
  <!--
 --></job><!--
--></molpro>
