<?xml version="1.0"?>
<molpro xmlns="http://www.molpro.net/schema/molpro-output"
  xmlns:xsd="http://www.w3.org/1999/XMLSchema"
  xmlns:cml="http://www.xml-cml.org/schema"
  xmlns:stm="http://www.xml-cml.org/schema"
  xmlns:xhtml="http://www.w3.org/1999/xhtml">
 <!--

 Nodes     nprocs
 nid02008    11
 Number of processes for MPI-2 version of Molpro:   nprocs(total)=   12   nprocs(compute)=   11   nprocs(helper)=    1

 Using customized tuning parameters: mindgm=7; mindgv=16; mindgc=1; mindgr=1; noblas=0; minvec=7
 default implementation of scratch files=sf

 --><job>
  <!--

 Variables initialized (889), CPU time= 0.02 sec
 Commands  initialized (702), CPU time= 0.01 sec, 572 directives.
 Default parameters read. Elapsed time= 0.11 sec

 Checking input...
 Passed
1


                                         ***  PROGRAM SYSTEM MOLPRO  ***
                                       Copyright, TTI GmbH Stuttgart, 2015
                                    Version 2015.1 linked Dec 29 2018 15:55:43


 **********************************************************************************************************************************
 LABEL *   Calculation for Lu atom, singlet and triplet
  64 bit mpp version                                                                     DATE: 31-Mar-23          TIME: 18:09:01
 **********************************************************************************************************************************

 SHA1:             19cd028119e0e09f93f0674bd8af7968d9b3eff6
 **********************************************************************************************************************************
  -->
  <!--

 THRESHOLDS:

 ZERO    =  1.00D-12  ONEINT  =  1.00D-12  TWOINT  =  1.00D-15  PREFAC  =  1.00D-14  LOCALI  =  1.00D-09  EORDER  =  1.00D-04
 ENERGY  =  0.00D+00  ETEST   =  0.00D+00  EDENS   =  0.00D+00  THRDEDEF=  1.00D-06  GRADIENT=  1.00D-02  STEP    =  1.00D-03
 ORBITAL =  1.00D-05  CIVEC   =  1.00D-05  COEFF   =  1.00D-04  PRINTCI =  5.00D-02  PUNCHCI =  9.90D+01  OPTGRAD =  3.00D-04
 OPTENERG=  1.00D-06  OPTSTEP =  3.00D-04  THRGRAD =  1.00D-10  COMPRESS=  1.00D-11  VARMIN  =  1.00D-07  VARMAX  =  1.00D-03
 THRDOUB =  0.00D+00  THRDIV  =  1.00D-05  THRRED  =  1.00D-07  THRPSP  =  1.00D+00  THRDC   =  1.00D-10  THRCS   =  1.00D-10
 THRNRM  =  1.00D-08  THREQ   =  0.00D+00  THRDE   =  1.00D+00  THRREF  =  1.00D-05  SPARFAC =  1.00D+00  THRDLP  =  1.00D-07
 THRDIA  =  1.00D-10  THRDLS  =  1.00D-07  THRGPS  =  0.00D+00  THRKEX  =  0.00D+00  THRDIS  =  2.00D-01  THRVAR  =  1.00D-10
 THRLOC  =  1.00D-06  THRGAP  =  1.00D-06  THRLOCT = -1.00D+00  THRGAPT = -1.00D+00  THRORB  =  1.00D-06  THRMLTP =  0.00D+00
 THRCPQCI=  1.00D-10  KEXTA   =  0.00D+00  THRCOARS=  0.00D+00  SYMTOL  =  1.00D-06  GRADTOL =  1.00D-06  THROVL  =  1.00D-08
 THRORTH =  1.00D-08  GRID    =  1.00D-06  GRIDMAX =  1.00D-03  DTMAX   =  0.00D+00  THROCCDE=  1.00D-01  THROCCDE=  1.00D-01



 THRESHOLDS:

 ZERO    =  1.00D-12  ONEINT  =  1.00D-15  TWOINT  =  1.00D-15  PREFAC  =  1.00D-14  LOCALI  =  1.00D-09  EORDER  =  1.00D-04
 ENERGY  =  0.00D+00  ETEST   =  0.00D+00  EDENS   =  0.00D+00  THRDEDEF=  1.00D-06  GRADIENT=  1.00D-02  STEP    =  1.00D-03
 ORBITAL =  1.00D-05  CIVEC   =  1.00D-05  COEFF   =  1.00D-04  PRINTCI =  5.00D-02  PUNCHCI =  9.90D+01  OPTGRAD =  3.00D-04
 OPTENERG=  1.00D-06  OPTSTEP =  3.00D-04  THRGRAD =  1.00D-10  COMPRESS=  1.00D-11  VARMIN  =  1.00D-07  VARMAX  =  1.00D-03
 THRDOUB =  0.00D+00  THRDIV  =  1.00D-05  THRRED  =  1.00D-07  THRPSP  =  1.00D+00  THRDC   =  1.00D-10  THRCS   =  1.00D-10
 THRNRM  =  1.00D-08  THREQ   =  0.00D+00  THRDE   =  1.00D+00  THRREF  =  1.00D-05  SPARFAC =  1.00D+00  THRDLP  =  1.00D-07
 THRDIA  =  1.00D-10  THRDLS  =  1.00D-07  THRGPS  =  0.00D+00  THRKEX  =  0.00D+00  THRDIS  =  2.00D-01  THRVAR  =  1.00D-10
 THRLOC  =  1.00D-06  THRGAP  =  1.00D-06  THRLOCT = -1.00D+00  THRGAPT = -1.00D+00  THRORB  =  1.00D-06  THRMLTP =  0.00D+00
 THRCPQCI=  1.00D-10  KEXTA   =  0.00D+00  THRCOARS=  0.00D+00  SYMTOL  =  1.00D-06  GRADTOL =  1.00D-06  THROVL  =  1.00D-08
 THRORTH =  1.00D-08  GRID    =  1.00D-06  GRIDMAX =  1.00D-03  DTMAX   =  0.00D+00  THROCCDE=  1.00D-01  THROCCDE=  1.00D-01



Geometry recognized as XYZ


 Variable memory set to 1000000000 words,  buffer space   230000 words

 SETTING BASIS          =    USERDEF

 DO I                   =         3.00000000

 Running procedure=IED2S1
  --><jobstep command="RHF-SCF" commandset="SCFPRO">
   <!--


 Recomputing integrals since basis changed


 Using spherical harmonics



 PROGRAM * SEWARD (Integral evaluation for generally contracted gaussian basis sets)     Author: Roland Lindh, 1990

 Geometry written to block  1 of record 700

 Orientation using atomic masses
 Molecule type: Atom
 Symmetry elements: X,Y,Z
 Rotational constants:       0.0000000      0.0000000      0.0000000 GHz  (calculated with average atomic masses)

 Point group  D2h


   --><cml:molecule>
    <cml:symmetry pointGroup="D2h"/>
    <cml:atomArray>
     <cml:atom id="a1" elementType="Lu" x3="0.0" y3="0.0" z3="0.0"/>
    </cml:atomArray>
    <cml:bondArray>
    </cml:bondArray>
   </cml:molecule><!--

 ATOMIC COORDINATES

 NR  ATOM    CHARGE       X              Y              Z

   1  LU     25.00    0.000000000    0.000000000    0.000000000

 NUCLEAR CHARGE:                   25
 NUMBER OF PRIMITIVE AOS:         581
 NUMBER OF SYMMETRY AOS:          442
 NUMBER OF CONTRACTIONS:          442   ( 103Ag  +  70B3u +  70B2u +  36B1g +  70B1u +  36B2g +  36B3g +  21Au  )
 NUMBER OF CORE ORBITALS:           0   (   0Ag  +   0B3u +   0B2u +   0B1g +   0B1u +   0B2g +   0B3g +   0Au  )
 NUMBER OF VALENCE ORBITALS:       17   (   4Ag  +   3B3u +   3B2u +   1B1g +   3B1u +   1B2g +   1B3g +   1Au  )


 NUCLEAR REPULSION ENERGY    0.00000000

 EXTRA SYMMETRY OF AOS IN SYMMETRY 1:   1 1 1 1 1 1 1 1 1 1   1 1 1 1 1 1 1 1 1 1   1 1 1 1 1 1 1 1 1 1   1 1 1 1 1 1 1 1 2 3
                                        2 3 2 3 2 3 2 3 2 3   2 3 2 3 2 3 2 3 2 3   2 3 2 3 2 3 2 3 2 3   2 3 2 3 2 3 2 3 2 3
                                        2 3 4 5 6 4 5 6 4 5   6 4 5 6 4 5 6 4 5 6   4 5 6
 EXTRA SYMMETRY OF AOS IN SYMMETRY 2:   1 1 1 1 1 1 1 1 1 1   1 1 1 1 1 1 1 1 1 1   1 1 1 1 1 1 1 1 1 1   1 2 3 2 3 2 3 2 3 2
                                        3 2 3 2 3 2 3 2 3 2   3 2 3 2 3 2 3 2 3 2   3 4 5 6 4 5 6 4 5 6
 EXTRA SYMMETRY OF AOS IN SYMMETRY 3:   1 1 1 1 1 1 1 1 1 1   1 1 1 1 1 1 1 1 1 1   1 1 1 1 1 1 1 1 1 1   1 2 3 2 3 2 3 2 3 2
                                        3 2 3 2 3 2 3 2 3 2   3 2 3 2 3 2 3 2 3 2   3 4 5 6 4 5 6 4 5 6
 EXTRA SYMMETRY OF AOS IN SYMMETRY 4:   1 1 1 1 1 1 1 1 1 1   1 1 1 1 1 1 1 1 1 1   1 1 2 3 2 3 2 3 2 3   2 3 2 3 2 3
 EXTRA SYMMETRY OF AOS IN SYMMETRY 5:   1 1 1 1 1 1 1 1 1 1   1 1 1 1 1 1 1 1 1 1   1 1 1 1 1 1 1 1 1 1   1 2 3 2 3 2 3 2 3 2
                                        3 2 3 2 3 2 3 2 3 2   3 2 3 2 3 2 3 2 3 2   3 4 5 6 4 5 6 4 5 6
 EXTRA SYMMETRY OF AOS IN SYMMETRY 6:   1 1 1 1 1 1 1 1 1 1   1 1 1 1 1 1 1 1 1 1   1 1 2 3 2 3 2 3 2 3   2 3 2 3 2 3
 EXTRA SYMMETRY OF AOS IN SYMMETRY 7:   1 1 1 1 1 1 1 1 1 1   1 1 1 1 1 1 1 1 1 1   1 1 2 3 2 3 2 3 2 3   2 3 2 3 2 3
 EXTRA SYMMETRY OF AOS IN SYMMETRY 8:   1 1 1 1 1 1 1 1 1 1   1 1 1 1 1 2 3 2 3 2   3

 Eigenvalues of metric

         1 0.333E-06 0.964E-06 0.340E-05 0.186E-04 0.475E-04 0.703E-04 0.799E-04 0.799E-04
         2 0.960E-06 0.179E-05 0.251E-04 0.110E-03 0.525E-03 0.525E-03 0.534E-03 0.156E-02
         3 0.960E-06 0.179E-05 0.251E-04 0.110E-03 0.525E-03 0.525E-03 0.534E-03 0.156E-02
         4 0.799E-04 0.144E-03 0.223E-02 0.632E-02 0.897E-02 0.238E-01 0.240E-01 0.240E-01
         5 0.960E-06 0.179E-05 0.251E-04 0.110E-03 0.525E-03 0.525E-03 0.534E-03 0.156E-02
         6 0.799E-04 0.144E-03 0.223E-02 0.632E-02 0.897E-02 0.238E-01 0.240E-01 0.240E-01
         7 0.799E-04 0.144E-03 0.223E-02 0.632E-02 0.897E-02 0.238E-01 0.240E-01 0.240E-01
         8 0.525E-03 0.142E-01 0.219E-01 0.528E-01 0.103E+00 0.167E+00 0.268E+00 0.268E+00


 Contracted 2-electron integrals neglected if value below      1.0D-15
 AO integral compression algorithm  1   Integral accuracy      1.0D-15

     3531.604 MB (compressed) written to integral file ( 42.0%)

     Node minimum: 157.549 MB, node maximum: 422.052 MB


 NUMBER OF SORTED TWO-ELECTRON INTEGRALS:   55639389.     BUFFER LENGTH:  32768
 NUMBER OF SEGMENTS:   2  SEGMENT LENGTH:   31979349      RECORD LENGTH: 524288

 Memory used in sort:      32.54 MW

 SORT1 READ  1050599776. AND WROTE    32247914. INTEGRALS IN     93 RECORDS. CPU TIME:    27.40 SEC, REAL TIME:    32.38 SEC
 SORT2 READ   352987961. AND WROTE   613618504. INTEGRALS IN  14751 RECORDS. CPU TIME:     2.69 SEC, REAL TIME:     5.33 SEC

 Node minimum:    55639389.  Node maximum:    55868715. integrals

 OPERATOR DM      FOR CENTER  0  COORDINATES:    0.000000    0.000000    0.000000


 **********************************************************************************************************************************
 DATASETS  * FILE   NREC   LENGTH (MB)   RECORD NAMES
              1      19       21.26       500      610      700      900      950      970     1000      129      960     1100
                                          VAR    BASINP    GEOM    SYMINP    ZMAT    AOBASIS   BASIS     P2S    ABASIS      S
                                         1400     1410     1420     1200     1210     1080     1600     1650     1700
                                           T        V       ECP      H0       H01     AOSYM     SMH    MOLCAS    OPER

 PROGRAMS   *        TOTAL       INT
 CPU TIMES  *       160.58    160.18
 REAL TIME  *       170.76 SEC
 DISK USED  *         7.80 GB
 GA USED    *         0.00 MB       (max)       0.00 MB       (current)
 **********************************************************************************************************************************


 PROGRAM * RHF-SCF (OPEN SHELL)       Authors: W. Meyer, H.-J. Werner


 NUMBER OF ELECTRONS:      14+   11-    SPACE SYMMETRY=1    SPIN SYMMETRY: Quartet
 CONVERGENCE THRESHOLDS:    1.00E-05 (Density)    1.00E-07 (Energy)
 MAX. NUMBER OF ITERATIONS:       60
 INTERPOLATION TYPE:            DIIS
 INTERPOLATION STEPS:              2 (START)      1 (STEP)
 LEVEL SHIFTS:                 -0.60 (CLOSED) -0.30 (OPEN)

 Number of closed-shell orbitals:   11 (   1   3   3   0   3   0   0   1 )
 Number of open-shell orbitals:      3 (   3   0   0   0   0   0   0   0 )



 Extra symmetries of mos in symmetry 1:   1   1   3   2
 Guess basis ATOMIC-GUESS,LU=ECP46_GUESS not found. No density guess!


 Molecular orbital dump at record        4202.2

 ITERATION    DDIFF          GRAD             ENERGY        2-EL.EN.            DIPOLE MOMENTS         DIIS   ORB.
    1      0.000D+00      0.000D+00      -139.79828747    509.163573    0.00000    0.00000    0.00000    0    start
    2      0.000D+00      0.311D+00       -97.28321706     47.241013    0.00000    0.00000    0.00000    0    diag,B
    3      0.784D+02      0.201D+00      -147.69194339    491.548095    0.00000    0.00000    0.00000    1    diag,B
    4      0.784D+02      0.283D+00      -170.40325732    426.867251    0.00000    0.00000    0.00000    2    diag,B
    5      0.318D+00      0.148D+00      -179.65226393    375.543361    0.00000    0.00000    0.00000    3    diag,B
    6      0.167D+00      0.600D-01      -182.05927527    332.473740    0.00000    0.00000    0.00000    4    diag,B
    7      0.640D-01      0.102D-01      -182.16142661    323.819300    0.00000    0.00000    0.00000    5    fixocc
    8      0.150D-01      0.109D-01      -182.21392688    324.749837    0.00000    0.00000    0.00000    6    diag,B
    9      0.814D-02      0.528D-02      -182.23139847    325.712825    0.00000    0.00000    0.00000    7    diag,B
   10      0.585D-02      0.522D-03      -182.23237041    325.930817    0.00000    0.00000    0.00000    8    orth
   11      0.202D-02      0.213D-03      -182.23271168    325.690445    0.00000    0.00000    0.00000    9    diag,B
   12      0.158D-02      0.163D-03      -182.23300006    325.638237    0.00000    0.00000    0.00000    9    diag,B
   13      0.534D-03      0.139D-03      -182.23315151    325.592417    0.00000    0.00000    0.00000    9    diag,B
   14      0.443D-03      0.138D-03      -182.23332833    325.598416    0.00000    0.00000    0.00000    9    diag,B
   15      0.487D-03      0.139D-03      -182.23254227    325.586653    0.00000    0.00000    0.00000    9    diag,B
   16      0.180D-02      0.143D-03      -182.23155302    325.490144    0.00000    0.00000    0.00000    9    diag,B
   17      0.167D-02      0.175D-03      -182.23116040    325.528120    0.00000    0.00000    0.00000    9    diag,B
   18      0.641D-03      0.121D-03      -182.22803374    323.873177    0.00000    0.00000    0.00000    9    diag,B
   19      0.354D-02      0.137D-02      -182.23084037    325.185615    0.00000    0.00000    0.00000    9    diag,B
   20      0.298D-02      0.416D-03      -182.23209575    325.323683    0.00000    0.00000    0.00000    9    orth
   21      0.328D-02      0.359D-03      -182.23193395    324.635501    0.00000    0.00000    0.00000    9    diag,B
   22      0.137D-02      0.110D-02      -182.22947708    324.599547    0.00000    0.00000    0.00000    9    diag,B
   23      0.483D-02      0.814D-03      -182.23260936    325.242096    0.00000    0.00000    0.00000    9    diag,B
   24      0.432D-02      0.436D-03      -182.23249773    325.172678    0.00000    0.00000    0.00000    9    diag,B
   25      0.257D-03      0.509D-03      -182.22258815    322.038937    0.00000    0.00000    0.00000    9    diag,B
   26      0.653D-02      0.298D-02      -182.23241665    325.412152    0.00000    0.00000    0.00000    9    diag,B
   27      0.634D-02      0.265D-03      -182.23177061    325.374891    0.00000    0.00000    0.00000    9    diag,B
   28      0.116D-02      0.296D-03      -182.22873796    324.238569    0.00000    0.00000    0.00000    9    diag,B
   29      0.467D-02      0.106D-02      -182.23148893    325.102088    0.00000    0.00000    0.00000    9    diag,B
   30      0.451D-02      0.589D-03      -182.23233469    325.012118    0.00000    0.00000    0.00000    9    orth
   31      0.166D-02      0.695D-03      -182.23171320    325.760006    0.00000    0.00000    0.00000    9    diag,B
   32      0.184D-02      0.215D-03      -182.23033810    324.833345    0.00000    0.00000    0.00000    9    diag,B
   33      0.152D-02      0.755D-03      -182.22921646    324.482871    0.00000    0.00000    0.00000    9    diag,B
   34      0.245D-02      0.874D-03      -182.23189450    324.734428    0.00000    0.00000    0.00000    9    diag,B
   35      0.524D-02      0.100D-02      -182.23241698    325.098558    0.00000    0.00000    0.00000    9    diag,B
   36      0.346D-03      0.596D-03      -182.22722451    323.495935    0.00000    0.00000    0.00000    9    diag,B
   37      0.791D-02      0.152D-02      -182.23261807    325.117715    0.00000    0.00000    0.00000    9    diag,B
   38      0.829D-02      0.572D-03      -182.23256867    325.172470    0.00000    0.00000    0.00000    9    diag,B
   39      0.144D-03      0.516D-03      -182.22927569    324.525085    0.00000    0.00000    0.00000    9    diag,B
   40      0.568D-02      0.784D-03      -182.23124177    325.317646    0.00000    0.00000    0.00000    9    orth
   41      0.364D-02      0.321D-03      -182.22969362    324.744976    0.00000    0.00000    0.00000    9    diag,B
   42      0.315D-02      0.684D-03      -182.23119613    325.041203    0.00000    0.00000    0.00000    9    diag,B
   43      0.299D-02      0.638D-03      -182.23199488    324.965922    0.00000    0.00000    0.00000    9    diag,B
   44      0.143D-02      0.748D-03      -182.23203629    325.652626    0.00000    0.00000    0.00000    9    diag,B
   45      0.690D-03      0.130D-03      -182.22918414    324.594259    0.00000    0.00000    0.00000    9    diag,B
   46      0.433D-02      0.657D-03      -182.23134690    325.571366    0.00000    0.00000    0.00000    9    diag,B
   47      0.368D-02      0.119D-03      -182.23202604    326.033407    0.00000    0.00000    0.00000    9    diag,B
   48      0.147D-02      0.478D-03      -182.22926806    324.565378    0.00000    0.00000    0.00000    9    diag,B
   49      0.490D-02      0.767D-03      -182.23248750    325.326550    0.00000    0.00000    0.00000    9    diag,B
   50      0.532D-02      0.354D-03      -182.23235913    325.255971    0.00000    0.00000    0.00000    9    orth
   51      0.381D-03      0.434D-03      -182.22729313    323.564108    0.00000    0.00000    0.00000    9    diag,B
   52      0.882D-02      0.120D-02      -182.23245872    325.318443    0.00000    0.00000    0.00000    9    diag,B
   53      0.897D-02      0.371D-03      -182.23235403    325.391582    0.00000    0.00000    0.00000    9    diag,B
   54      0.215D-03      0.296D-03      -182.22903199    324.842285    0.00000    0.00000    0.00000    9    diag,B
   55      0.643D-02      0.188D-03      -182.22928031    324.749010    0.00000    0.00000    0.00000    9    diag,B
   56      0.108D-02      0.456D-03      -182.22751398    324.256694    0.00000    0.00000    0.00000    9    diag,B
   57      0.241D-02      0.156D-03      -182.22938224    325.464410    0.00000    0.00000    0.00000    9    diag,B
   58      0.326D-02      0.375D-03      -182.22376034    322.209267    0.00000    0.00000    0.00000    9    diag,B
     Orbital  2.2 strongly deviates from fixed occupation: 1.72723  (now: 2.00)
     Orbital  2.3 strongly deviates from fixed occupation: 1.72723  (now: 2.00)
     Orbital  2.5 strongly deviates from fixed occupation: 1.72723  (now: 2.00)
     Note:  Use {hf,nitord=N} to fix occupations at iteration N
            Use {gthresh,occdev=1.0} to suppress deviation warnings
   59      0.561D-02      0.170D-02      -182.23128545    323.092042    0.00000    0.00000    0.00000    9    orth
   60      0.125D-01      0.256D-02      -182.23159757    326.722233    0.00000    0.00000    0.00000    0    orth

 Final alpha occupancy:   4   3   3   0   3   0   0   1
 Final beta  occupancy:   1   3   3   0   3   0   0   1

 !RHF STATE 1.1 Energy               -182.231597565934
   --><property name="Energy" method="RHF" principal="true" stateSymmetry="1" stateNumber="1"
     value="-182.231597565934"/><!--
 Nuclear energy                         0.00000000
 One-electron energy                 -345.59271394
 Two-electron energy                  163.36111637
 Virial quotient                       -1.86412861
 !RHF STATE 1.1 Dipole moment           0.00000000     0.00000000     0.00000000
 Dipole moment /Debye                   0.00000000     0.00000000     0.00000000
   --><property name="Dipole moment" method="RHF" principal="true" stateSymmetry="1"
     stateNumber="1" value="0.0 0.0 0.0"/><!--

 ELECTRON ORBITALS
 =================


   Orb  Occ    Energy  Couls-En    Coefficients

                                   1 1s      1 1s      1 1s      1 1s      1 1s      1 1s      1 1s      1 1s      1 1s      1 1s
                                   1 1s      1 1s      1 1s      1 1s      1 1s      1 1s      1 1s      1 1s      1 1s      1 1s
                                   1 1s      1 1s      1 1s      1 1s      1 1s      1 1s      1 1s      1 1s      1 1s      1 1s
                                   1 1s      1 1s      1 1s      1 1s      1 1s      1 1s      1 1s      1 1s      1 3d0     1 3d2+
                                   1 3d0     1 3d2+    1 3d0     1 3d2+    1 3d0     1 3d2+    1 3d0     1 3d2+    1 3d0     1 3d2+
                                   1 3d0     1 3d2+    1 3d0     1 3d2+    1 3d0     1 3d2+    1 3d0     1 3d2+    1 3d0     1 3d2+
                                   1 3d0     1 3d2+    1 3d0     1 3d2+    1 3d0     1 3d2+    1 3d0     1 3d2+    1 3d0     1 3d2+
                                   1 3d0     1 3d2+    1 3d0     1 3d2+    1 3d0     1 3d2+    1 3d0     1 3d2+    1 3d0     1 3d2+
                                   1 3d0     1 3d2+    1 5g0     1 5g4+    1 5g2+    1 5g0     1 5g4+    1 5g2+    1 5g0     1 5g4+
                                   1 5g2+    1 5g0     1 5g4+    1 5g2+    1 5g0     1 5g4+    1 5g2+    1 5g0     1 5g4+    1 5g2+
                                   1 5g0     1 5g4+    1 5g2+

   1.1   2    -2.7629  -19.1750 -0.000000  0.000000 -0.000000  0.000000 -0.000000  0.000000 -0.000000  0.000000 -0.000000  0.000000
                                -0.000000  0.000000 -0.000001  0.000003 -0.000032 -0.000188  0.000248 -0.000708  0.002661  0.000140
                                -0.015094  0.166792 -0.254729  0.068525  0.461973 -0.900311 -0.365401  1.145206  0.393226  0.102637
                                -0.075626  0.109867 -0.167231  0.124986 -0.049657  0.019187 -0.004972  0.000888 -0.000000  0.000000
                                 0.000000 -0.000000 -0.000000  0.000000  0.000000 -0.000000 -0.000000  0.000000  0.000000 -0.000000
                                -0.000000  0.000000  0.000000 -0.000000 -0.000000  0.000000  0.000000 -0.000000 -0.000000  0.000000
                                 0.000000 -0.000000 -0.000000  0.000000  0.000000 -0.000000  0.000000 -0.000000 -0.000000  0.000000
                                 0.000000 -0.000000 -0.000000  0.000000  0.000000 -0.000000 -0.000000  0.000000  0.000000 -0.000000
                                -0.000000  0.000000  0.000007  0.000006 -0.000000 -0.000122 -0.000103 -0.000000  0.000127  0.000107
                                -0.000000  0.003042  0.002571 -0.000000 -0.002535 -0.002142  0.000000  0.001010  0.000854 -0.000000
                                -0.000330 -0.000279  0.000000

   2.1   +    -0.2115   -6.8862  0.000000 -0.000000  0.000000 -0.000000  0.000000 -0.000000  0.000000 -0.000000  0.000000 -0.000001
                                 0.000002 -0.000005  0.000013 -0.000043  0.000238  0.000754 -0.000505  0.000660 -0.000869 -0.000725
                                -0.000146  0.027460 -0.048039  0.002855  0.172666 -0.346007 -0.092569  0.500339  0.259947  0.097300
                                -0.327816 -0.485582 -0.212665 -0.189772 -0.056085  0.006716 -0.001717  0.000372 -0.000000  0.000000
                                 0.000000 -0.000000 -0.000000  0.000000  0.000000 -0.000000 -0.000000 -0.000000  0.000000 -0.000000
                                 0.000000  0.000000 -0.000000 -0.000000  0.000000  0.000000 -0.000000 -0.000000  0.000000  0.000000
                                -0.000000 -0.000000  0.000000  0.000000 -0.000000 -0.000000  0.000000  0.000000 -0.000000  0.000000
                                -0.000000  0.000000  0.000000 -0.000000 -0.000000  0.000000  0.000000 -0.000000 -0.000000  0.000000
                                 0.000000 -0.000000 -0.000043 -0.000036 -0.000000  0.000057  0.000049 -0.000000 -0.001757 -0.001485
                                -0.000000 -0.012470 -0.010539 -0.000000  0.010068  0.008509 -0.000000 -0.006167 -0.005212  0.000000
                                 0.001885  0.001594 -0.000000

   3.1   +    -0.7157  -13.0255  0.000000 -0.000000  0.000000 -0.000000  0.000000 -0.000000  0.000000 -0.000000  0.000000 -0.000000
                                 0.000000 -0.000000  0.000000 -0.000000  0.000000  0.000000 -0.000000  0.000000 -0.000000 -0.000000
                                 0.000000 -0.000000  0.000000 -0.000000  0.000000 -0.000000  0.000000 -0.000000  0.000000 -0.000000
                                 0.000000 -0.000000 -0.000000  0.000000 -0.000000  0.000000 -0.000000  0.000000 -0.000000 -0.000000
                                 0.000000  0.000001 -0.000002 -0.000003  0.000010  0.000013 -0.000034 -0.000047  0.000107  0.000150
                                -0.000320 -0.000445  0.001000  0.001391 -0.004860 -0.006760  0.011833  0.016459 -0.011236 -0.015629
                                 0.012839  0.017858 -0.078619 -0.109355  0.282425  0.392838  0.337946  0.470064  0.079229  0.110203
                                 0.047993  0.066756 -0.075382 -0.104852  0.045007  0.062602 -0.010803 -0.015026  0.004264  0.005932
                                -0.001194 -0.001661  0.000037 -0.000044 -0.000080 -0.000120  0.000142  0.000259  0.001571 -0.001859
                                -0.003385  0.006883 -0.008145 -0.014833 -0.005983  0.007079  0.012893  0.002826 -0.003344 -0.006090
                                -0.001010  0.001195  0.002176

   4.1   +    -0.7157  -13.0255  0.000000 -0.000000  0.000000 -0.000000  0.000000 -0.000000  0.000000 -0.000000  0.000000 -0.000000
                                 0.000000 -0.000000 -0.000000  0.000000 -0.000000 -0.000000  0.000000 -0.000000  0.000000  0.000000
                                -0.000000  0.000000 -0.000000  0.000000 -0.000000  0.000000 -0.000000  0.000000 -0.000000  0.000000
                                -0.000000  0.000000 -0.000000  0.000000 -0.000000  0.000000  0.000000 -0.000000  0.000000 -0.000000
                                -0.000001  0.000000  0.000003 -0.000002 -0.000013  0.000010  0.000047 -0.000034 -0.000150  0.000107
                                 0.000445 -0.000320 -0.001391  0.001000  0.006760 -0.004860 -0.016459  0.011833  0.015629 -0.011236
                                -0.017858  0.012839  0.109355 -0.078619 -0.392838  0.282425 -0.470064  0.337946 -0.110203  0.079229
                                -0.066756  0.047993  0.104852 -0.075382 -0.062602  0.045007  0.015026 -0.010803 -0.005932  0.004264
                                 0.001661 -0.001194 -0.000052  0.000061 -0.000057  0.000167 -0.000198  0.000186 -0.002185  0.002586
                                -0.002434 -0.009575  0.011329 -0.010664  0.008322 -0.009847  0.009269 -0.003931  0.004651 -0.004378
                                 0.001404 -0.001662  0.001564

   5.1   0     0.0027   -1.0535  0.000000 -0.000000  0.000000 -0.000000  0.000000 -0.000000  0.000000 -0.000000  0.000000 -0.000000
                                 0.000001 -0.000003  0.000008 -0.000028  0.000156  0.000511 -0.000367  0.000557 -0.001090 -0.000483
                                 0.003066 -0.018738  0.025507 -0.014020  0.001841  0.007842  0.020759 -0.056425  0.053066 -0.207089
                                 0.452809 -1.705873  4.930175 -6.254814  5.863126 -5.394659  4.573813 -3.042551  0.000000  0.000000
                                -0.000000 -0.000000  0.000000  0.000000 -0.000000 -0.000000  0.000000  0.000000 -0.000000 -0.000000
                                 0.000000  0.000000 -0.000000 -0.000000  0.000000  0.000000 -0.000000 -0.000000  0.000000  0.000000
                                -0.000000 -0.000000  0.000000 -0.000000 -0.000000  0.000000  0.000000  0.000000 -0.000000 -0.000000
                                 0.000000  0.000000 -0.000000 -0.000000  0.000000  0.000000 -0.000000  0.000000  0.000000 -0.000000
                                -0.000000  0.000000  0.000002  0.000002  0.000000 -0.000003 -0.000003  0.000000  0.000077  0.000065
                                 0.000000  0.000542  0.000458  0.000000 -0.000453 -0.000383 -0.000000  0.000244  0.000206  0.000000
                                 0.000041  0.000035 -0.000000

   6.1   0     0.0114   -1.0848 -0.000000  0.000000 -0.000000 -0.000000  0.000000  0.000000  0.000000 -0.000000  0.000000 -0.000000
                                 0.000000 -0.000000  0.000000 -0.000000  0.000000  0.000000 -0.000000  0.000000 -0.000000 -0.000000
                                 0.000000 -0.000000  0.000000 -0.000000  0.000000 -0.000000  0.000000 -0.000000  0.000000 -0.000000
                                 0.000000 -0.000001  0.000002 -0.000002  0.000002 -0.000002  0.000002 -0.000001 -0.000000 -0.000000
                                 0.000000  0.000000 -0.000000 -0.000000  0.000002  0.000000 -0.000006 -0.000000  0.000020  0.000000
                                -0.000060 -0.000001  0.000190  0.000003 -0.000931 -0.000016  0.002256  0.000040 -0.002064 -0.000037
                                 0.001166  0.000021 -0.001010 -0.000018  0.000895  0.000016 -0.009254 -0.000164  0.042782  0.000757
                                -0.577501 -0.010225  1.353126  0.023958 -1.192203 -0.021108  0.886479  0.015695 -1.272586 -0.022532
                                 1.671448  0.029594 -0.000000  0.000000  0.000000  0.000001 -0.000001 -0.000000 -0.000004  0.000004
                                 0.000000 -0.000001  0.000001  0.000000 -0.000001  0.000001  0.000000  0.000016 -0.000019 -0.000000
                                -0.000057  0.000068  0.000002

                                   1 2px     1 2px     1 2px     1 2px     1 2px     1 2px     1 2px     1 2px     1 2px     1 2px
                                   1 2px     1 2px     1 2px     1 2px     1 2px     1 2px     1 2px     1 2px     1 2px     1 2px
                                   1 2px     1 2px     1 2px     1 2px     1 2px     1 2px     1 2px     1 2px     1 2px     1 2px
                                   1 2px     1 4f1+    1 4f3+    1 4f1+    1 4f3+    1 4f1+    1 4f3+    1 4f1+    1 4f3+    1 4f1+
                                   1 4f3+    1 4f1+    1 4f3+    1 4f1+    1 4f3+    1 4f1+    1 4f3+    1 4f1+    1 4f3+    1 4f1+
                                   1 4f3+    1 4f1+    1 4f3+    1 4f1+    1 4f3+    1 4f1+    1 4f3+    1 4f1+    1 4f3+    1 4f1+
                                   1 4f3+    1 6h1+    1 6h3+    1 6h5+    1 6h1+    1 6h3+    1 6h5+    1 6h1+    1 6h3+    1 6h5+


   1.2   2    -1.7877  -16.7117  0.000000 -0.000000  0.000000 -0.000000  0.000000 -0.000000  0.000001 -0.000003  0.000011 -0.000036
                                 0.000105 -0.000293  0.000808 -0.002458  0.009075 -0.075207  0.182640 -0.347421  0.616880 -0.611784
                                -0.056008  0.766032 -0.051317  0.451606 -0.026987  0.045029  0.001039  0.027316 -0.000885  0.000410
                                -0.000095 -0.000000  0.000000  0.000001 -0.000001 -0.000003  0.000004  0.000013 -0.000017 -0.000129
                                 0.000167  0.000224 -0.000289 -0.000542  0.000700 -0.000672  0.000868 -0.001649  0.002129 -0.004426
                                 0.005714 -0.003654  0.004718 -0.000369  0.000476 -0.000039  0.000051  0.000036 -0.000047 -0.000014
                                 0.000018 -0.000013 -0.000002 -0.000012 -0.000528  0.000071 -0.000542 -0.000013 -0.000008 -0.000009

   2.2   2    -0.2059  -13.8765 -0.000000  0.000000 -0.000000  0.000000 -0.000000  0.000000 -0.000000  0.000000 -0.000001  0.000002
                                -0.000006  0.000016 -0.000043  0.000132 -0.000491  0.004104 -0.009989  0.019124 -0.035214  0.037350
                                -0.001874 -0.050315  0.005852 -0.027419  0.080362  0.031154  0.065569 -0.050710  0.000973  0.000263
                                -0.000069 -0.000008  0.000010  0.000053 -0.000069 -0.000260  0.000336  0.001262 -0.001629 -0.013013
                                 0.016800  0.020718 -0.026746 -0.072620  0.093751 -0.117400  0.151562 -0.198787  0.256633 -0.237997
                                 0.307252 -0.154865  0.199929 -0.082022  0.105889  0.003838 -0.004955 -0.021350  0.027562  0.005153
                                -0.006653  0.000012  0.000078 -0.000023  0.000141  0.000466 -0.000072  0.000041  0.000714 -0.000280

   3.2   2    -0.1978  -13.9307  0.000000 -0.000000  0.000000 -0.000000  0.000000 -0.000000  0.000000 -0.000000  0.000000 -0.000000
                                 0.000000 -0.000000  0.000000 -0.000000  0.000000 -0.000000  0.000000 -0.000000 -0.000000  0.000000
                                 0.000000 -0.000000  0.000000 -0.000000  0.000001  0.000000  0.000000 -0.000001  0.000000 -0.000000
                                 0.000000  0.000010  0.000008 -0.000069 -0.000054  0.000337  0.000261 -0.001635 -0.001267  0.016872
                                 0.013069 -0.026844 -0.020793  0.094348  0.073082  0.152727  0.118302  0.258384  0.200144  0.307671
                                 0.238321  0.199656  0.154653  0.108816  0.084289 -0.002539 -0.001967  0.031635  0.024504 -0.006829
                                -0.005290 -0.000029  0.000014  0.000031 -0.000183  0.000085  0.000190 -0.000269  0.000125  0.000279

   4.2   0     0.0048   -1.4543  0.000000 -0.000000  0.000000 -0.000000  0.000000 -0.000000  0.000000 -0.000000  0.000001 -0.000002
                                 0.000007 -0.000018  0.000050 -0.000148  0.000527 -0.004151  0.009787 -0.013929  0.007061  0.005673
                                 0.013396 -0.076514  0.076031 -0.080837 11.804313  0.051133 -0.056819-12.067188  1.249859 -1.529131
                                 1.676157  0.000000 -0.000000 -0.000002  0.000002  0.000008 -0.000010 -0.000038  0.000049  0.000389
                                -0.000503 -0.000623  0.000805  0.002127 -0.002745  0.003382 -0.004366  0.005829 -0.007525  0.007024
                                -0.009068  0.004088 -0.005278  0.001944 -0.002510 -0.000073  0.000095  0.000547 -0.000706  0.000152
                                -0.000196  0.000000 -0.000000  0.000000  0.000018  0.000012  0.000012  0.000058  0.000017  0.000049

   5.2   0     0.0126   -2.5131  0.000000 -0.000000  0.000000 -0.000000  0.000000 -0.000000  0.000000 -0.000001  0.000003 -0.000009
                                 0.000027 -0.000076  0.000211 -0.000636  0.002320 -0.018932  0.045518 -0.078764  0.111897 -0.093678
                                 0.020410  0.015083  0.108793 -0.031237 21.602988  0.050147 -0.354551-22.475154  2.062060 -3.292016
                                 1.896250 -0.000001  0.000001  0.000003 -0.000004 -0.000017  0.000022  0.000081 -0.000104 -0.000828
                                 0.001069  0.001326 -0.001712 -0.004518  0.005833 -0.007180  0.009270 -0.012387  0.015991 -0.014901
                                 0.019238 -0.008593  0.011093 -0.004131  0.005333  0.000147 -0.000190 -0.001249  0.001613 -0.000287
                                 0.000371 -0.000001  0.000000 -0.000001 -0.000043 -0.000024 -0.000030 -0.000130 -0.000034 -0.000110

                                   1 2py     1 2py     1 2py     1 2py     1 2py     1 2py     1 2py     1 2py     1 2py     1 2py
                                   1 2py     1 2py     1 2py     1 2py     1 2py     1 2py     1 2py     1 2py     1 2py     1 2py
                                   1 2py     1 2py     1 2py     1 2py     1 2py     1 2py     1 2py     1 2py     1 2py     1 2py
                                   1 2py     1 4f1-    1 4f3-    1 4f1-    1 4f3-    1 4f1-    1 4f3-    1 4f1-    1 4f3-    1 4f1-
                                   1 4f3-    1 4f1-    1 4f3-    1 4f1-    1 4f3-    1 4f1-    1 4f3-    1 4f1-    1 4f3-    1 4f1-
                                   1 4f3-    1 4f1-    1 4f3-    1 4f1-    1 4f3-    1 4f1-    1 4f3-    1 4f1-    1 4f3-    1 4f1-
                                   1 4f3-    1 6h1-    1 6h3-    1 6h5-    1 6h1-    1 6h3-    1 6h5-    1 6h1-    1 6h3-    1 6h5-


   1.3   2    -1.7877  -16.7117  0.000000 -0.000000  0.000000 -0.000000  0.000000 -0.000000  0.000001 -0.000003  0.000011 -0.000036
                                 0.000105 -0.000293  0.000808 -0.002458  0.009075 -0.075207  0.182640 -0.347421  0.616880 -0.611784
                                -0.056008  0.766032 -0.051317  0.451606 -0.026987  0.045029  0.001039  0.027316 -0.000885  0.000410
                                -0.000095 -0.000000 -0.000000  0.000001  0.000001 -0.000003 -0.000004  0.000013  0.000017 -0.000129
                                -0.000167  0.000224  0.000289 -0.000542 -0.000700 -0.000672 -0.000868 -0.001649 -0.002129 -0.004426
                                -0.005714 -0.003654 -0.004718 -0.000369 -0.000476 -0.000039 -0.000051  0.000036  0.000047 -0.000014
                                -0.000018 -0.000013  0.000002 -0.000012 -0.000528 -0.000071 -0.000542 -0.000013  0.000008 -0.000009

   2.3   2    -0.2059  -13.8765  0.000000 -0.000000  0.000000 -0.000000  0.000000 -0.000000  0.000000 -0.000000  0.000001 -0.000002
                                 0.000006 -0.000016  0.000043 -0.000132  0.000491 -0.004104  0.009989 -0.019124  0.035214 -0.037350
                                 0.001874  0.050315 -0.005852  0.027419 -0.080362 -0.031154 -0.065569  0.050710 -0.000973 -0.000263
                                 0.000069  0.000008  0.000010 -0.000053 -0.000069  0.000260  0.000336 -0.001262 -0.001629  0.013013
                                 0.016800 -0.020718 -0.026746  0.072619  0.093752  0.117399  0.151562  0.198787  0.256633  0.237996
                                 0.307252  0.154864  0.199929  0.082021  0.105890 -0.003838 -0.004955  0.021350  0.027562 -0.005153
                                -0.006653 -0.000012  0.000078  0.000023 -0.000141  0.000466  0.000072 -0.000041  0.000714  0.000280

   3.3   2    -0.1978  -13.9307  0.000000 -0.000000  0.000000 -0.000000  0.000000 -0.000000  0.000000 -0.000000  0.000000 -0.000000
                                 0.000000 -0.000000  0.000000 -0.000000  0.000000 -0.000000  0.000000 -0.000000  0.000000 -0.000000
                                 0.000000  0.000000 -0.000000  0.000000 -0.000001 -0.000000 -0.000000  0.000001 -0.000000  0.000000
                                -0.000000  0.000010 -0.000008 -0.000069  0.000054  0.000337 -0.000261 -0.001635  0.001267  0.016872
                                -0.013069 -0.026844  0.020793  0.094348 -0.073082  0.152728 -0.118302  0.258384 -0.200143  0.307672
                                -0.238321  0.199656 -0.154652  0.108816 -0.084288 -0.002539  0.001967  0.031635 -0.024504 -0.006829
                                 0.005290 -0.000029 -0.000014  0.000031 -0.000183 -0.000085  0.000190 -0.000269 -0.000125  0.000279

   4.3   0     0.0048   -1.4543  0.000000 -0.000000  0.000000 -0.000000  0.000000 -0.000000  0.000000 -0.000000  0.000001 -0.000002
                                 0.000007 -0.000018  0.000050 -0.000148  0.000527 -0.004151  0.009787 -0.013929  0.007061  0.005673
                                 0.013396 -0.076514  0.076030 -0.080837 11.804307  0.051133 -0.056819-12.067182  1.249858 -1.529130
                                 1.676157  0.000000  0.000000 -0.000002 -0.000002  0.000008  0.000010 -0.000038 -0.000049  0.000389
                                 0.000503 -0.000624 -0.000805  0.002127  0.002745  0.003382  0.004366  0.005829  0.007525  0.007024
                                 0.009067  0.004089  0.005278  0.001944  0.002510 -0.000073 -0.000095  0.000547  0.000706  0.000152
                                 0.000196  0.000000  0.000000  0.000000  0.000018 -0.000012  0.000012  0.000058 -0.000017  0.000049

   5.3   0     0.0126   -2.5131  0.000000 -0.000000  0.000000 -0.000000  0.000000 -0.000000  0.000000 -0.000001  0.000003 -0.000009
                                 0.000027 -0.000076  0.000211 -0.000636  0.002320 -0.018932  0.045518 -0.078764  0.111897 -0.093678
                                 0.020410  0.015083  0.108793 -0.031237 21.602988  0.050147 -0.354551-22.475155  2.062060 -3.292016
                                 1.896250 -0.000001 -0.000001  0.000003  0.000004 -0.000017 -0.000022  0.000081  0.000104 -0.000828
                                -0.001069  0.001326  0.001712 -0.004519 -0.005833 -0.007180 -0.009270 -0.012387 -0.015991 -0.014902
                                -0.019238 -0.008593 -0.011093 -0.004131 -0.005333  0.000147  0.000190 -0.001249 -0.001613 -0.000287
                                -0.000371 -0.000001 -0.000000 -0.000001 -0.000043  0.000024 -0.000030 -0.000130  0.000034 -0.000110

                                   1 3d2-    1 3d2-    1 3d2-    1 3d2-    1 3d2-    1 3d2-    1 3d2-    1 3d2-    1 3d2-    1 3d2-
                                   1 3d2-    1 3d2-    1 3d2-    1 3d2-    1 3d2-    1 3d2-    1 3d2-    1 3d2-    1 3d2-    1 3d2-
                                   1 3d2-    1 3d2-    1 5g2-    1 5g4-    1 5g2-    1 5g4-    1 5g2-    1 5g4-    1 5g2-    1 5g4-
                                   1 5g2-    1 5g4-    1 5g2-    1 5g4-    1 5g2-    1 5g4-

   1.4   0    -0.2451  -12.1910 -0.000000  0.000001 -0.000003  0.000013 -0.000048  0.000150 -0.000446  0.001395 -0.006790  0.016586
                                -0.015883  0.019388 -0.123459  0.439282  0.559203  0.202623  0.074279 -0.079698  0.056848 -0.014063
                                 0.006060 -0.001800 -0.000048  0.000000  0.000155 -0.000000 -0.001999  0.000000 -0.009639  0.000000
                                 0.008346 -0.000000 -0.004515  0.000000  0.001620 -0.000000

   2.4   0     0.0114   -1.0847  0.000000 -0.000000  0.000000 -0.000002  0.000006 -0.000020  0.000060 -0.000188  0.000923 -0.002236
                                 0.002045 -0.001141  0.000847 -0.000345  0.010093 -0.042135  0.578015 -1.353289  1.192515 -0.886327
                                 1.272336 -1.671542 -0.000000 -0.000000  0.000001 -0.000000 -0.000005 -0.000000 -0.000016 -0.000000
                                 0.000014  0.000000  0.000006 -0.000000 -0.000038  0.000000

                                   1 2pz     1 2pz     1 2pz     1 2pz     1 2pz     1 2pz     1 2pz     1 2pz     1 2pz     1 2pz
                                   1 2pz     1 2pz     1 2pz     1 2pz     1 2pz     1 2pz     1 2pz     1 2pz     1 2pz     1 2pz
                                   1 2pz     1 2pz     1 2pz     1 2pz     1 2pz     1 2pz     1 2pz     1 2pz     1 2pz     1 2pz
                                   1 2pz     1 4f0     1 4f2+    1 4f0     1 4f2+    1 4f0     1 4f2+    1 4f0     1 4f2+    1 4f0
                                   1 4f2+    1 4f0     1 4f2+    1 4f0     1 4f2+    1 4f0     1 4f2+    1 4f0     1 4f2+    1 4f0
                                   1 4f2+    1 4f0     1 4f2+    1 4f0     1 4f2+    1 4f0     1 4f2+    1 4f0     1 4f2+    1 4f0
                                   1 4f2+    1 6h2+    1 6h4+    1 6h0     1 6h2+    1 6h4+    1 6h0     1 6h2+    1 6h4+    1 6h0


   1.5   2    -1.7877  -16.7117  0.000000 -0.000000  0.000000 -0.000000  0.000000 -0.000000  0.000001 -0.000003  0.000011 -0.000036
                                 0.000105 -0.000293  0.000808 -0.002458  0.009075 -0.075207  0.182640 -0.347421  0.616880 -0.611784
                                -0.056008  0.766032 -0.051317  0.451606 -0.026987  0.045029  0.001039  0.027316 -0.000885  0.000410
                                -0.000095  0.000000  0.000000 -0.000001 -0.000000  0.000005  0.000000 -0.000022 -0.000000  0.000211
                                 0.000000 -0.000365 -0.000000  0.000885  0.000000  0.001097  0.000000  0.002693  0.000000  0.007228
                                 0.000000  0.005967  0.000000  0.000602  0.000000  0.000064 -0.000000 -0.000059  0.000000  0.000023
                                -0.000000  0.000000 -0.000011 -0.000013  0.000000 -0.000353 -0.000672  0.000000 -0.000016 -0.000009

   2.5   2    -0.2059  -13.8765 -0.000000  0.000000 -0.000000  0.000000 -0.000000  0.000000 -0.000000  0.000000 -0.000001  0.000002
                                -0.000006  0.000016 -0.000043  0.000132 -0.000491  0.004104 -0.009989  0.019124 -0.035214  0.037350
                                -0.001874 -0.050315  0.005852 -0.027419  0.080362  0.031154  0.065569 -0.050710  0.000973  0.000263
                                -0.000069  0.000013  0.000000 -0.000087 -0.000000  0.000425  0.000000 -0.002061 -0.000000  0.021250
                                 0.000000 -0.033832 -0.000000  0.118587  0.000000  0.191712  0.000000  0.324618  0.000001  0.388646
                                 0.000001  0.252892  0.000001  0.133941  0.000000 -0.006268 -0.000000  0.034864  0.000000 -0.008415
                                -0.000000  0.000000  0.000064 -0.000051  0.000000  0.000438 -0.000226  0.000000  0.000537 -0.000550

   3.5   2    -0.1978  -13.9307 -0.000000  0.000000 -0.000000 -0.000000  0.000000 -0.000000  0.000000 -0.000000  0.000000 -0.000000
                                 0.000000 -0.000000  0.000000 -0.000000  0.000000 -0.000000  0.000000 -0.000000  0.000000 -0.000000
                                 0.000000  0.000000  0.000000 -0.000000 -0.000000 -0.000000 -0.000000  0.000000 -0.000000  0.000000
                                -0.000000 -0.000000  0.000013  0.000000 -0.000088 -0.000000  0.000427  0.000000 -0.002069 -0.000000
                                 0.021341  0.000000 -0.033955 -0.000000  0.119342 -0.000000  0.193187 -0.000001  0.326833 -0.000001
                                 0.389177 -0.000001  0.252547 -0.000000  0.137642  0.000000 -0.003212 -0.000000  0.040015  0.000000
                                -0.008638  0.000045 -0.000000  0.000000  0.000277 -0.000000  0.000000  0.000407 -0.000000  0.000000

   4.5   0     0.0048   -1.4543  0.000000 -0.000000  0.000000 -0.000000  0.000000 -0.000000  0.000000 -0.000000  0.000001 -0.000002
                                 0.000007 -0.000018  0.000050 -0.000148  0.000527 -0.004151  0.009787 -0.013929  0.007061  0.005673
                                 0.013396 -0.076514  0.076031 -0.080837 11.804312  0.051133 -0.056819-12.067187  1.249859 -1.529131
                                 1.676157 -0.000000  0.000000  0.000003 -0.000000 -0.000013  0.000000  0.000062 -0.000000 -0.000636
                                 0.000000  0.001018 -0.000000 -0.003473  0.000000 -0.005522  0.000000 -0.009518  0.000000 -0.011470
                                 0.000000 -0.006676  0.000000 -0.003175  0.000000  0.000120 -0.000000 -0.000894  0.000000 -0.000248
                                -0.000000  0.000000  0.000000  0.000000 -0.000000  0.000022  0.000011  0.000000  0.000056  0.000053

   5.5   0     0.0126   -2.5131  0.000000 -0.000000  0.000000 -0.000000  0.000000 -0.000000  0.000000 -0.000001  0.000003 -0.000009
                                 0.000027 -0.000076  0.000211 -0.000636  0.002320 -0.018932  0.045518 -0.078764  0.111897 -0.093678
                                 0.020410  0.015083  0.108793 -0.031237 21.602984  0.050147 -0.354551-22.475151  2.062059 -3.292015
                                 1.896250  0.000001 -0.000000 -0.000006  0.000000  0.000027 -0.000000 -0.000132  0.000000  0.001352
                                -0.000000 -0.002166  0.000000  0.007379 -0.000000  0.011725 -0.000000  0.020228 -0.000000  0.024334
                                -0.000000  0.014032 -0.000000  0.006745 -0.000000 -0.000240  0.000000  0.002040 -0.000000  0.000469
                                 0.000000 -0.000000 -0.000000 -0.000001  0.000000 -0.000050 -0.000029 -0.000000 -0.000123 -0.000122

                                   1 3d1+    1 3d1+    1 3d1+    1 3d1+    1 3d1+    1 3d1+    1 3d1+    1 3d1+    1 3d1+    1 3d1+
                                   1 3d1+    1 3d1+    1 3d1+    1 3d1+    1 3d1+    1 3d1+    1 3d1+    1 3d1+    1 3d1+    1 3d1+
                                   1 3d1+    1 3d1+    1 5g1+    1 5g3+    1 5g1+    1 5g3+    1 5g1+    1 5g3+    1 5g1+    1 5g3+
                                   1 5g1+    1 5g3+    1 5g1+    1 5g3+    1 5g1+    1 5g3+

   1.6   0    -0.2451  -12.1910 -0.000000  0.000001 -0.000003  0.000013 -0.000048  0.000150 -0.000446  0.001395 -0.006790  0.016586
                                -0.015883  0.019388 -0.123459  0.439282  0.559203  0.202623  0.074279 -0.079698  0.056848 -0.014063
                                 0.006060 -0.001800  0.000017  0.000045 -0.000055 -0.000145  0.000707  0.001870  0.003408  0.009016
                                -0.002951 -0.007807  0.001596  0.004223 -0.000573 -0.001515

   2.6   0     0.0114   -1.0847  0.000000 -0.000000  0.000000 -0.000002  0.000006 -0.000020  0.000060 -0.000188  0.000923 -0.002236
                                 0.002045 -0.001141  0.000847 -0.000345  0.010093 -0.042135  0.578015 -1.353289  1.192515 -0.886327
                                 1.272336 -1.671542  0.000000  0.000000 -0.000000 -0.000001  0.000002  0.000005  0.000006  0.000015
                                -0.000005 -0.000014 -0.000002 -0.000006  0.000014  0.000036

                                   1 3d1-    1 3d1-    1 3d1-    1 3d1-    1 3d1-    1 3d1-    1 3d1-    1 3d1-    1 3d1-    1 3d1-
                                   1 3d1-    1 3d1-    1 3d1-    1 3d1-    1 3d1-    1 3d1-    1 3d1-    1 3d1-    1 3d1-    1 3d1-
                                   1 3d1-    1 3d1-    1 5g1-    1 5g3-    1 5g1-    1 5g3-    1 5g1-    1 5g3-    1 5g1-    1 5g3-
                                   1 5g1-    1 5g3-    1 5g1-    1 5g3-    1 5g1-    1 5g3-

   1.7   0    -0.2451  -12.1910 -0.000000  0.000001 -0.000003  0.000013 -0.000048  0.000150 -0.000446  0.001395 -0.006790  0.016586
                                -0.015883  0.019388 -0.123459  0.439282  0.559203  0.202623  0.074279 -0.079698  0.056848 -0.014063
                                 0.006060 -0.001800  0.000017 -0.000045 -0.000055  0.000145  0.000707 -0.001870  0.003408 -0.009016
                                -0.002951  0.007807  0.001596 -0.004223 -0.000573  0.001515

   2.7   0     0.0114   -1.0847  0.000000 -0.000000  0.000000 -0.000002  0.000006 -0.000020  0.000060 -0.000188  0.000923 -0.002236
                                 0.002045 -0.001141  0.000847 -0.000345  0.010093 -0.042135  0.578015 -1.353289  1.192515 -0.886327
                                 1.272336 -1.671542  0.000000 -0.000000 -0.000000  0.000001  0.000002 -0.000005  0.000006 -0.000015
                                -0.000005  0.000014 -0.000002  0.000006  0.000014 -0.000036

                                   1 4f2-    1 4f2-    1 4f2-    1 4f2-    1 4f2-    1 4f2-    1 4f2-    1 4f2-    1 4f2-    1 4f2-
                                   1 4f2-    1 4f2-    1 4f2-    1 4f2-    1 4f2-    1 6h4-    1 6h2-    1 6h4-    1 6h2-    1 6h4-
                                   1 6h2-

   1.8   2    -0.1877  -13.9422  0.000013 -0.000088  0.000427 -0.002072  0.021394 -0.034008  0.119992  0.194576  0.328769  0.388250
                                 0.249166  0.136829 -0.001919  0.042662 -0.008467  0.000000 -0.000000  0.000000 -0.000000 -0.000000
                                 0.000000

   2.8   0     0.0596   -1.8491  0.000001 -0.000008  0.000036 -0.000165  0.001247 -0.002447 -0.000409 -0.007850 -0.004591 -0.019247
                                 0.017529 -0.134222  0.373148 -0.803127  1.447213 -0.000000 -0.000000 -0.000000  0.000000  0.000000
                                -0.000000

   3.8   0     0.1569   -2.6430 -0.000005  0.000031 -0.000149  0.000697 -0.006193  0.010870 -0.018360 -0.013790 -0.042651 -0.017457
                                -0.075610  0.324723 -0.936440  2.277438 -1.137924 -0.000000 -0.000000 -0.000000 -0.000000  0.000000
                                -0.000000

 HOMO      1.8    -0.187663 =      -5.1066eV
 LUMO      1.4    -0.245057 =      -6.6684eV
 LUMO-HOMO        -0.057395 =      -1.5618eV

 No convergence



 **********************************************************************************************************************************
 DATASETS  * FILE   NREC   LENGTH (MB)   RECORD NAMES
              1      19       21.31       500      610      700      900      950      970     1000      129      960     1100
                                          VAR    BASINP    GEOM    SYMINP    ZMAT    AOBASIS   BASIS     P2S    ABASIS      S
                                         1400     1410     1420     1200     1210     1080     1600     1650     1700
                                           T        V       ECP      H0       H01     AOSYM     SMH    MOLCAS    OPER

              2       5        6.25       200      700     1000      520     4202
                                        OPTIONS   GEOM     BASIS   MCVARS     RHF

 PROGRAMS   *        TOTAL       RHF       INT
 CPU TIMES  *       170.78     10.19    160.18
 REAL TIME  *       182.56 SEC
 DISK USED  *         8.15 GB
 SF USED    *         0.12 MB
 GA USED    *         0.00 MB       (max)       0.00 MB       (current)
 **********************************************************************************************************************************
   -->
   <time start="18:09:02" end="18:12:04" cpu="170.78" system="8.3" real="182.56"/>
   <storage units="megabyte" memory="8001.84" sf="0.12" df="352.05" eaf="7796.42" ga="0.0"/>
  </jobstep><!--
  --><jobstep command="POP" commandset="POP">
   <!--


 PROGRAM * POP (Mulliken population analysis)


 Density matrix read from record         4202.2  Type=RHF/CHARGE (state 1.1)

 Population analysis by basis function type

 Unique atom        s        p        d        f        g    Total    Charge
   1  LU      2.99991  6.06943  1.99982 13.93056  0.00027 25.00000  - 0.00000


 **********************************************************************************************************************************
 DATASETS  * FILE   NREC   LENGTH (MB)   RECORD NAMES
              1      19       21.31       500      610      700      900      950      970     1000      129      960     1100
                                          VAR    BASINP    GEOM    SYMINP    ZMAT    AOBASIS   BASIS     P2S    ABASIS      S
                                         1400     1410     1420     1200     1210     1080     1600     1650     1700
                                           T        V       ECP      H0       H01     AOSYM     SMH    MOLCAS    OPER

              2       5        6.25       200      700     1000      520     4202
                                        OPTIONS   GEOM     BASIS   MCVARS     RHF

 PROGRAMS   *        TOTAL       POP       RHF       INT
 CPU TIMES  *       170.79      0.01     10.19    160.18
 REAL TIME  *       182.58 SEC
 DISK USED  *         8.15 GB
 SF USED    *         0.12 MB
 GA USED    *         0.00 MB       (max)       0.00 MB       (current)
 **********************************************************************************************************************************
   -->
   <time start="18:12:04" end="18:12:04" cpu="0.01" system="0.0" real="0.02"/>
   <storage units="megabyte" memory="8001.84" sf="0.12" df="352.05" eaf="7796.42" ga="0.0"/>
  </jobstep><!--
  --><jobstep command="MULTI" commandset="MULTI">
   <!--


 PROGRAM * MULTI (Direct Multiconfiguration SCF)       Authors: P.J. Knowles, H.-J. Werner (1984)     S.T. Elbert (1988)


 Number of closed-shell orbitals:  11 (   1   3   3   0   3   0   0   1 )
 Number of active  orbitals:        6 (   3   0   0   1   0   1   1   0 )
 Number of external orbitals:     425 (  99  67  67  35  67  35  35  20 )

 State symmetry 1

 Orbital occupancy restrictions for symmetry 1
  1      1       200000

 Number of electrons:     3    Spin symmetry=Quartet   Space symmetry=1
 Number of states:        1
 Number of CSFs:          1

 State symmetry 2

 Orbital occupancy restrictions for symmetry 4
  1      1       200000

 Number of electrons:     3    Spin symmetry=Quartet   Space symmetry=4
 Number of states:        3
 Number of CSFs:          3

 State symmetry 3

 Orbital occupancy restrictions for symmetry 6
  1      1       200000

 Number of electrons:     3    Spin symmetry=Quartet   Space symmetry=6
 Number of states:        3
 Number of CSFs:          3

 State symmetry 4

 Orbital occupancy restrictions for symmetry 7
  1      1       200000

 Number of electrons:     3    Spin symmetry=Quartet   Space symmetry=7
 Number of states:        3
 Number of CSFs:          3

 Maximum number of shells:             1
 Maximum number of spin couplings:     1

 Storage for configuration lists      51, coupling coefficients      3, address lists    345

 Molecular orbitals read from record     4202.2  Type=RHF/CANONICAL (state 1.1)
 *** IN SYMMETRY 1 ORBITAL  1 SYMMETRY CONTAMINATION OF 0.298D-02 HAS BEEN REMOVED
 *** IN SYMMETRY 1 ORBITAL  2 SYMMETRY CONTAMINATION OF 0.207D-01 HAS BEEN REMOVED
 *** IN SYMMETRY 1 ORBITAL  3 SYMMETRY CONTAMINATION OF 0.437D+00 HAS BEEN REMOVED
 *** IN SYMMETRY 1 ORBITAL  4 SYMMETRY CONTAMINATION OF 0.438D+00 HAS BEEN REMOVED

 EXTRA SYMMETRY OF MOS IN SYMMETRY 1:   1 1 3 2 1 2 3 1 2 3   1 2 3 1 3 2 1 6 5 4   3 2 1 3 2 6 5 4 1 3   2 6 5 4 1 4 6 5 3 2
                                        1 4 6 5 1 2 3 6 5 4   1 2 3 3 2 1 6 5 4 3   2 1 2 3 1 1 2 3 1 2   3 1 1 2 3 1 2 3 1 1
                                        2 3 1 2 3 1 1 3 2 1   1 2 3 1 1 1 1 1 1 1   1 1 1
 *** IN SYMMETRY 2 ORBITAL  1 SYMMETRY CONTAMINATION OF 0.853D-02 HAS BEEN REMOVED
 *** IN SYMMETRY 2 ORBITAL  2 SYMMETRY CONTAMINATION OF 0.530D+00 HAS BEEN REMOVED
 *** IN SYMMETRY 2 ORBITAL  3 SYMMETRY CONTAMINATION OF 0.437D+00 HAS BEEN REMOVED
 EXTRA SYMMETRY OF MOS IN SYMMETRY 2:   1 3 2 1 1 1 2 3 1 1   2 3 1 2 3 3 2 1 3 2   1 5 6 4 3 2 1 5 6 4   1 2 3 1 5 6 4 2 3 1
                                        2 3 1 1 2 3 1 2 3 1   1 2 3 1 2 3 1 1 2 3   1 1 1 1 1 1 1 1 1 1
 *** IN SYMMETRY 3 ORBITAL  1 SYMMETRY CONTAMINATION OF 0.853D-02 HAS BEEN REMOVED
 *** IN SYMMETRY 3 ORBITAL  2 SYMMETRY CONTAMINATION OF 0.530D+00 HAS BEEN REMOVED
 *** IN SYMMETRY 3 ORBITAL  3 SYMMETRY CONTAMINATION OF 0.437D+00 HAS BEEN REMOVED
 EXTRA SYMMETRY OF MOS IN SYMMETRY 3:   1 3 2 1 1 1 2 3 1 1   2 3 1 2 3 3 2 1 3 2   1 5 6 4 3 2 1 5 6 4   1 2 3 1 5 6 4 2 3 1
                                        2 3 1 1 2 3 1 2 3 1   1 2 3 1 2 3 1 1 2 3   1 1 1 1 1 1 1 1 1 1
 *** IN SYMMETRY 4 ORBITAL  1 SYMMETRY CONTAMINATION OF 0.160D-01 HAS BEEN REMOVED
 EXTRA SYMMETRY OF MOS IN SYMMETRY 4:   1 1 1 1 1 2 3 1 1 2   3 1 2 3 3 2 1 3 2 1   2 3 1 1 2 3 1 1 1 1   1 1 1 1 1 1
 *** IN SYMMETRY 5 ORBITAL  1 SYMMETRY CONTAMINATION OF 0.616D-02 HAS BEEN REMOVED
 *** IN SYMMETRY 5 ORBITAL  2 SYMMETRY CONTAMINATION OF 0.218D+00 HAS BEEN REMOVED
 *** IN SYMMETRY 5 ORBITAL  3 SYMMETRY CONTAMINATION OF 0.480D-03 HAS BEEN REMOVED
 EXTRA SYMMETRY OF MOS IN SYMMETRY 5:   1 2 3 1 1 1 3 2 1 1   3 2 1 3 2 2 3 1 2 3   1 5 4 6 2 3 1 5 4 6   1 3 2 1 5 4 6 3 2 1
                                        3 2 1 1 3 2 1 3 2 1   1 3 2 1 3 2 1 1 3 2   1 1 1 1 1 1 1 1 1 1
 *** IN SYMMETRY 6 ORBITAL  1 SYMMETRY CONTAMINATION OF 0.205D-01 HAS BEEN REMOVED
 EXTRA SYMMETRY OF MOS IN SYMMETRY 6:   1 1 1 1 1 3 2 1 1 3   2 1 3 2 2 3 1 2 3 1   3 2 1 1 3 2 1 1 1 1   1 1 1 1 1 1
 *** IN SYMMETRY 7 ORBITAL  1 SYMMETRY CONTAMINATION OF 0.205D-01 HAS BEEN REMOVED
 EXTRA SYMMETRY OF MOS IN SYMMETRY 7:   1 1 1 1 1 3 2 1 1 3   2 1 3 2 2 3 1 2 3 1   3 2 1 1 3 2 1 1 1 1   1 1 1 1 1 1
 EXTRA SYMMETRY OF MOS IN SYMMETRY 8:   1 1 1 1 1 1 3 2 1 3   2 1 3 2 1 1 1 1 1 1   1

 Wavefunction dump at record             5202.2

 Convergence thresholds  0.10E-01 (gradient)  0.10E-05 (energy)  0.10E-02 (step length)

 Weight factors for state symmetry  1:    0.10000
 Weight factors for state symmetry  2:    0.10000   0.10000   0.10000
 Weight factors for state symmetry  3:    0.10000   0.10000   0.10000
 Weight factors for state symmetry  4:    0.10000   0.10000   0.10000

 Eigenvalues of redundancy matrix
   1-  3   -0.000000    0.767558    2.999897

 Non-redundant active-active orbital rotations:
     1  2  3  4  5
  2  +
  3  +
  4
  5
  6

 Number of orbital rotations:     1129   (     3 Core/Active    722 Core/Virtual   2 Active/Active    402 Active/Virtual)
 Total number of variables:       1157


 ITER. MIC  NCI  NEG     ENERGY(VAR)     ENERGY(PROJ)   ENERGY CHANGE     GRAD(0)  GRAD(ORB)   GRAD(CI)     STEP       TIME

   1   35   28    0    -182.20571204    -182.21533932   -0.00962728    0.20913317 0.00000000 0.00000000  0.14D+00      2.68
   2   19   32    0    -182.21541778    -182.21542118   -0.00000340    0.00348713 0.00000000 0.00000000  0.25D-02      4.85
   3   35   24    0    -182.21542118    -182.21542118   -0.00000000    0.00000167 0.00000000 0.00000000  0.16D-05      6.72

 ** WVFN ****  CONVERGENCE REACHED, FINAL GRADIENT:  0.35D-10



 Results for state 1.1
 =====================

 !MCSCF STATE 1.1 Energy             -182.231065019108
   --><property name="Energy" method="MCSCF" principal="true" stateSymmetry="1" stateNumber="1"
     value="-182.231065019108"/><!--
 Nuclear energy                         0.00000000
 Kinetic energy                        96.81502190
 One electron energy                 -345.04525118
 Two electron energy                  162.81418616
 Virial ratio                           2.88226023

 !MCSCF STATE 1.1 Dipole moment         0.00000000     0.00000000     0.00000000
 Dipole moment /Debye                   0.00000000     0.00000000     0.00000000
   --><property name="Dipole moment" method="MCSCF" principal="true" stateSymmetry="1"
     stateNumber="1" value="0.0 0.0 0.0"/><!--



 Results for state 1.4
 =====================

 !MCSCF STATE 1.4 Energy             -182.231065019108
   --><property name="Energy" method="MCSCF" principal="true" stateSymmetry="4" stateNumber="1"
     value="-182.231065019108"/><!--
 Nuclear energy                         0.00000000
 Kinetic energy                        96.81502190
 One electron energy                 -345.04525118
 Two electron energy                  162.81418616
 Virial ratio                           2.88226023

 !MCSCF STATE 1.4 Dipole moment         0.00000000     0.00000000     0.00000000
 Dipole moment /Debye                   0.00000000     0.00000000     0.00000000
   --><property name="Dipole moment" method="MCSCF" principal="true" stateSymmetry="4"
     stateNumber="1" value="0.0 0.0 0.0"/><!--

 Results for state 2.4
 =====================

 !MCSCF STATE 2.4 Energy             -182.231065019108
   --><property name="Energy" method="MCSCF" principal="true" stateSymmetry="4" stateNumber="2"
     value="-182.231065019108"/><!--
 Nuclear energy                         0.00000000
 Kinetic energy                        96.81502190
 One electron energy                 -345.04525118
 Two electron energy                  162.81418616
 Virial ratio                           2.88226023

 !MCSCF STATE 2.4 Dipole moment         0.00000000     0.00000000     0.00000000
 Dipole moment /Debye                   0.00000000     0.00000000     0.00000000
   --><property name="Dipole moment" method="MCSCF" principal="true" stateSymmetry="4"
     stateNumber="2" value="0.0 0.0 0.0"/><!--

 Results for state 3.4
 =====================

 !MCSCF STATE 3.4 Energy             -182.178918895381
   --><property name="Energy" method="MCSCF" principal="true" stateSymmetry="4" stateNumber="3"
     value="-182.178918895381"/><!--
 Nuclear energy                         0.00000000
 Kinetic energy                        96.81502190
 One electron energy                 -345.04525118
 Two electron energy                  162.86633228
 Virial ratio                           2.88172161

 !MCSCF STATE 3.4 Dipole moment         0.00000000     0.00000000     0.00000000
 Dipole moment /Debye                   0.00000000     0.00000000     0.00000000
   --><property name="Dipole moment" method="MCSCF" principal="true" stateSymmetry="4"
     stateNumber="3" value="0.0 0.0 0.0"/><!--



 Results for state 1.6
 =====================

 !MCSCF STATE 1.6 Energy             -182.231065019108
   --><property name="Energy" method="MCSCF" principal="true" stateSymmetry="6" stateNumber="1"
     value="-182.231065019108"/><!--
 Nuclear energy                         0.00000000
 Kinetic energy                        96.81502190
 One electron energy                 -345.04525118
 Two electron energy                  162.81418616
 Virial ratio                           2.88226023

 !MCSCF STATE 1.6 Dipole moment         0.00000000     0.00000000     0.00000000
 Dipole moment /Debye                   0.00000000     0.00000000     0.00000000
   --><property name="Dipole moment" method="MCSCF" principal="true" stateSymmetry="6"
     stateNumber="1" value="0.0 0.0 0.0"/><!--

 Results for state 2.6
 =====================

 !MCSCF STATE 2.6 Energy             -182.231065019108
   --><property name="Energy" method="MCSCF" principal="true" stateSymmetry="6" stateNumber="2"
     value="-182.231065019108"/><!--
 Nuclear energy                         0.00000000
 Kinetic energy                        96.81502190
 One electron energy                 -345.04525118
 Two electron energy                  162.81418616
 Virial ratio                           2.88226023

 !MCSCF STATE 2.6 Dipole moment         0.00000000     0.00000000     0.00000000
 Dipole moment /Debye                   0.00000000     0.00000000     0.00000000
   --><property name="Dipole moment" method="MCSCF" principal="true" stateSymmetry="6"
     stateNumber="2" value="0.0 0.0 0.0"/><!--

 Results for state 3.6
 =====================

 !MCSCF STATE 3.6 Energy             -182.178918895381
   --><property name="Energy" method="MCSCF" principal="true" stateSymmetry="6" stateNumber="3"
     value="-182.178918895381"/><!--
 Nuclear energy                         0.00000000
 Kinetic energy                        96.81502190
 One electron energy                 -345.04525118
 Two electron energy                  162.86633228
 Virial ratio                           2.88172161

 !MCSCF STATE 3.6 Dipole moment         0.00000000     0.00000000     0.00000000
 Dipole moment /Debye                   0.00000000     0.00000000     0.00000000
   --><property name="Dipole moment" method="MCSCF" principal="true" stateSymmetry="6"
     stateNumber="3" value="0.0 0.0 0.0"/><!--



 Results for state 1.7
 =====================

 !MCSCF STATE 1.7 Energy             -182.231065019108
   --><property name="Energy" method="MCSCF" principal="true" stateSymmetry="7" stateNumber="1"
     value="-182.231065019108"/><!--
 Nuclear energy                         0.00000000
 Kinetic energy                        96.81502190
 One electron energy                 -345.04525118
 Two electron energy                  162.81418616
 Virial ratio                           2.88226023

 !MCSCF STATE 1.7 Dipole moment         0.00000000     0.00000000     0.00000000
 Dipole moment /Debye                   0.00000000     0.00000000     0.00000000
   --><property name="Dipole moment" method="MCSCF" principal="true" stateSymmetry="7"
     stateNumber="1" value="0.0 0.0 0.0"/><!--

 Results for state 2.7
 =====================

 !MCSCF STATE 2.7 Energy             -182.231065019108
   --><property name="Energy" method="MCSCF" principal="true" stateSymmetry="7" stateNumber="2"
     value="-182.231065019108"/><!--
 Nuclear energy                         0.00000000
 Kinetic energy                        96.81502190
 One electron energy                 -345.04525118
 Two electron energy                  162.81418616
 Virial ratio                           2.88226023

 !MCSCF STATE 2.7 Dipole moment         0.00000000     0.00000000     0.00000000
 Dipole moment /Debye                   0.00000000     0.00000000     0.00000000
   --><property name="Dipole moment" method="MCSCF" principal="true" stateSymmetry="7"
     stateNumber="2" value="0.0 0.0 0.0"/><!--

 Results for state 3.7
 =====================

 !MCSCF STATE 3.7 Energy             -182.178918895381
   --><property name="Energy" method="MCSCF" principal="true" stateSymmetry="7" stateNumber="3"
     value="-182.178918895381"/><!--
 Nuclear energy                         0.00000000
 Kinetic energy                        96.81502190
 One electron energy                 -345.04525118
 Two electron energy                  162.86633228
 Virial ratio                           2.88172161

 !MCSCF STATE 3.7 Dipole moment         0.00000000     0.00000000     0.00000000
 Dipole moment /Debye                   0.00000000     0.00000000     0.00000000
   --><property name="Dipole moment" method="MCSCF" principal="true" stateSymmetry="7"
     stateNumber="3" value="0.0 0.0 0.0"/><!--

 State-averaged charge density matrix saved on record  5202.2 (density set 1)


 NATURAL ORBITALS (state averaged)
 =================================

   Orb     Occ        Energy       Coefficients

                                   1 1s      1 1s      1 1s      1 1s      1 1s      1 1s      1 1s      1 1s      1 1s      1 1s
                                   1 1s      1 1s      1 1s      1 1s      1 1s      1 1s      1 1s      1 1s      1 1s      1 1s
                                   1 1s      1 1s      1 1s      1 1s      1 1s      1 1s      1 1s      1 1s      1 1s      1 1s
                                   1 1s      1 1s      1 1s      1 1s      1 1s      1 1s      1 1s      1 1s      1 3d0     1 3d2+
                                   1 3d0     1 3d2+    1 3d0     1 3d2+    1 3d0     1 3d2+    1 3d0     1 3d2+    1 3d0     1 3d2+
                                   1 3d0     1 3d2+    1 3d0     1 3d2+    1 3d0     1 3d2+    1 3d0     1 3d2+    1 3d0     1 3d2+
                                   1 3d0     1 3d2+    1 3d0     1 3d2+    1 3d0     1 3d2+    1 3d0     1 3d2+    1 3d0     1 3d2+
                                   1 3d0     1 3d2+    1 3d0     1 3d2+    1 3d0     1 3d2+    1 3d0     1 3d2+    1 3d0     1 3d2+
                                   1 3d0     1 3d2+    1 5g0     1 5g4+    1 5g2+    1 5g0     1 5g4+    1 5g2+    1 5g0     1 5g4+
                                   1 5g2+    1 5g0     1 5g4+    1 5g2+    1 5g0     1 5g4+    1 5g2+    1 5g0     1 5g4+    1 5g2+
                                   1 5g0     1 5g4+    1 5g2+

   1.1  2.00000    -2.704573    -0.000000  0.000000 -0.000000  0.000000 -0.000000  0.000000 -0.000000  0.000000 -0.000000  0.000000
                                -0.000000  0.000001 -0.000002  0.000007 -0.000053 -0.000256  0.000296 -0.000778  0.002789  0.000204
                                -0.015394  0.167985 -0.256068  0.069699  0.457805 -0.891515 -0.369884  1.136668  0.400424  0.102628
                                -0.074278  0.108510 -0.164805  0.123365 -0.048963  0.018933 -0.004908  0.000877  0.000000  0.000000
                                 0.000000  0.000000  0.000000  0.000000  0.000000  0.000000  0.000000  0.000000  0.000000  0.000000
                                 0.000000  0.000000  0.000000  0.000000  0.000000  0.000000  0.000000  0.000000  0.000000  0.000000
                                 0.000000  0.000000  0.000000  0.000000  0.000000  0.000000  0.000000  0.000000  0.000000  0.000000
                                 0.000000  0.000000  0.000000  0.000000  0.000000  0.000000  0.000000  0.000000  0.000000  0.000000
                                 0.000000  0.000000  0.000000  0.000000  0.000000  0.000000  0.000000  0.000000  0.000000  0.000000
                                 0.000000  0.000000  0.000000  0.000000  0.000000  0.000000  0.000000  0.000000  0.000000  0.000000
                                 0.000000  0.000000  0.000000

   2.1  1.00000    -0.085702     0.000000 -0.000000  0.000000 -0.000000  0.000000 -0.000000  0.000000 -0.000000  0.000000 -0.000001
                                 0.000002 -0.000005  0.000013 -0.000042  0.000230  0.000729 -0.000487  0.000633 -0.000822 -0.000701
                                -0.000250  0.027783 -0.048328  0.003215  0.170508 -0.340924 -0.094206  0.490476  0.263724  0.112941
                                -0.329186 -0.501392 -0.218032 -0.181385 -0.049562  0.006701 -0.002121  0.000410  0.000000  0.000000
                                 0.000000  0.000000  0.000000  0.000000  0.000000  0.000000  0.000000  0.000000  0.000000  0.000000
                                 0.000000  0.000000  0.000000  0.000000  0.000000  0.000000  0.000000  0.000000  0.000000  0.000000
                                 0.000000  0.000000  0.000000  0.000000  0.000000  0.000000  0.000000  0.000000  0.000000  0.000000
                                 0.000000  0.000000  0.000000  0.000000  0.000000  0.000000  0.000000  0.000000  0.000000  0.000000
                                 0.000000  0.000000  0.000000  0.000000  0.000000  0.000000  0.000000  0.000000  0.000000  0.000000
                                 0.000000  0.000000  0.000000  0.000000  0.000000  0.000000  0.000000  0.000000  0.000000  0.000000
                                 0.000000  0.000000  0.000000

   3.1  0.40000    -0.265199     0.000000  0.000000  0.000000  0.000000  0.000000  0.000000  0.000000  0.000000  0.000000  0.000000
                                 0.000000  0.000000  0.000000  0.000000  0.000000  0.000000  0.000000  0.000000  0.000000  0.000000
                                 0.000000  0.000000  0.000000  0.000000  0.000000  0.000000  0.000000  0.000000  0.000000  0.000000
                                 0.000000  0.000000  0.000000  0.000000  0.000000  0.000000  0.000000  0.000000  0.000000  0.000000
                                -0.000001  0.000000  0.000004  0.000000 -0.000016  0.000000  0.000057  0.000000 -0.000180  0.000000
                                 0.000536  0.000000 -0.001675  0.000000  0.008143  0.000000 -0.019836  0.000000  0.018859  0.000000
                                -0.021694  0.000000  0.133293  0.000000 -0.478035  0.000000 -0.580075  0.000000 -0.142466  0.000000
                                -0.072126  0.000000  0.115898  0.000000 -0.070527  0.000000  0.017320  0.000000 -0.006899  0.000000
                                 0.001940  0.000000  0.000000  0.000000  0.000000  0.000000  0.000000  0.000000  0.000000  0.000000
                                 0.000000  0.000000  0.000000  0.000000  0.000000  0.000000  0.000000  0.000000  0.000000  0.000000
                                 0.000000  0.000000  0.000000

   4.1  0.40000    -0.265199     0.000000  0.000000  0.000000  0.000000  0.000000  0.000000  0.000000  0.000000  0.000000  0.000000
                                 0.000000  0.000000  0.000000  0.000000  0.000000  0.000000  0.000000  0.000000  0.000000  0.000000
                                 0.000000  0.000000  0.000000  0.000000  0.000000  0.000000  0.000000  0.000000  0.000000  0.000000
                                 0.000000  0.000000  0.000000  0.000000  0.000000  0.000000  0.000000  0.000000  0.000000 -0.000000
                                 0.000000  0.000001  0.000000 -0.000004  0.000000  0.000016  0.000000 -0.000057  0.000000  0.000180
                                 0.000000 -0.000536  0.000000  0.001675  0.000000 -0.008143  0.000000  0.019836  0.000000 -0.018859
                                 0.000000  0.021694  0.000000 -0.133293  0.000000  0.478035  0.000000  0.580075  0.000000  0.142466
                                 0.000000  0.072126  0.000000 -0.115898  0.000000  0.070527  0.000000 -0.017320  0.000000  0.006899
                                 0.000000 -0.001940  0.000000  0.000000  0.000000  0.000000  0.000000  0.000000  0.000000  0.000000
                                 0.000000  0.000000  0.000000  0.000000  0.000000  0.000000  0.000000  0.000000  0.000000  0.000000
                                 0.000000  0.000000  0.000000

                                   1 2px     1 2px     1 2px     1 2px     1 2px     1 2px     1 2px     1 2px     1 2px     1 2px
                                   1 2px     1 2px     1 2px     1 2px     1 2px     1 2px     1 2px     1 2px     1 2px     1 2px
                                   1 2px     1 2px     1 2px     1 2px     1 2px     1 2px     1 2px     1 2px     1 2px     1 2px
                                   1 2px     1 4f1+    1 4f3+    1 4f1+    1 4f3+    1 4f1+    1 4f3+    1 4f1+    1 4f3+    1 4f1+
                                   1 4f3+    1 4f1+    1 4f3+    1 4f1+    1 4f3+    1 4f1+    1 4f3+    1 4f1+    1 4f3+    1 4f1+
                                   1 4f3+    1 4f1+    1 4f3+    1 4f1+    1 4f3+    1 4f1+    1 4f3+    1 4f1+    1 4f3+    1 4f1+
                                   1 4f3+    1 6h1+    1 6h3+    1 6h5+    1 6h1+    1 6h3+    1 6h5+    1 6h1+    1 6h3+    1 6h5+


   1.2  2.00000    -1.734495     0.000000 -0.000000  0.000000 -0.000000  0.000000 -0.000000  0.000001 -0.000003  0.000011 -0.000035
                                 0.000103 -0.000288  0.000796 -0.002421  0.008941 -0.074114  0.180027 -0.342889  0.609919 -0.604947
                                -0.059029  0.760419 -0.051430  0.456608 -0.017338  0.047002  0.000678  0.017779 -0.000672  0.000323
                                -0.000076  0.000000  0.000000  0.000000  0.000000  0.000000  0.000000  0.000000  0.000000  0.000000
                                 0.000000  0.000000  0.000000  0.000000  0.000000  0.000000  0.000000  0.000000  0.000000  0.000000
                                 0.000000  0.000000  0.000000  0.000000  0.000000  0.000000  0.000000  0.000000  0.000000  0.000000
                                 0.000000  0.000000  0.000000  0.000000  0.000000  0.000000  0.000000  0.000000  0.000000  0.000000

   2.2  2.00000    -0.146727     0.000000  0.000000  0.000000  0.000000  0.000000  0.000000  0.000000  0.000000  0.000000  0.000000
                                 0.000000  0.000000  0.000000  0.000000  0.000000  0.000000  0.000000  0.000000  0.000000  0.000000
                                 0.000000  0.000000  0.000000  0.000000  0.000000  0.000000  0.000000  0.000000  0.000000  0.000000
                                 0.000000  0.000000  0.000013  0.000000 -0.000087  0.000000  0.000423  0.000000 -0.002053  0.000000
                                 0.021165  0.000000 -0.033704  0.000000  0.118035  0.000000  0.190809  0.000000  0.323488  0.000000
                                 0.389722  0.000000  0.258462  0.000000  0.140796  0.000000 -0.005703  0.000000  0.036960  0.000000
                                -0.007593  0.000000  0.000000  0.000000  0.000000  0.000000  0.000000  0.000000  0.000000  0.000000

   3.2  2.00000    -0.146727     0.000000  0.000000  0.000000  0.000000  0.000000  0.000000  0.000000  0.000000  0.000000  0.000000
                                 0.000000  0.000000  0.000000  0.000000  0.000000  0.000000  0.000000  0.000000  0.000000  0.000000
                                 0.000000  0.000000  0.000000  0.000000  0.000000  0.000000  0.000000  0.000000  0.000000  0.000000
                                 0.000000  0.000013  0.000000 -0.000087  0.000000  0.000423  0.000000 -0.002053  0.000000  0.021165
                                 0.000000 -0.033704  0.000000  0.118035  0.000000  0.190809  0.000000  0.323488  0.000000  0.389722
                                 0.000000  0.258462  0.000000  0.140796  0.000000 -0.005703  0.000000  0.036960  0.000000 -0.007593
                                 0.000000  0.000000  0.000000  0.000000  0.000000  0.000000  0.000000  0.000000  0.000000  0.000000

                                   1 2py     1 2py     1 2py     1 2py     1 2py     1 2py     1 2py     1 2py     1 2py     1 2py
                                   1 2py     1 2py     1 2py     1 2py     1 2py     1 2py     1 2py     1 2py     1 2py     1 2py
                                   1 2py     1 2py     1 2py     1 2py     1 2py     1 2py     1 2py     1 2py     1 2py     1 2py
                                   1 2py     1 4f1-    1 4f3-    1 4f1-    1 4f3-    1 4f1-    1 4f3-    1 4f1-    1 4f3-    1 4f1-
                                   1 4f3-    1 4f1-    1 4f3-    1 4f1-    1 4f3-    1 4f1-    1 4f3-    1 4f1-    1 4f3-    1 4f1-
                                   1 4f3-    1 4f1-    1 4f3-    1 4f1-    1 4f3-    1 4f1-    1 4f3-    1 4f1-    1 4f3-    1 4f1-
                                   1 4f3-    1 6h1-    1 6h3-    1 6h5-    1 6h1-    1 6h3-    1 6h5-    1 6h1-    1 6h3-    1 6h5-


   1.3  2.00000    -1.734495     0.000000 -0.000000  0.000000 -0.000000  0.000000 -0.000000  0.000001 -0.000003  0.000011 -0.000035
                                 0.000103 -0.000288  0.000796 -0.002421  0.008941 -0.074114  0.180027 -0.342889  0.609919 -0.604947
[...]
                                 0.000000 -0.033704  0.000000  0.118035  0.000000  0.190809  0.000000  0.323488  0.000000  0.389722
                                 0.000000  0.258462  0.000000  0.140796  0.000000 -0.005703  0.000000  0.036960  0.000000 -0.007593
                                 0.000000  0.000000  0.000000  0.000000  0.000000  0.000000  0.000000  0.000000  0.000000  0.000000

                                   1 3d2-    1 3d2-    1 3d2-    1 3d2-    1 3d2-    1 3d2-    1 3d2-    1 3d2-    1 3d2-    1 3d2-
                                   1 3d2-    1 3d2-    1 3d2-    1 3d2-    1 3d2-    1 3d2-    1 3d2-    1 3d2-    1 3d2-    1 3d2-
                                   1 3d2-    1 3d2-    1 5g2-    1 5g4-    1 5g2-    1 5g4-    1 5g2-    1 5g4-    1 5g2-    1 5g4-
                                   1 5g2-    1 5g4-    1 5g2-    1 5g4-    1 5g2-    1 5g4-

   1.4  0.40000    -0.265199    -0.000000  0.000001 -0.000004  0.000016 -0.000057  0.000180 -0.000536  0.001675 -0.008143  0.019836
                                -0.018859  0.021694 -0.133293  0.478035  0.580075  0.142466  0.072126 -0.115898  0.070527 -0.017320
                                 0.006899 -0.001940  0.000000  0.000000  0.000000  0.000000  0.000000  0.000000  0.000000  0.000000
                                 0.000000  0.000000  0.000000  0.000000  0.000000  0.000000

                                   1 2pz     1 2pz     1 2pz     1 2pz     1 2pz     1 2pz     1 2pz     1 2pz     1 2pz     1 2pz
                                   1 2pz     1 2pz     1 2pz     1 2pz     1 2pz     1 2pz     1 2pz     1 2pz     1 2pz     1 2pz
                                   1 2pz     1 2pz     1 2pz     1 2pz     1 2pz     1 2pz     1 2pz     1 2pz     1 2pz     1 2pz
                                   1 2pz     1 4f0     1 4f2+    1 4f0     1 4f2+    1 4f0     1 4f2+    1 4f0     1 4f2+    1 4f0
                                   1 4f2+    1 4f0     1 4f2+    1 4f0     1 4f2+    1 4f0     1 4f2+    1 4f0     1 4f2+    1 4f0
                                   1 4f2+    1 4f0     1 4f2+    1 4f0     1 4f2+    1 4f0     1 4f2+    1 4f0     1 4f2+    1 4f0
                                   1 4f2+    1 6h2+    1 6h4+    1 6h0     1 6h2+    1 6h4+    1 6h0     1 6h2+    1 6h4+    1 6h0


   1.5  2.00000    -1.734495     0.000000 -0.000000  0.000000 -0.000000  0.000000 -0.000000  0.000001 -0.000003  0.000011 -0.000035
                                 0.000103 -0.000288  0.000796 -0.002421  0.008941 -0.074114  0.180027 -0.342889  0.609919 -0.604947
                                -0.059029  0.760419 -0.051430  0.456608 -0.017338  0.047002  0.000678  0.017779 -0.000672  0.000323
                                -0.000076  0.000000  0.000000  0.000000  0.000000  0.000000  0.000000  0.000000  0.000000  0.000000
                                 0.000000  0.000000  0.000000  0.000000  0.000000  0.000000  0.000000  0.000000  0.000000  0.000000
                                 0.000000  0.000000  0.000000  0.000000  0.000000  0.000000  0.000000  0.000000  0.000000  0.000000
                                 0.000000  0.000000  0.000000  0.000000  0.000000  0.000000  0.000000  0.000000  0.000000  0.000000

   2.5  2.00000    -0.146727     0.000000 -0.000000  0.000000 -0.000000  0.000000 -0.000000  0.000000 -0.000000  0.000000 -0.000000
                                 0.000000 -0.000000  0.000000 -0.000000  0.000000 -0.000000  0.000000 -0.000000  0.000000 -0.000000
                                -0.000000  0.000000 -0.000000  0.000000 -0.000000  0.000000  0.000000  0.000000 -0.000000  0.000000
                                -0.000000  0.000013  0.000000 -0.000087  0.000000  0.000423  0.000000 -0.002053  0.000000  0.021165
                                 0.000000 -0.033704  0.000000  0.118035  0.000000  0.190809  0.000000  0.323488  0.000000  0.389722
                                 0.000000  0.258462  0.000000  0.140796  0.000000 -0.005703  0.000000  0.036960  0.000000 -0.007593
                                 0.000000  0.000000  0.000000  0.000000  0.000000  0.000000  0.000000  0.000000  0.000000  0.000000

   3.5  2.00000    -0.146727     0.000000  0.000000  0.000000  0.000000  0.000000  0.000000  0.000000  0.000000  0.000000  0.000000
                                 0.000000  0.000000  0.000000  0.000000  0.000000  0.000000  0.000000  0.000000  0.000000  0.000000
                                 0.000000  0.000000  0.000000  0.000000  0.000000  0.000000  0.000000  0.000000  0.000000  0.000000
                                 0.000000  0.000000  0.000013  0.000000 -0.000087  0.000000  0.000423  0.000000 -0.002053  0.000000
                                 0.021165  0.000000 -0.033704  0.000000  0.118035  0.000000  0.190809  0.000000  0.323488  0.000000
                                 0.389722  0.000000  0.258462  0.000000  0.140796  0.000000 -0.005703  0.000000  0.036960  0.000000
                                -0.007593  0.000000  0.000000  0.000000  0.000000  0.000000  0.000000  0.000000  0.000000  0.000000

                                   1 3d1+    1 3d1+    1 3d1+    1 3d1+    1 3d1+    1 3d1+    1 3d1+    1 3d1+    1 3d1+    1 3d1+
                                   1 3d1+    1 3d1+    1 3d1+    1 3d1+    1 3d1+    1 3d1+    1 3d1+    1 3d1+    1 3d1+    1 3d1+
                                   1 3d1+    1 3d1+    1 5g1+    1 5g3+    1 5g1+    1 5g3+    1 5g1+    1 5g3+    1 5g1+    1 5g3+
                                   1 5g1+    1 5g3+    1 5g1+    1 5g3+    1 5g1+    1 5g3+

   1.6  0.40000    -0.265199    -0.000000  0.000001 -0.000004  0.000016 -0.000057  0.000180 -0.000536  0.001675 -0.008143  0.019836
                                -0.018859  0.021694 -0.133293  0.478035  0.580075  0.142466  0.072126 -0.115898  0.070527 -0.017320
                                 0.006899 -0.001940  0.000000  0.000000  0.000000  0.000000  0.000000  0.000000  0.000000  0.000000
                                 0.000000  0.000000  0.000000  0.000000  0.000000  0.000000

                                   1 3d1-    1 3d1-    1 3d1-    1 3d1-    1 3d1-    1 3d1-    1 3d1-    1 3d1-    1 3d1-    1 3d1-
                                   1 3d1-    1 3d1-    1 3d1-    1 3d1-    1 3d1-    1 3d1-    1 3d1-    1 3d1-    1 3d1-    1 3d1-
                                   1 3d1-    1 3d1-    1 5g1-    1 5g3-    1 5g1-    1 5g3-    1 5g1-    1 5g3-    1 5g1-    1 5g3-
                                   1 5g1-    1 5g3-    1 5g1-    1 5g3-    1 5g1-    1 5g3-

   1.7  0.40000    -0.265199    -0.000000  0.000001 -0.000004  0.000016 -0.000057  0.000180 -0.000536  0.001675 -0.008143  0.019836
                                -0.018859  0.021694 -0.133293  0.478035  0.580075  0.142466  0.072126 -0.115898  0.070527 -0.017320
                                 0.006899 -0.001940  0.000000  0.000000  0.000000  0.000000  0.000000  0.000000  0.000000  0.000000
                                 0.000000  0.000000  0.000000  0.000000  0.000000  0.000000

                                   1 4f2-    1 4f2-    1 4f2-    1 4f2-    1 4f2-    1 4f2-    1 4f2-    1 4f2-    1 4f2-    1 4f2-
                                   1 4f2-    1 4f2-    1 4f2-    1 4f2-    1 4f2-    1 6h4-    1 6h2-    1 6h4-    1 6h2-    1 6h4-
                                   1 6h2-

   1.8  2.00000    -0.146727     0.000013 -0.000087  0.000423 -0.002053  0.021165 -0.033704  0.118035  0.190809  0.323488  0.389722
                                 0.258462  0.140796 -0.005703  0.036960 -0.007593  0.000000  0.000000  0.000000  0.000000  0.000000
                                 0.000000


 EXTRA SYMMETRY OF MOS IN SYMMETRY 1:   1 1 2 3 1 3 2 1 3 2   1 3 2 1 3 2 1 6 5 4   2 3 1 4 6 5 2 3 1 2   3 6 5 4 1 5 4 6 2 3
                                        1 6 5 4 1 2 3 6 5 4   1 3 2 3 2 1 4 5 6 3   2 1 3 2 1 1 3 2 1 2   3 1 1 2 3 1 2 3 1 1
                                        3 2 1 3 2 1 1 3 2 1   1 3 2 1 1 1 1 1 1 1   1 1 1
 EXTRA SYMMETRY OF MOS IN SYMMETRY 2:   1 3 2 1 1 1 3 2 1 3   2 1 1 3 2 2 3 1 2 3   1 5 6 4 2 3 1 6 4 5   1 3 2 1 6 5 4 3 2 1
                                        3 2 1 1 3 2 1 2 3 1   1 2 3 1 2 3 1 1 2 3   1 1 1 1 1 1 1 1 1 1
 EXTRA SYMMETRY OF MOS IN SYMMETRY 3:   1 3 2 1 1 1 3 2 1 3   2 1 1 3 2 3 2 1 3 2   1 4 6 5 2 3 1 4 6 5   1 3 2 1 4 5 6 3 2 1
                                        3 2 1 1 3 2 1 3 2 1   1 3 2 1 3 2 1 1 3 2   1 1 1 1 1 1 1 1 1 1
 EXTRA SYMMETRY OF MOS IN SYMMETRY 4:   1 1 1 1 1 2 3 1 3 2   1 1 3 2 3 2 1 3 2 1   3 2 1 1 3 2 1 1 1 1   1 1 1 1 1 1
 EXTRA SYMMETRY OF MOS IN SYMMETRY 5:   1 2 3 1 1 1 3 2 1 2   3 1 1 2 3 2 3 1 3 2   1 6 4 5 3 2 1 6 5 4   1 2 3 1 6 4 5 2 3 1
                                        2 3 1 1 2 3 1 2 3 1   1 2 3 1 3 2 1 1 2 3   1 1 1 1 1 1 1 1 1 1
 EXTRA SYMMETRY OF MOS IN SYMMETRY 6:   1 1 1 1 1 3 2 1 2 3   1 1 2 3 2 3 1 2 3 1   2 3 1 1 2 3 1 1 1 1   1 1 1 1 1 1
 EXTRA SYMMETRY OF MOS IN SYMMETRY 7:   1 1 1 1 1 3 2 1 2 3   1 1 2 3 2 3 1 2 3 1   2 3 1 1 2 3 1 1 1 1   1 1 1 1 1 1
 EXTRA SYMMETRY OF MOS IN SYMMETRY 8:   1 1 1 1 1 1 2 3 1 3   2 1 3 2 1 1 1 1 1 1   1

 Natural orbital dump (state averaged) at molpro section  5202.2    (Orbital set 2)


 CI vector for state symmetry 1
 ==============================

 /// 0 0 0          1.0000000

 TOTAL ENERGIES                      -182.23106502

 CI vector for state symmetry 2
 ==============================

 //0 / 0 0          0.0000000   1.0000000   0.0000000
 /00 0 / /          0.8944272   0.0000000   0.4472136
 /0/ / 0 0         -0.4472136   0.0000000   0.8944272

 TOTAL ENERGIES                      -182.23106502  -182.23106502  -182.17891890

 CI vector for state symmetry 3
 ==============================

 /00 / 0 /          0.8924959  -0.0587454   0.4472136
 /0/ 0 / 0         -0.1662440   0.8788418   0.4472136
 //0 0 / 0         -0.4193017  -0.4734829   0.7745967

 TOTAL ENERGIES                      -182.23106502  -182.23106502  -182.17891890

 CI vector for state symmetry 4
 ==============================

 /00 / / 0          0.8894123   0.0945817   0.4472136
 /0/ 0 0 /          0.1307747   0.8848152  -0.4472136
 //0 0 0 /         -0.4379996   0.4562415   0.7745967

 TOTAL ENERGIES                      -182.23106502  -182.23106502  -182.17891890



 **********************************************************************************************************************************
 DATASETS  * FILE   NREC   LENGTH (MB)   RECORD NAMES
              1      20       67.98       500      610      700      900      950      970     1000      129      960     1100
                                          VAR    BASINP    GEOM    SYMINP    ZMAT    AOBASIS   BASIS     P2S    ABASIS      S
                                         1400     1410     1420     1200     1210     1080     1600     1650     1700     1380
                                           T        V       ECP      H0       H01     AOSYM     SMH    MOLCAS    OPER     JKOP

              2       6        9.83       200      700     1000      520     4202     5202
                                        OPTIONS   GEOM     BASIS   MCVARS     RHF     MCSCF

 PROGRAMS   *        TOTAL     MULTI       POP       RHF       INT
 CPU TIMES  *       180.44      9.65      0.01     10.19    160.18
 REAL TIME  *       193.08 SEC
 DISK USED  *         8.15 GB
 SF USED    *       192.54 MB
 GA USED    *         0.00 MB       (max)       0.00 MB       (current)
 **********************************************************************************************************************************
   -->
   <time start="18:12:04" end="18:12:14" cpu="9.65" system="0.74" real="10.5"/>
   <storage units="megabyte" memory="8001.84" sf="192.54" df="352.05" eaf="7796.42"
     ga="0.0"/>
  </jobstep><!--
  --><jobstep command="RHF-SCF" commandset="SCFPRO">
   <!--


 PROGRAM * RHF-SCF (OPEN SHELL)       Authors: W. Meyer, H.-J. Werner


 NUMBER OF ELECTRONS:      14+   11-    SPACE SYMMETRY=1    SPIN SYMMETRY: Quartet
 CONVERGENCE THRESHOLDS:    1.00E-05 (Density)    1.00E-07 (Energy)
 MAX. NUMBER OF ITERATIONS:        0
 INTERPOLATION TYPE:            DIIS
 INTERPOLATION STEPS:              2 (START)      1 (STEP)
 LEVEL SHIFTS:                 -0.60 (CLOSED) -0.30 (OPEN)

 Number of closed-shell orbitals:   11 (   1   3   3   0   3   0   0   1 )
 Number of open-shell orbitals:      3 (   3   0   0   0   0   0   0   0 )


 Molecular orbitals read from record     5202.2  Type=MCSCF/NATURAL (state averaged)

 Molecular orbital dump at record        2106.2

 ITERATION    DDIFF          GRAD             ENERGY        2-EL.EN.            DIPOLE MOMENTS         DIIS   ORB.
    1      0.000D+00      0.000D+00      -182.23106502    325.628372    0.00000    0.00000    0.00000    0    start

 Final alpha occupancy:   4   3   3   0   3   0   0   1
 Final beta  occupancy:   1   3   3   0   3   0   0   1

 !RHF STATE 1.1 Energy               -182.231065019107
   --><property name="Energy" method="RHF" principal="true" stateSymmetry="1" stateNumber="1"
     value="-182.231065019107"/><!--
 Nuclear energy                         0.00000000
 One-electron energy                 -345.04525118
 Two-electron energy                  162.81418616
 Virial quotient                       -1.88226023
 !RHF STATE 1.1 Dipole moment           0.00000000     0.00000000     0.00000000
 Dipole moment /Debye                   0.00000000     0.00000000     0.00000000
   --><property name="Dipole moment" method="RHF" principal="true" stateSymmetry="1"
     stateNumber="1" value="0.0 0.0 0.0"/><!--

 Orbital energies:

         1.1          2.1          3.1          4.1          5.1          6.1
     -2.704573    -0.085702    -0.265199    -0.265199     0.002791     0.011361

         1.2          2.2          3.2          4.2          5.2
     -1.734495    -0.146727    -0.146727     0.005447     0.017029

         1.3          2.3          3.3          4.3          5.3
     -1.734495    -0.146727    -0.146727     0.005447     0.017029

         1.4          2.4
     -0.265199     0.011361

         1.5          2.5          3.5          4.5          5.5
     -1.734495    -0.146727    -0.146727     0.005447     0.017029

         1.6          2.6
     -0.265199     0.011361

         1.7          2.7
     -0.265199     0.011361

         1.8          2.8          3.8
     -0.146727     0.059739     0.158760

 HOMO      3.2    -0.146727 =      -3.9927eV
 LUMO      1.4    -0.265199 =      -7.2164eV
 LUMO-HOMO        -0.118472 =      -3.2238eV


 **********************************************************************************************************************************
 DATASETS  * FILE   NREC   LENGTH (MB)   RECORD NAMES
              1      20       67.98       500      610      700      900      950      970     1000      129      960     1100
                                          VAR    BASINP    GEOM    SYMINP    ZMAT    AOBASIS   BASIS     P2S    ABASIS      S
                                         1400     1410     1420     1200     1210     1080     1600     1650     1700     1380
                                           T        V       ECP      H0       H01     AOSYM     SMH    MOLCAS    OPER     JKOP

              2       7       14.50       200      700     1000      520     4202     5202     2106
                                        OPTIONS   GEOM     BASIS   MCVARS     RHF     MCSCF     RHF

 PROGRAMS   *        TOTAL       RHF     MULTI       POP       RHF       INT
 CPU TIMES  *       180.64      0.19      9.65      0.01     10.19    160.18
 REAL TIME  *       193.30 SEC
 DISK USED  *         8.15 GB
 SF USED    *       192.54 MB
 GA USED    *         0.00 MB       (max)       0.00 MB       (current)
 **********************************************************************************************************************************
   -->
   <time start="18:12:14" end="18:12:14" cpu="0.2" system="0.01" real="0.22"/>
   <storage units="megabyte" memory="8001.84" sf="192.54" df="352.05" eaf="7796.42"
     ga="0.0"/>
  </jobstep><!--
 SETTING SCF(3)         =      -182.23106502  AU
 SETTING _CC_NORM_MAX   =         2.00000000
  --><jobstep command="RCCSD(T)" commandset="CCSD">
   <!--


 PROGRAM * CCSD (Restricted open-shell coupled cluster)     Authors: C. Hampel, H.-J. Werner, 1991, M. Deegan, P.J. Knowles, 1992


 Convergence thresholds:  THRVAR = 1.00D-08  THRDEN = 1.00D-06

 CCSD(T)     terms to be evaluated (factor= 1.000)


 Number of closed-shell orbitals:  11 (   1   3   3   0   3   0   0   1 )
 Number of active  orbitals:        3 (   3   0   0   0   0   0   0   0 )
 Number of external orbitals:     428 (  99  67  67  36  67  36  36  20 )

 Memory could be reduced to 228.52 Mwords without degradation in triples

 Number of N-1 electron functions:              25
 Number of N-2 electron functions:             300
 Number of singly external CSFs:              1756
 Number of doubly external CSFs:           5376146
 Total number of CSFs:                     5377902

 Molecular orbitals read from record     2106.2  Type=RHF/CANONICAL (state 1.1)

 Integral transformation finished. Total CPU:   7.17 sec, npass=  1  Memory used:  43.69 MW

 Starting RMP2 calculation

 Wavefunction is spin-projected

 ITER.      SQ.NORM     CORR.ENERGY   TOTAL ENERGY   ENERGY CHANGE        DEN1      VAR(S)    VAR(P)  DIIS     TIME
   1      8.33385751    -3.65344763  -185.88451265    -3.65344763    -0.85101836  0.10D-03  0.19D+01  0  0     8.59
   2     18.76417943    -4.50446600  -186.73553102    -0.85101836    -1.07938325  0.21D-04  0.24D+01  0  0     9.06
   3     36.90857890    -5.44360613  -187.67467115    -0.93914013    -1.46354885  0.59D-05  0.33D+01  0  0     9.52

 UNREASONABLE NORM: 36.908579 CALCULATION WILL BE STOPPED

 The threshold can be changed using option CC_NORM_MAX (see manual). The current value is CC_NORM_MAX=2.00

 Norm of t1 vector:      0.04631545      S-energy:    -0.00452343      T1 diagnostic:  0.00328996
 Norm of t2 vector:      5.99219774      P-energy:    -5.43908270
                                         Alpha-Beta:  -3.37948155
                                         Alpha-Alpha: -0.65754193
                                         Beta-Beta:   -1.40205922

 Spin contamination <S**2-Sz**2-Sz>     0.00000000


 RESULTS
 =======

  Reference energy                   -182.231065019108
   --><property name="energy" method="Reference" stateSymmetry="1" stateNumber="1"
     value="-182.231065019108"/><!--
  RCCSD singles energy                 -0.004523428157
   --><property name="energy" method="RCCSD singles" stateSymmetry="1" stateNumber="1"
     value="-0.452342815718509E-02"/><!--
  RCCSD pair energy                    -5.439082702759
   --><property name="energy" method="RCCSD pair" stateSymmetry="1" stateNumber="1"
     value="-5.43908270275945"/><!--
  RCCSD correlation energy             -5.443606130917
   --><property name="energy" method="RCCSD correlation" stateSymmetry="1" stateNumber="1"
     value="-5.44360613091663"/><!--

 !RHF-RCCSD energy                   -187.674671150024
   --><property name="energy" method="RHF-RCCSD" principal="true" stateSymmetry="1"
     stateNumber="1" value="-187.674671150024"/><!--

 Program statistics:

 Available memory in ccsd:               999998192
 Min. memory needed in ccsd:              15032911
 Max. memory used in ccsd:                21758253
 Max. memory used in cckext:                     0 ( 0 integral passes)
 Max. memory used in cckint:              43689100 ( 1 integral passes)


 ? Error
 ? No convergence. This error exit can be avoided using the NOCHECK option
 ? The problem occurs in ccsd
   --><error type="Error" location="ccsd"
     message="No convergence. This error exit can be avoided using the NOCHECK option"/><!--
  --></jobstep><!--
  -->
  <input>
  <!--
 --></job><!--
--></molpro>
