<?xml version="1.0"?>
<molpro xmlns="http://www.molpro.net/schema/molpro-output"
  xmlns:xsd="http://www.w3.org/1999/XMLSchema"
  xmlns:cml="http://www.xml-cml.org/schema"
  xmlns:stm="http://www.xml-cml.org/schema"
  xmlns:xhtml="http://www.w3.org/1999/xhtml">
 <!--

 Nodes     nprocs
 nid01708    11
 Number of processes for MPI-2 version of Molpro:   nprocs(total)=   12   nprocs(compute)=   11   nprocs(helper)=    1

 Using customized tuning parameters: mindgm=7; mindgv=16; mindgc=1; mindgr=1; noblas=0; minvec=7
 default implementation of scratch files=sf

 --><job>
  <!--

 Variables initialized (889), CPU time= 0.02 sec
 Commands  initialized (702), CPU time= 0.01 sec, 572 directives.
 Default parameters read. Elapsed time= 0.16 sec

 Checking input...
 Passed
1


                                         ***  PROGRAM SYSTEM MOLPRO  ***
                                       Copyright, TTI GmbH Stuttgart, 2015
                                    Version 2015.1 linked Dec 29 2018 15:55:43


 **********************************************************************************************************************************
 LABEL *   Calculation for GdH3 atom, singlet and triplet
  64 bit mpp version                                                                     DATE: 31-Dec-22          TIME: 06:46:32
 **********************************************************************************************************************************

 SHA1:             19cd028119e0e09f93f0674bd8af7968d9b3eff6
 **********************************************************************************************************************************
  -->
  <!--

 THRESHOLDS:

 ZERO    =  1.00D-12  ONEINT  =  1.00D-12  TWOINT  =  1.00D-15  PREFAC  =  1.00D-14  LOCALI  =  1.00D-09  EORDER  =  1.00D-04
 ENERGY  =  0.00D+00  ETEST   =  0.00D+00  EDENS   =  0.00D+00  THRDEDEF=  1.00D-06  GRADIENT=  1.00D-02  STEP    =  1.00D-03
 ORBITAL =  1.00D-05  CIVEC   =  1.00D-05  COEFF   =  1.00D-04  PRINTCI =  5.00D-02  PUNCHCI =  9.90D+01  OPTGRAD =  3.00D-04
 OPTENERG=  1.00D-06  OPTSTEP =  3.00D-04  THRGRAD =  1.00D-10  COMPRESS=  1.00D-11  VARMIN  =  1.00D-07  VARMAX  =  1.00D-03
 THRDOUB =  0.00D+00  THRDIV  =  1.00D-05  THRRED  =  1.00D-07  THRPSP  =  1.00D+00  THRDC   =  1.00D-10  THRCS   =  1.00D-10
 THRNRM  =  1.00D-08  THREQ   =  0.00D+00  THRDE   =  1.00D+00  THRREF  =  1.00D-05  SPARFAC =  1.00D+00  THRDLP  =  1.00D-07
 THRDIA  =  1.00D-10  THRDLS  =  1.00D-07  THRGPS  =  0.00D+00  THRKEX  =  0.00D+00  THRDIS  =  2.00D-01  THRVAR  =  1.00D-10
 THRLOC  =  1.00D-06  THRGAP  =  1.00D-06  THRLOCT = -1.00D+00  THRGAPT = -1.00D+00  THRORB  =  1.00D-06  THRMLTP =  0.00D+00
 THRCPQCI=  1.00D-10  KEXTA   =  0.00D+00  THRCOARS=  0.00D+00  SYMTOL  =  1.00D-06  GRADTOL =  1.00D-06  THROVL  =  1.00D-08
 THRORTH =  1.00D-08  GRID    =  1.00D-06  GRIDMAX =  1.00D-03  DTMAX   =  0.00D+00  THROCCDE=  1.00D-01  THROCCDE=  1.00D-01



 THRESHOLDS:

 ZERO    =  1.00D-12  ONEINT  =  1.00D-12  TWOINT  =  1.00D-15  PREFAC  =  1.00D-14  LOCALI  =  1.00D-09  EORDER  =  1.00D-04
 ENERGY  =  0.00D+00  ETEST   =  0.00D+00  EDENS   =  0.00D+00  THRDEDEF=  1.00D-06  GRADIENT=  1.00D-02  STEP    =  1.00D-03
 ORBITAL =  1.00D-05  CIVEC   =  1.00D-05  COEFF   =  1.00D-04  PRINTCI =  5.00D-02  PUNCHCI =  9.90D+01  OPTGRAD =  3.00D-04
 OPTENERG=  1.00D-06  OPTSTEP =  3.00D-04  THRGRAD =  1.00D-10  COMPRESS=  1.00D-11  VARMIN  =  1.00D-07  VARMAX  =  1.00D-03
 THRDOUB =  0.00D+00  THRDIV  =  1.00D-05  THRRED  =  1.00D-07  THRPSP  =  1.00D+00  THRDC   =  1.00D-10  THRCS   =  1.00D-10
 THRNRM  =  1.00D-08  THREQ   =  0.00D+00  THRDE   =  1.00D+00  THRREF  =  1.00D-05  SPARFAC =  1.00D+00  THRDLP  =  1.00D-07
 THRDIA  =  1.00D-10  THRDLS  =  1.00D-07  THRGPS  =  0.00D+00  THRKEX  =  0.00D+00  THRDIS  =  2.00D-01  THRVAR  =  1.00D-10
 THRLOC  =  1.00D-06  THRGAP  =  1.00D-06  THRLOCT = -1.00D+00  THRGAPT = -1.00D+00  THRORB  =  1.00D-06  THRMLTP =  0.00D+00
 THRCPQCI=  1.00D-10  KEXTA   =  0.00D+00  THRCOARS=  0.00D+00  SYMTOL  =  1.00D-06  GRADTOL =  1.00D-06  THROVL  =  1.00D-15
 THRORTH =  1.00D-08  GRID    =  1.00D-06  GRIDMAX =  1.00D-03  DTMAX   =  0.00D+00  THROCCDE=  1.00D-01  THROCCDE=  1.00D-01



 Variable memory set to 1000000000 words,  buffer space   230000 words

 SETTING BASIS          =    USERDEF
 SETTING GD_CCSD        =      -108.94859710
 SETTING H_CCSD         =        -0.49982987
 SETTING NE             =        19.00000000
 SETTING SYMM           =         4.00000000
 SETTING SS             =         7.00000000
 SETTING A1             =         6.00000000
 SETTING B1             =         3.00000000
 SETTING B2             =         3.00000000
 SETTING A2             =         1.00000000
 ZUNIT=ANG


Geometry recognized as XYZ

  --><jobstep command="RKS-SCF" commandset="SCFPRO">
   <!--


 Recomputing integrals since basis changed


 Using spherical harmonics



 PROGRAM * SEWARD (Integral evaluation for generally contracted gaussian basis sets)     Author: Roland Lindh, 1990

 Geometry written to block  1 of record 700


 Point group  C2v


   --><cml:molecule>
    <cml:symmetry pointGroup="C2v"/>
    <cml:atomArray>
     <cml:atom id="a1" elementType="Gd" x3="0.0" y3="0.0" z3="0.0"/>
     <cml:atom id="a2" elementType="H" x3="0.0" y3="0.0" z3="2.1"/>
    </cml:atomArray>
    <cml:bondArray>
     <cml:bond atomRefs2="a1 a2"/>
    </cml:bondArray>
   </cml:molecule><!--

 ATOMIC COORDINATES

 NR  ATOM    CHARGE       X              Y              Z

   1  GD     18.00    0.000000000    0.000000000    0.000000000
   2  H       1.00    0.000000000    0.000000000    3.968424862

 Bond lengths in Bohr (Angstrom)

 1-2  3.968424862
     ( 2.100000000)

 NUCLEAR CHARGE:                   19
 NUMBER OF PRIMITIVE AOS:         619
 NUMBER OF SYMMETRY AOS:          469
 NUMBER OF CONTRACTIONS:          469   ( 183A1  + 112B1  + 112B2  +  62A2  )
 NUMBER OF CORE ORBITALS:           0   (   0A1  +   0B1  +   0B2  +   0A2  )
 NUMBER OF VALENCE ORBITALS:       18   (   8A1  +   4B1  +   4B2  +   2A2  )


 NUCLEAR REPULSION ENERGY    4.53580467

 EXTRA SYMMETRY OF AOS IN SYMMETRY 1:   1 1 1 1 1 1 1 1 1 1   1 1 1 1 1 1 1 1 1 1   1 1 1 1 1 1 1 1 1 1   1 1 1 1 1 1 1 1 1 1
                                        1 1 1 1 1 1 1 1 1 1   1 1 1 1 1 1 1 1 1 1   1 1 1 2 1 2 1 2 1 2   1 2 1 2 1 2 1 2 1 2
                                        1 2 1 2 1 2 1 2 1 2   1 2 1 2 1 2 1 2 1 2   1 2 1 2 1 2 1 2 1 2   1 2 1 2 1 2 1 2 1 2
                                        1 2 1 2 1 2 1 2 1 2   1 2 1 2 1 3 2 1 3 2   1 3 2 1 3 2 1 3 2 1   3 2 1 3 2 1 3 2 1 3
                                        2 2 3 1 2 3 1 2 3 1   1 1 1 1 1 1 1 1 1 1   2 1 2
 EXTRA SYMMETRY OF AOS IN SYMMETRY 2:   1 1 1 1 1 1 1 1 1 1   1 1 1 1 1 1 1 1 1 1   1 1 1 1 1 1 1 1 1 1   1 1 1 1 1 1 1 1 1 1
                                        1 1 1 1 1 1 1 1 1 1   1 1 1 2 1 2 1 2 1 2   1 2 1 2 1 2 1 2 1 2   1 2 1 2 1 2 1 2 1 2
                                        1 2 1 2 1 2 1 2 1 2   1 2 1 2 1 2 1 2 1 2   3 1 2 3 1 2 3 1 1 1   1 1
 EXTRA SYMMETRY OF AOS IN SYMMETRY 3:   1 1 1 1 1 1 1 1 1 1   1 1 1 1 1 1 1 1 1 1   1 1 1 1 1 1 1 1 1 1   1 1 1 1 1 1 1 1 1 1
                                        1 1 1 1 1 1 1 1 1 1   1 1 1 2 1 2 1 2 1 2   1 2 1 2 1 2 1 2 1 2   1 2 1 2 1 2 1 2 1 2
                                        1 2 1 2 1 2 1 2 1 2   1 2 1 2 1 2 1 2 1 2   3 1 2 3 1 2 3 1 1 1   1 1
 EXTRA SYMMETRY OF AOS IN SYMMETRY 4:   1 1 1 1 1 1 1 1 1 1   1 1 1 1 1 1 1 1 1 1   1 1 1 1 1 1 1 1 1 1   1 1 1 1 1 1 1 2 1 2
                                        1 2 1 2 1 2 1 2 1 2   1 2 1 2 2 1 2 1 2 1   1 1

 Eigenvalues of metric

         1 0.115E-06 0.304E-06 0.611E-06 0.722E-06 0.727E-06 0.740E-06 0.134E-05 0.432E-05
         2 0.616E-06 0.727E-06 0.439E-05 0.139E-04 0.238E-04 0.448E-04 0.884E-04 0.148E-03
         3 0.616E-06 0.727E-06 0.439E-05 0.139E-04 0.238E-04 0.448E-04 0.884E-04 0.148E-03
         4 0.727E-06 0.238E-04 0.149E-03 0.540E-03 0.826E-03 0.926E-03 0.420E-02 0.882E-02


 Contracted 2-electron integrals neglected if value below      1.0D-15
 AO integral compression algorithm  1   Integral accuracy      1.0D-15

     5641.077 MB (compressed) written to integral file ( 48.4%)

     Node minimum: 318.243 MB, node maximum: 741.343 MB


 NUMBER OF SORTED TWO-ELECTRON INTEGRALS:  140153314.     BUFFER LENGTH:  32768
 NUMBER OF SEGMENTS:   5  SEGMENT LENGTH:   31998058      RECORD LENGTH: 524288

 Memory used in sort:      32.56 MW

 SORT1 READ  1457666564. AND WROTE    55540606. INTEGRALS IN    161 RECORDS. CPU TIME:    25.78 SEC, REAL TIME:    35.10 SEC
 SORT2 READ   607978492. AND WROTE  1542818159. INTEGRALS IN  22792 RECORDS. CPU TIME:     1.98 SEC, REAL TIME:     3.07 SEC

 Node minimum:   140147600.  Node maximum:   140434714. integrals

 OPERATOR DM      FOR CENTER  0  COORDINATES:    0.000000    0.000000    0.000000


 **********************************************************************************************************************************
 DATASETS  * FILE   NREC   LENGTH (MB)   RECORD NAMES
              1      19       22.57       500      610      700      900      950      970     1000      129      960     1100
                                          VAR    BASINP    GEOM    SYMINP    ZMAT    AOBASIS   BASIS     P2S    ABASIS      S
                                         1400     1410     1420     1200     1210     1080     1600     1650     1700
                                           T        V       ECP      H0       H01     AOSYM     SMH    MOLCAS    OPER

 PROGRAMS   *        TOTAL       INT
 CPU TIMES  *       114.02    113.65
 REAL TIME  *       126.27 SEC
 DISK USED  *        12.91 GB
 GA USED    *         0.00 MB       (max)       0.00 MB       (current)
 **********************************************************************************************************************************

 Density functional group PBE0=PBEX+PBEC
 Functional: PBEX(Automatically generated (new) PBEX)                          Gradient terms: 1
 Functional: PBEC(Automatically generated (new) PBEC)                          Gradient terms: 1
 Use grid at  1800.2


 Exact exchange will be calculated, factor:  0.2500

 Functional: PBEX                      Factor:  0.7500
 Functional: PBEC                      Factor:  1.0000

 Generated new metagrid on record  1800.2 with target accuracy 1.0D-06 and 4025 points in CPU time    0.1
 Computed new grid on record 1800.1 in CPU time    0.1
  374764 words reserved for DFT integration

 PROGRAM * RKS-SCF (Restricted open shell Kohn-Sham)     Authors: W. Meyer, H.-J. Werner, P.J. Knowles, 1993

 NUMBER OF ELECTRONS:      13+    6-    SPACE SYMMETRY=4    SPIN SYMMETRY: Octet
 CONVERGENCE THRESHOLDS:    1.00E-05 (Density)    1.00E-06 (Energy)
 MAX. NUMBER OF ITERATIONS:      200
 INTERPOLATION TYPE:            DIIS
 INTERPOLATION STEPS:              2 (START)      1 (STEP)
 LEVEL SHIFTS:                 -2.00 (CLOSED) -1.00 (OPEN)

 Number of closed-shell orbitals:    6 (   4   1   1   0 )
 Number of open-shell orbitals:      7 (   2   2   2   1 )


 Use fine grid record 1800.2 for energy threshold  1.0D-06
 Guess basis ATOMIC-GUESS,GD=ECP46_GUESS not found. No density guess!


 Molecular orbital dump at record        3202.2

 ITERATION    DDIFF          GRAD             ENERGY        2-EL.EN.            DIPOLE MOMENTS         DIIS   ORB.
    1      0.000D+00      0.000D+00       -79.01013600    369.064974    0.00000    0.00000    3.82370    0    start
    2      0.000D+00      0.186D+00       -50.02582154     31.518739    0.00000    0.00000  -68.83785    0    diag,B
    3      0.435D+01      0.726D-01       -84.91586987    354.327684    0.00000    0.00000    4.09916    1    diag,B
    4      0.435D+01      0.163D+00       -93.27291707    331.002642    0.00000    0.00000    3.99104    2    diag,B
    5      0.143D-01      0.121D+00       -99.91919606    305.506261    0.00000    0.00000    3.54357    3    diag,B
    6      0.138D-01      0.852D-01      -104.62640087    278.667305    0.00000    0.00000    2.02026    4    diag,B
    7      0.145D-01      0.554D-01      -107.32718006    254.286713    0.00000    0.00000    0.65569    5    diag,B
    8      0.176D-01      0.305D-01      -108.91403604    236.655501    0.00000    0.00000   -0.22140    6    diag,B
    9      0.130D-01      0.160D-01      -109.93389761    227.957256    0.00000    0.00000   -0.71246    7    diag,B
   10      0.431D-02      0.981D-02      -110.50792723    223.495848    0.00000    0.00000   -1.61968    8    orth
   11      0.406D-02      0.623D-02      -110.64528623    219.707103    0.00000    0.00000   -2.12701    9    diag,B
   12      0.438D-02      0.379D-02      -110.72052633    215.593195    0.00000    0.00000   -2.51994   10    diag,B
   13      0.348D-02      0.199D-02      -110.74664831    214.618465    0.00000    0.00000   -2.61479   11    diag,B
   14      0.222D-02      0.201D-02      -110.76994588    214.693758    0.00000    0.00000   -2.59462   12    diag,B
   15      0.285D-02      0.116D-02      -110.77563486    215.016005    0.00000    0.00000   -2.52193   13    diag,B
   16      0.147D-02      0.586D-03      -110.77776608    214.886160    0.00000    0.00000   -2.47989   14    diag,B
   17      0.491D-03      0.488D-03      -110.78024753    214.489090    0.00000    0.00000   -2.41972   15    diag,B
   18      0.633D-03      0.359D-03      -110.78197314    214.241412    0.00000    0.00000   -2.34292   16    diag,B
   19      0.580D-03      0.287D-03      -110.78328642    214.042035    0.00000    0.00000   -2.25711   17    diag,B
   20      0.837D-03      0.222D-03      -110.78386125    213.996035    0.00000    0.00000   -2.18698   18    orth
   21      0.389D-03      0.141D-03      -110.78422086    213.897128    0.00000    0.00000   -2.13642   19    diag,B
   22      0.406D-03      0.976D-04      -110.78443501    213.835461    0.00000    0.00000   -2.08862   20    diag,B
   23      0.577D-03      0.628D-04      -110.78451698    213.825293    0.00000    0.00000   -2.07574   21    diag,B
   24      0.623D-03      0.477D-04      -110.78459193    213.790876    0.00000    0.00000   -2.05769   22    diag,B
   25      0.448D-03      0.412D-04      -110.78464499    213.783065    0.00000    0.00000   -2.05319   23    diag,B
   26      0.169D-03      0.375D-04      -110.78468604    213.762380    0.00000    0.00000   -2.04701   24    diag,B
   27      0.151D-03      0.386D-04      -110.78474850    213.743501    0.00000    0.00000   -2.04160   25    diag,B
   28      0.278D-03      0.359D-04      -110.78479285    213.723508    0.00000    0.00000   -2.03750   26    diag,B
   29      0.131D-03      0.359D-04      -110.78488434    213.678419    0.00000    0.00000   -2.03048   27    diag,B
   30      0.147D-03      0.370D-04      -110.78500078    213.612612    0.00000    0.00000   -2.02115   28    orth
   31      0.204D-03      0.397D-04      -110.78506994    213.571342    0.00000    0.00000   -2.01579   29    diag,B
   32      0.778D-04      0.411D-04      -110.78509661    213.555291    0.00000    0.00000   -2.01356   29    diag,B
   33      0.222D-04      0.412D-04      -110.78500809    213.601826    0.00000    0.00000   -2.02057   29    diag,B
   34      0.112D-03      0.443D-04      -110.78523456    213.449259    0.00000    0.00000   -2.00252   29    diag,B
   35      0.169D-03      0.584D-04      -110.78580856    212.928260    0.00000    0.00000   -1.96094   29    diag,B
   36      0.632D-03      0.178D-03      -110.78585223    212.814773    0.00000    0.00000   -1.95650   29    diag,B
   37      0.497D-04      0.247D-03      -110.78436331    213.478855    0.00000    0.00000   -2.06003   29    diag,B
   38      0.100D-02      0.408D-03      -110.78460689    213.537285    0.00000    0.00000   -2.05115   29    diag,B
   39      0.181D-03      0.287D-03      -110.78458163    213.531997    0.00000    0.00000   -2.05198   29    diag,B
   40      0.284D-04      0.299D-03      -110.78469111    213.526548    0.00000    0.00000   -2.04625   29    orth
   41      0.571D-04      0.266D-03      -110.78442277    213.480803    0.00000    0.00000   -2.05904   29    diag,B
   42      0.135D-03      0.393D-03      -110.78434266    213.496329    0.00000    0.00000   -2.06392   29    diag,B
   43      0.583D-04      0.402D-03      -110.78447699    213.486440    0.00000    0.00000   -2.05674   29    diag,B
   44      0.936D-04      0.372D-03      -110.78433334    213.460614    0.00000    0.00000   -2.06370   29    diag,B
   45      0.829D-04      0.437D-03      -110.78437100    213.448592    0.00000    0.00000   -2.06018   29    diag,B
   46      0.336D-04      0.434D-03      -110.78459012    213.462017    0.00000    0.00000   -2.04918   29    diag,B
   47      0.974D-04      0.354D-03      -110.78446549    213.459184    0.00000    0.00000   -2.05428   29    diag,B
   48      0.123D-03      0.392D-03      -110.78431388    213.424638    0.00000    0.00000   -2.05999   29    diag,B
   49      0.259D-03      0.469D-03      -110.78439099    213.405897    0.00000    0.00000   -2.05502   29    diag,B
   50      0.974D-04      0.462D-03      -110.78444283    213.359534    0.00000    0.00000   -2.05036   29    orth
   51      0.836D-04      0.482D-03      -110.78461103    213.281683    0.00000    0.00000   -2.03950   29    diag,B
   52      0.210D-03      0.484D-03      -110.78451757    213.290606    0.00000    0.00000   -2.04475   29    diag,B
   53      0.943D-04      0.509D-03      -110.78454850    213.282204    0.00000    0.00000   -2.04292   29    diag,B
   54      0.252D-04      0.505D-03      -110.78438083    213.302332    0.00000    0.00000   -2.05157   29    diag,B
   55      0.860D-04      0.542D-03      -110.78479650    213.232013    0.00000    0.00000   -2.02920   29    diag,B
   56      0.235D-03      0.455D-03      -110.78476497    213.245710    0.00000    0.00000   -2.03177   29    diag,B
   57      0.330D-04      0.460D-03      -110.78470164    213.257762    0.00000    0.00000   -2.03505   29    diag,B
   58      0.541D-04      0.473D-03      -110.78464386    213.277638    0.00000    0.00000   -2.03891   29    diag,B
   59      0.366D-04      0.480D-03      -110.78472312    213.253880    0.00000    0.00000   -2.03366   29    fixocc
   60      0.725D-04      0.467D-03      -110.78468537    213.268449    0.00000    0.00000   -2.03612   29    orth
   61      0.331D-04      0.470D-03      -110.78476261    213.234822    0.00000    0.00000   -2.03132   29    diag,B
   62      0.111D-03      0.467D-03      -110.78467737    213.264473    0.00000    0.00000   -2.03704   29    diag,B
   63      0.509D-04      0.479D-03      -110.78474943    213.239071    0.00000    0.00000   -2.03196   29    diag,B
   64      0.676D-04      0.468D-03      -110.78469415    213.257403    0.00000    0.00000   -2.03539   29    diag,B
   65      0.525D-04      0.475D-03      -110.78473355    213.246935    0.00000    0.00000   -2.03355   29    diag,B
   66      0.932D-04      0.471D-03      -110.78464005    213.275948    0.00000    0.00000   -2.03925   29    diag,B
   67      0.621D-04      0.483D-03      -110.78467586    213.275337    0.00000    0.00000   -2.03776   29    diag,B
   68      0.750D-04      0.473D-03      -110.78459511    213.296892    0.00000    0.00000   -2.04248   29    diag,B
   69      0.526D-04      0.485D-03      -110.78460090    213.305725    0.00000    0.00000   -2.04269   29    diag,B
   70      0.543D-04      0.479D-03      -110.78455599    213.314980    0.00000    0.00000   -2.04508   29    orth
   71      0.553D-04      0.486D-03      -110.78452674    213.328633    0.00000    0.00000   -2.04708   29    diag,B
   72      0.445D-04      0.487D-03      -110.78455826    213.320400    0.00000    0.00000   -2.04506   29    diag,B
   73      0.736D-04      0.481D-03      -110.78454002    213.329383    0.00000    0.00000   -2.04634   29    diag,B
   74      0.255D-04      0.481D-03      -110.78458107    213.312854    0.00000    0.00000   -2.04337   29    diag,B
   75      0.605D-04      0.475D-03      -110.78457671    213.318075    0.00000    0.00000   -2.04386   29    diag,B
   76      0.255D-04      0.474D-03      -110.78456107    213.313730    0.00000    0.00000   -2.04391   29    diag,B
   77      0.694D-04      0.479D-03      -110.78455505    213.318541    0.00000    0.00000   -2.04447   29    diag,B
   78      0.349D-04      0.478D-03      -110.78452873    213.319078    0.00000    0.00000   -2.04539   29    diag,B
   79      0.688D-04      0.484D-03      -110.78452455    213.323011    0.00000    0.00000   -2.04582   29    diag,B
   80      0.433D-04      0.484D-03      -110.78449602    213.324882    0.00000    0.00000   -2.04701   29    orth
   81      0.592D-04      0.489D-03      -110.78449988    213.328122    0.00000    0.00000   -2.04706   29    diag,B
   82      0.523D-04      0.487D-03      -110.78446812    213.330310    0.00000    0.00000   -2.04844   29    diag,B
   83      0.478D-04      0.494D-03      -110.78449196    213.332783    0.00000    0.00000   -2.04762   29    diag,B
   84      0.654D-04      0.487D-03      -110.78446314    213.335033    0.00000    0.00000   -2.04888   29    diag,B
   85      0.312D-04      0.493D-03      -110.78451658    213.335393    0.00000    0.00000   -2.04677   29    diag,B
   86      0.783D-04      0.478D-03      -110.78449915    213.337260    0.00000    0.00000   -2.04755   29    diag,B
   87      0.158D-04      0.482D-03      -110.78455383    213.335872    0.00000    0.00000   -2.04543   29    diag,B
   88      0.728D-04      0.468D-03      -110.78453260    213.338213    0.00000    0.00000   -2.04636   29    diag,B
   89      0.234D-04      0.473D-03      -110.78455659    213.340300    0.00000    0.00000   -2.04569   29    diag,B
   90      0.491D-04      0.465D-03      -110.78453273    213.341190    0.00000    0.00000   -2.04651   29    orth
   91      0.395D-04      0.471D-03      -110.78453810    213.344351    0.00000    0.00000   -2.04657   29    diag,B
   92      0.221D-04      0.468D-03      -110.78451886    213.341683    0.00000    0.00000   -2.04691   29    diag,B
   93      0.407D-04      0.474D-03      -110.78452126    213.344075    0.00000    0.00000   -2.04696   29    diag,B
   94      0.133D-04      0.472D-03      -110.78449517    213.340400    0.00000    0.00000   -2.04769   29    diag,B
   95      0.435D-04      0.480D-03      -110.78449814    213.343250    0.00000    0.00000   -2.04776   29    diag,B
   96      0.190D-04      0.478D-03      -110.78447047    213.342053    0.00000    0.00000   -2.04874   29    diag,B
   97      0.378D-04      0.485D-03      -110.78448340    213.345212    0.00000    0.00000   -2.04843   29    diag,B
   98      0.314D-04      0.480D-03      -110.78445917    213.345976    0.00000    0.00000   -2.04941   29    diag,B
   99      0.222D-04      0.486D-03      -110.78449414    213.347949    0.00000    0.00000   -2.04817   29    diag,B
  100      0.429D-04      0.476D-03      -110.78447929    213.349066    0.00000    0.00000   -2.04881   29    orth
  101      0.110D-04      0.479D-03      -110.78452292    213.349447    0.00000    0.00000   -2.04722   29    diag,B
  102      0.456D-04      0.468D-03      -110.78450592    213.350833    0.00000    0.00000   -2.04793   29    diag,B
  103      0.139D-04      0.472D-03      -110.78452956    213.352994    0.00000    0.00000   -2.04728   29    diag,B
  104      0.358D-04      0.465D-03      -110.78450753    213.353463    0.00000    0.00000   -2.04804   29    diag,B
  105      0.261D-04      0.470D-03      -110.78451288    213.356578    0.00000    0.00000   -2.04811   29    diag,B
  106      0.187D-04      0.467D-03      -110.78449475    213.353852    0.00000    0.00000   -2.04841   29    diag,B
  107      0.323D-04      0.472D-03      -110.78449562    213.356278    0.00000    0.00000   -2.04855   29    diag,B
  108      0.104D-04      0.471D-03      -110.78447424    213.351705    0.00000    0.00000   -2.04896   29    diag,B
  109      0.340D-04      0.478D-03      -110.78447412    213.354705    0.00000    0.00000   -2.04919   29    diag,B
  110      0.137D-04      0.477D-03      -110.78444906    213.352308    0.00000    0.00000   -2.04995   29    orth
  111      0.301D-04      0.483D-03      -110.78445555    213.356139    0.00000    0.00000   -2.04998   29    diag,B
  112      0.224D-04      0.480D-03      -110.78442907    213.356239    0.00000    0.00000   -2.05099   29    diag,B
  113      0.197D-04      0.486D-03      -110.78446031    213.359569    0.00000    0.00000   -2.05002   29    diag,B
  114      0.334D-04      0.477D-03      -110.78444180    213.360556    0.00000    0.00000   -2.05079   29    diag,B
  115      0.111D-04      0.481D-03      -110.78449470    213.361815    0.00000    0.00000   -2.04890   29    diag,B
  116      0.435D-04      0.468D-03      -110.78447519    213.363147    0.00000    0.00000   -2.04974   29    diag,B
  117      0.123D-04      0.472D-03      -110.78451024    213.365593    0.00000    0.00000   -2.04870   29    diag,B
  118      0.419D-04      0.462D-03      -110.78448118    213.366516    0.00000    0.00000   -2.04980   29    diag,B
  119      0.263D-04      0.469D-03      -110.78448812    213.370877    0.00000    0.00000   -2.04994   29    diag,B
  120      0.263D-04      0.465D-03      -110.78446660    213.367892    0.00000    0.00000   -2.05032   29    orth
  121      0.375D-04      0.471D-03      -110.78446412    213.371074    0.00000    0.00000   -2.05069   29    diag,B
  122      0.119D-04      0.471D-03      -110.78445067    213.363945    0.00000    0.00000   -2.05043   29    diag,B
  123      0.385D-04      0.476D-03      -110.78444368    213.367157    0.00000    0.00000   -2.05097   29    diag,B
  124      0.120D-04      0.477D-03      -110.78442966    213.360742    0.00000    0.00000   -2.05091   29    diag,B
  125      0.354D-04      0.481D-03      -110.78441254    213.365032    0.00000    0.00000   -2.05201   29    diag,B
  126      0.196D-04      0.485D-03      -110.78440092    213.361873    0.00000    0.00000   -2.05210   29    diag,B
  127      0.252D-04      0.487D-03      -110.78437269    213.365570    0.00000    0.00000   -2.05366   29    diag,B
  128      0.230D-04      0.494D-03      -110.78438060    213.362630    0.00000    0.00000   -2.05301   29    diag,B
  129      0.217D-04      0.491D-03      -110.78432865    213.361301    0.00000    0.00000   -2.05532   29    diag,B
  130      0.254D-04      0.507D-03      -110.78457313    213.356199    0.00000    0.00000   -2.04381   29    orth
  131      0.126D-03      0.438D-03      -110.78466795    213.325075    0.00000    0.00000   -2.03813   29    diag,B
  132      0.669D-04      0.433D-03      -110.78457778    213.330602    0.00000    0.00000   -2.04269   29    diag,B
  133      0.524D-04      0.460D-03      -110.78465304    213.327898    0.00000    0.00000   -2.03914   29    diag,B
  134      0.555D-04      0.439D-03      -110.78460134    213.336407    0.00000    0.00000   -2.04210   29    diag,B
  135      0.371D-04      0.451D-03      -110.78464442    213.332493    0.00000    0.00000   -2.03956   29    diag,B
  136      0.450D-04      0.438D-03      -110.78461487    213.339291    0.00000    0.00000   -2.04104   29    diag,B
  137      0.199D-04      0.443D-03      -110.78465877    213.323017    0.00000    0.00000   -2.03959   29    diag,B
  138      0.833D-04      0.443D-03      -110.78459582    213.337402    0.00000    0.00000   -2.04296   29    diag,B
  139      0.388D-04      0.454D-03      -110.78462629    213.334468    0.00000    0.00000   -2.04210   29    diag,B
  140      0.693D-04      0.446D-03      -110.78455753    213.348499    0.00000    0.00000   -2.04620   29    orth
  141      0.515D-04      0.460D-03      -110.78469055    213.310599    0.00000    0.00000   -2.03706   29    diag,B
  142      0.138D-03      0.439D-03      -110.78466560    213.311081    0.00000    0.00000   -2.03796   29    diag,B
  143      0.315D-04      0.448D-03      -110.78465771    213.315468    0.00000    0.00000   -2.03922   29    diag,B
  144      0.542D-04      0.448D-03      -110.78461424    213.326304    0.00000    0.00000   -2.04135   29    diag,B
  145      0.503D-04      0.455D-03      -110.78458741    213.336833    0.00000    0.00000   -2.04354   29    diag,B
  146      0.389D-04      0.457D-03      -110.78458047    213.337403    0.00000    0.00000   -2.04337   29    diag,B
  147      0.414D-04      0.459D-03      -110.78455612    213.345242    0.00000    0.00000   -2.04512   29    diag,B
  148      0.254D-04      0.462D-03      -110.78456571    213.342736    0.00000    0.00000   -2.04406   29    diag,B
  149      0.308D-04      0.459D-03      -110.78454321    213.349170    0.00000    0.00000   -2.04570   29    diag,B
  150      0.264D-04      0.463D-03      -110.78453710    213.351519    0.00000    0.00000   -2.04569   29    orth
  151      0.199D-04      0.462D-03      -110.78452441    213.355348    0.00000    0.00000   -2.04692   29    diag,B
  152      0.280D-04      0.464D-03      -110.78450897    213.359619    0.00000    0.00000   -2.04764   29    diag,B
  153      0.111D-04      0.465D-03      -110.78451587    213.359432    0.00000    0.00000   -2.04776   29    diag,B
  154      0.190D-04      0.465D-03      -110.78450100    213.363288    0.00000    0.00000   -2.04852   29    diag,B
  155      0.883D-05      0.466D-03      -110.78450281    213.364015    0.00000    0.00000   -2.04872   29    diag,B
  156      0.112D-04      0.465D-03      -110.78448845    213.367488    0.00000    0.00000   -2.04942   29    diag,B
  157      0.940D-05      0.467D-03      -110.78447635    213.370933    0.00000    0.00000   -2.05024   29    diag,B
  158      0.106D-04      0.468D-03      -110.78447649    213.371434    0.00000    0.00000   -2.05013   29    diag,B
  159      0.851D-05      0.468D-03      -110.78446235    213.374791    0.00000    0.00000   -2.05098   29    diag,B
  160      0.913D-05      0.470D-03      -110.78446889    213.374014    0.00000    0.00000   -2.05051   29    orth
  161      0.107D-04      0.468D-03      -110.78445182    213.377489    0.00000    0.00000   -2.05152   29    diag,B
  162      0.110D-04      0.470D-03      -110.78444419    213.379265    0.00000    0.00000   -2.05181   29    diag,B
  163      0.114D-04      0.471D-03      -110.78443504    213.381367    0.00000    0.00000   -2.05245   29    diag,B
  164      0.105D-04      0.472D-03      -110.78441855    213.384026    0.00000    0.00000   -2.05321   29    diag,B
  165      0.105D-04      0.475D-03      -110.78442965    213.383909    0.00000    0.00000   -2.05289   29    diag,B
  166      0.106D-04      0.472D-03      -110.78441014    213.386261    0.00000    0.00000   -2.05378   29    diag,B
  167      0.101D-04      0.475D-03      -110.78442053    213.386791    0.00000    0.00000   -2.05352   29    diag,B
  168      0.118D-04      0.472D-03      -110.78439526    213.388836    0.00000    0.00000   -2.05458   29    diag,B
  169      0.132D-04      0.478D-03      -110.78438892    213.391019    0.00000    0.00000   -2.05506   29    diag,B
  170      0.134D-04      0.478D-03      -110.78437590    213.391670    0.00000    0.00000   -2.05549   29    orth
  171      0.115D-04      0.480D-03      -110.78436103    213.393428    0.00000    0.00000   -2.05626   29    diag,B
  172      0.113D-04      0.483D-03      -110.78437069    213.393676    0.00000    0.00000   -2.05574   29    diag,B
  173      0.111D-04      0.480D-03      -110.78435245    213.394662    0.00000    0.00000   -2.05658   29    diag,B
  174      0.986D-05      0.484D-03      -110.78437344    213.395569    0.00000    0.00000   -2.05570   29    diag,B
  175      0.139D-04      0.478D-03      -110.78434715    213.395859    0.00000    0.00000   -2.05684   29    diag,B
  176      0.131D-04      0.484D-03      -110.78436900    213.397729    0.00000    0.00000   -2.05602   29    diag,B
  177      0.174D-04      0.477D-03      -110.78433782    213.396862    0.00000    0.00000   -2.05731   29    diag,B
  178      0.155D-04      0.486D-03      -110.78438870    213.399373    0.00000    0.00000   -2.05528   29    diag,B
  179      0.302D-04      0.470D-03      -110.78437200    213.396359    0.00000    0.00000   -2.05592   29    diag,B
  180      0.707D-05      0.477D-03      -110.78433529    213.390900    0.00000    0.00000   -2.05724   29    orth
  181      0.281D-04      0.492D-03      -110.78434634    213.396116    0.00000    0.00000   -2.05694   29    diag,B
  182      0.120D-04      0.484D-03      -110.78433666    213.395610    0.00000    0.00000   -2.05729   29    diag,B
  183      0.150D-04      0.487D-03      -110.78433038    213.396852    0.00000    0.00000   -2.05762   29    diag,B
  184      0.816D-05      0.488D-03      -110.78433343    213.397322    0.00000    0.00000   -2.05749   29    diag,B
  185      0.803D-05      0.486D-03      -110.78432641    213.397693    0.00000    0.00000   -2.05780   29    diag,B
  186      0.488D-05      0.488D-03      -110.78433522    213.398442    0.00000    0.00000   -2.05746   29    diag,B
  187      0.610D-05      0.485D-03      -110.78432702    213.398353    0.00000    0.00000   -2.05780   29    diag,B
  188      0.404D-05      0.487D-03      -110.78433949    213.399340    0.00000    0.00000   -2.05735   29    diag,B
  189      0.742D-05      0.483D-03      -110.78432810    213.398735    0.00000    0.00000   -2.05780   29    diag,B
  190      0.519D-05      0.487D-03      -110.78435235    213.400780    0.00000    0.00000   -2.05690   29    orth
  191      0.130D-04      0.479D-03      -110.78433704    213.399403    0.00000    0.00000   -2.05751   29    diag,B
  192      0.681D-05      0.484D-03      -110.78444749    213.406293    0.00000    0.00000   -2.05288   29    diag,B
  193      0.533D-04      0.448D-03      -110.78450510    213.398750    0.00000    0.00000   -2.04984   29    diag,B
  194      0.362D-04      0.436D-03      -110.78465224    213.354506    0.00000    0.00000   -2.04069   29    diag,B
  195      0.113D-03      0.423D-03      -110.78461958    213.348854    0.00000    0.00000   -2.04196   29    diag,B
  196      0.256D-04      0.439D-03      -110.78460763    213.354305    0.00000    0.00000   -2.04285   29    diag,B
  197      0.143D-04      0.439D-03      -110.78456403    213.360060    0.00000    0.00000   -2.04521   29    diag,B
  198      0.340D-04      0.450D-03      -110.78454715    213.365577    0.00000    0.00000   -2.04632   29    diag,B
  199      0.140D-04      0.451D-03      -110.78452198    213.341941    0.00000    0.00000   -2.04564   29    orth
  200      0.212D-04      0.470D-03      -110.78476300    213.724494    0.00000    0.00000   -2.04308    0    orth

 Final alpha occupancy:   6   3   3   1
 Final beta  occupancy:   4   1   1   0

 !RKS STATE 1.4 Energy               -110.784762998869
   --><property name="Energy" method="RKS" principal="true" stateSymmetry="4" stateNumber="1"
     value="-110.784762998869"/><!--
 Nuclear energy                         4.53580467
 One-electron energy                 -212.27892442
 Two-electron energy                  106.86224712
 Density functional                    -9.90389037     PBEX=-12.31617269 PBEC= -0.66676085
 Virial quotient                       -0.78451653
 !RKS STATE 1.4 Dipole moment           0.00000000     0.00000000    -2.04308155
 Dipole moment /Debye                   0.00000000     0.00000000    -5.19265521
   --><property name="Dipole moment" method="RKS" principal="true" stateSymmetry="4"
     stateNumber="1" value="0.0 0.0 -2.0430815497499"/><!--

 ELECTRON ORBITALS
 =================


   Orb  Occ    Energy  Couls-En    Coefficients

                                   1 1s      1 1s      1 1s      1 1s      1 1s      1 1s      1 1s      1 1s      1 1s      1 1s
                                   1 1s      1 1s      1 1s      1 1s      1 1s      1 1s      1 1s      1 1s      1 1s      1 1s
                                   1 1s      1 1s      1 1s      1 1s      1 1s      1 1s      1 1s      1 1s      1 1s      1 1s
                                   1 1s      1 1s      1 2pz     1 2pz     1 2pz     1 2pz     1 2pz     1 2pz     1 2pz     1 2pz
                                   1 2pz     1 2pz     1 2pz     1 2pz     1 2pz     1 2pz     1 2pz     1 2pz     1 2pz     1 2pz
                                   1 2pz     1 2pz     1 2pz     1 2pz     1 2pz     1 2pz     1 2pz     1 2pz     1 2pz     1 2pz
                                   1 2pz     1 2pz     1 3d0     1 3d2+    1 3d0     1 3d2+    1 3d0     1 3d2+    1 3d0     1 3d2+
                                   1 3d0     1 3d2+    1 3d0     1 3d2+    1 3d0     1 3d2+    1 3d0     1 3d2+    1 3d0     1 3d2+
                                   1 3d0     1 3d2+    1 3d0     1 3d2+    1 3d0     1 3d2+    1 3d0     1 3d2+    1 3d0     1 3d2+
                                   1 3d0     1 3d2+    1 3d0     1 3d2+    1 3d0     1 3d2+    1 3d0     1 3d2+    1 3d0     1 3d2+
                                   1 3d0     1 3d2+    1 3d0     1 3d2+    1 3d0     1 3d2+    1 4f0     1 4f2+    1 4f0     1 4f2+
                                   1 4f0     1 4f2+    1 4f0     1 4f2+    1 4f0     1 4f2+    1 4f0     1 4f2+    1 4f0     1 4f2+
                                   1 4f0     1 4f2+    1 4f0     1 4f2+    1 4f0     1 4f2+    1 4f0     1 4f2+    1 4f0     1 4f2+
                                   1 4f0     1 4f2+    1 4f0     1 4f2+    1 5g0     1 5g4+    1 5g2+    1 5g0     1 5g4+    1 5g2+
                                   1 5g0     1 5g4+    1 5g2+    1 5g0     1 5g4+    1 5g2+    1 5g0     1 5g4+    1 5g2+    1 5g0
                                   1 5g4+    1 5g2+    1 5g0     1 5g4+    1 5g2+    1 5g0     1 5g4+    1 5g2+    1 5g0     1 5g4+
                                   1 5g2+    1 6h2+    1 6h4+    1 6h0     1 6h2+    1 6h4+    1 6h0     1 6h2+    1 6h4+    1 6h0
                                   2 1s      2 1s      2 1s      2 1s      2 1s      2 1s      2 2pz     2 2pz     2 2pz     2 3d0
                                   2 3d2+    2 3d0     2 3d2+

   1.1   2    -1.7118  -14.1186 -0.000000  0.000001 -0.000007  0.000128  0.000560  0.001738  0.003671  0.008165 -0.003254  0.006603
                                 0.006078  0.759744 -0.071342  0.045891  0.767493  0.487433  0.488115  0.334642  0.131195 -0.000223
                                -0.001007 -0.002970 -0.008429 -0.037306 -1.182433  0.082537 -0.211129 -0.592020 -0.198306 -0.006385
                                 0.002289 -0.000500  0.000000 -0.000000  0.000000 -0.000000  0.000000 -0.000000  0.000000 -0.000001
                                 0.000003 -0.000026 -0.000300 -0.000451 -0.003395 -0.002687  0.009963 -0.001966 -0.003511 -0.001486
                                -0.001758  0.000108  0.000444  0.002639  0.003390 -0.000672 -0.010767  0.000889  0.002124 -0.002804
                                -0.000228  0.000040 -0.000000 -0.000000  0.000000  0.000000 -0.000001 -0.000000  0.000006  0.000000
                                -0.000149 -0.000000 -0.001493 -0.000001  0.000309  0.000004  0.000130 -0.000001  0.003301 -0.000004
                                 0.000466  0.000004  0.000392  0.000000  0.002329  0.000003 -0.001597 -0.000005 -0.000996  0.000001
                                -0.002558  0.000007 -0.001347 -0.000002 -0.000701  0.000000 -0.000482 -0.000001  0.000170 -0.000000
                                -0.000434 -0.000000  0.000131  0.000000 -0.000035 -0.000000  0.000000  0.000000 -0.000000 -0.000000
                                 0.000000  0.000000 -0.000070  0.000000 -0.000280  0.000000 -0.000216  0.000000 -0.001211 -0.000000
                                 0.000073 -0.000000  0.000216 -0.000000  0.000620 -0.000000 -0.001018  0.000000  0.000337  0.000000
                                -0.000187  0.000000 -0.000008  0.000000  0.000081 -0.000050  0.000000 -0.000612  0.000597 -0.000000
                                -0.000031 -0.000048 -0.000000  0.000307 -0.000756 -0.000000 -0.000222 -0.000203 -0.000000  0.000670
                                 0.000660  0.000000 -0.000473  0.000102 -0.000000  0.000152  0.000063  0.000000 -0.000022 -0.000008
                                 0.000000  0.000000 -0.000000  0.000000  0.000000 -0.000036 -0.000013  0.000000 -0.000054 -0.000014
                                 0.000033  0.000360  0.001016  0.002330  0.003357  0.002261 -0.000270 -0.001283 -0.001567  0.000203
                                -0.000000  0.000286  0.000000

   2.1   2    -0.8954  -11.5118  0.000000 -0.000000  0.000000 -0.000002 -0.000008 -0.000024 -0.000052 -0.000115  0.000046 -0.000103
                                 0.000113 -0.010666 -0.008199  0.030538  0.052871 -0.012449 -0.041308 -0.031912  0.001685  0.000003
                                 0.000014  0.000042  0.000119  0.000222  0.019111 -0.092051  0.032381  0.070722  0.007314  0.000329
                                -0.000114  0.000026 -0.000000  0.000000 -0.000001  0.000002 -0.000003  0.000004 -0.000008  0.000023
                                -0.000098  0.000935  0.010054  0.009193 -0.149256  0.109291 -0.178982 -0.357394 -0.104183 -0.004744
                                 0.007119 -0.003793 -0.013582  0.072184  0.172549 -0.168513 -0.362947 -0.003918 -0.010507  0.011191
                                 0.001050 -0.000188 -0.000000 -0.000000  0.000000  0.000000 -0.000001 -0.000000  0.000006  0.000000
                                -0.000105 -0.000000 -0.001054 -0.000000  0.003053 -0.000000 -0.001965 -0.000000 -0.009719 -0.000000
                                 0.004655  0.000000  0.000255  0.000000  0.002165  0.000000 -0.003804  0.000000  0.005479  0.000000
                                 0.008881 -0.000001  0.006269 -0.000001  0.004340 -0.000001  0.001580 -0.000001 -0.000951 -0.000001
                                 0.001280 -0.000001 -0.000404  0.000000  0.000110 -0.000000  0.000002 -0.000000 -0.000014  0.000000
                                 0.000179 -0.000000  0.003494 -0.000000  0.005934 -0.000000  0.004689 -0.000000  0.003892 -0.000004
                                 0.001310 -0.000000  0.001388 -0.000000 -0.001099 -0.000003  0.004488  0.000000 -0.001119 -0.000000
                                 0.000535  0.000000 -0.000014  0.000000 -0.000010 -0.000000 -0.000000  0.000044 -0.000005 -0.000000
                                -0.000057  0.000031  0.000000  0.000080  0.000012 -0.000000  0.000910  0.000052  0.000000 -0.001006
                                 0.000138  0.000000  0.001685  0.000091 -0.000000 -0.000237  0.000025  0.000000 -0.000092 -0.000001
                                -0.000000  0.000000 -0.000192  0.000033  0.000000 -0.000396  0.000040  0.000000  0.000144 -0.000371
                                -0.000270 -0.002992 -0.009853 -0.022253 -0.018662 -0.005921  0.001435  0.006930  0.006952 -0.000962
                                 0.000000 -0.001038 -0.000000

   3.1   2    -0.2156   -5.5083  0.000000 -0.000000  0.000001 -0.000026 -0.000112 -0.000350 -0.000740 -0.001655  0.000668 -0.001520
                                 0.002739 -0.135593  0.012072 -0.023811 -0.286036 -0.148657  0.079596  0.005614 -0.255507  0.000045
                                 0.000202  0.000598  0.001705  0.000241  0.227855  0.060658  0.009483  0.174373  0.334562  0.007428
                                -0.002659  0.000560 -0.000000  0.000000 -0.000000  0.000000 -0.000000  0.000000 -0.000001  0.000002
                                -0.000008  0.000080  0.000880  0.000477 -0.030975  0.008921 -0.032681 -0.060184 -0.031986  0.057015
                                -0.006711 -0.000333 -0.001131  0.016819  0.038657 -0.028774 -0.071739  0.020914  0.072861 -0.075235
                                -0.005466  0.000957 -0.000000  0.000000  0.000001 -0.000000 -0.000005  0.000000  0.000026 -0.000000
                                -0.000452  0.000000 -0.003844  0.000001  0.012908 -0.000002 -0.012097  0.000000  0.003752  0.000004
                                 0.083460  0.000007  0.001051 -0.000000  0.007404 -0.000002 -0.013870  0.000003  0.002587 -0.000002
                                 0.047840 -0.000001  0.054970  0.000007  0.058229  0.000003  0.012601  0.000010  0.018286  0.000002
                                -0.011730  0.000002  0.003084 -0.000000 -0.000846  0.000000  0.000002 -0.000000 -0.000018  0.000000
                                 0.000269 -0.000000  0.005822 -0.000002  0.010564 -0.000003  0.012365 -0.000003  0.012005 -0.000003
                                 0.001914 -0.000001 -0.000222 -0.000000  0.006272  0.000000  0.014581  0.000001  0.001533  0.000002
                                 0.003375 -0.000000 -0.002007 -0.000000  0.000002  0.000012 -0.000000  0.000076 -0.000122  0.000000
                                 0.000117  0.000048 -0.000000  0.000233  0.000192  0.000000  0.001023  0.000214 -0.000000  0.002124
                                -0.000358  0.000002  0.001370  0.002150  0.000001  0.003363  0.002088  0.000000 -0.000271  0.000639
                                 0.000000  0.000000 -0.000057 -0.000000  0.000000 -0.000072 -0.000005  0.000000  0.000036  0.000128
                                 0.003293  0.037123  0.140304  0.322646  0.296622  0.084227 -0.001737 -0.017739 -0.010950  0.001230
                                -0.000000  0.002668  0.000004

   4.1   2    -0.1697  -13.1414 -0.000000  0.000000 -0.000000  0.000000  0.000000  0.000000  0.000000  0.000000 -0.000000  0.000000
                                -0.000001  0.000008 -0.000008  0.000016  0.000080 -0.000007  0.000038  0.000042  0.000071 -0.000000
                                -0.000000 -0.000000 -0.000000  0.000002 -0.000014 -0.000059  0.000017 -0.000167 -0.000061  0.000001
                                -0.000000  0.000000 -0.000000  0.000000 -0.000000  0.000000 -0.000000  0.000000 -0.000000  0.000000
                                -0.000000  0.000000  0.000001  0.000001 -0.000001 -0.000001 -0.000009 -0.000014  0.000030 -0.000054
                                -0.000016 -0.000001 -0.000002 -0.000001  0.000005 -0.000003 -0.000000  0.000001  0.000032 -0.000001
                                -0.000001  0.000000 -0.000000  0.000000  0.000000 -0.000001 -0.000000  0.000003  0.000000 -0.000017
                                -0.000000  0.000313 -0.000001  0.002848  0.000003 -0.009207 -0.000003  0.008065 -0.000001 -0.000291
                                 0.000014 -0.052609  0.000000 -0.000741  0.000002 -0.005611 -0.000004  0.010298  0.000002 -0.003477
                                 0.000010 -0.031373  0.000025 -0.041923 -0.000026 -0.047624 -0.000003 -0.038124  0.000011 -0.029968
                                 0.000004 -0.014894 -0.000001 -0.001486  0.000000 -0.000070 -0.000000  0.000091  0.000000 -0.000733
                                -0.000001  0.010253 -0.000026  0.207078 -0.000042  0.342475 -0.000047  0.379065 -0.000033  0.243793
                                -0.000011  0.083382 -0.000005  0.034463 -0.000001  0.016052 -0.000017  0.096173 -0.000005 -0.031597
                                 0.000001  0.035757  0.000001 -0.009867 -0.000000 -0.000000  0.000002  0.000000 -0.000000  0.000033
                                -0.000000 -0.000000 -0.000030  0.000000  0.000000  0.000265 -0.000000 -0.000001 -0.000959  0.000002
                                -0.000001 -0.001478 -0.000001 -0.000000 -0.000345 -0.000004 -0.000001  0.000022  0.000001 -0.000002
                                 0.000393  0.000196 -0.000000  0.000000  0.000485 -0.000000 -0.000000  0.000286  0.000001  0.000000
                                 0.000000  0.000001  0.000004  0.000009  0.000080 -0.000034  0.000000  0.000001 -0.000019 -0.000000
                                 0.000355 -0.000002 -0.001087

   5.1   +    -0.3241  -13.8401 -0.000000  0.000000 -0.000000  0.000001  0.000005  0.000015  0.000030  0.000066 -0.000025  0.000142
                                -0.002418 -0.023757 -0.030250  0.077285  0.282688 -0.166528  0.053256  0.294386  0.211589 -0.000002
                                -0.000008 -0.000025 -0.000069  0.004064  0.042399 -0.310730  0.320241 -0.763780 -0.150603 -0.001602
                                 0.000579 -0.000133 -0.000000  0.000000 -0.000000  0.000000 -0.000000  0.000001 -0.000001  0.000003
                                -0.000013  0.000071 -0.000088  0.000187 -0.007447 -0.010910 -0.064369 -0.107218  0.228961 -0.399305
                                -0.064300 -0.000107  0.000149  0.003746  0.017398  0.005141  0.068672  0.017610  0.112835 -0.024211
                                -0.005208  0.000974 -0.000000  0.000000  0.000000 -0.000000 -0.000001  0.000000  0.000004 -0.000000
                                -0.000064  0.000000 -0.000621  0.000000  0.002360 -0.000001 -0.002299  0.000000 -0.006874  0.000000
                                -0.011553 -0.000001  0.000153 -0.000000  0.001295 -0.000001 -0.002584  0.000001  0.003541 -0.000000
                                 0.016123 -0.000001  0.122229  0.000000 -0.227336  0.000000 -0.028176  0.000000  0.031019  0.000000
                                 0.007335  0.000000 -0.000909  0.000000  0.000160 -0.000000 -0.000093 -0.000000  0.000744  0.000000
                                -0.010617 -0.000001 -0.217206 -0.000028 -0.350635 -0.000046 -0.379416 -0.000049 -0.236722 -0.000027
                                -0.094119 -0.000012 -0.050694 -0.000007  0.025674  0.000001 -0.113054 -0.000009 -0.013762  0.000005
                                 0.004661 -0.000003  0.002996  0.000001 -0.000088  0.000007 -0.000000  0.000256  0.000007 -0.000000
                                -0.000880  0.000076 -0.000000  0.001722  0.000136 -0.000000 -0.003531  0.000111  0.000000  0.010997
                                -0.000064  0.000000 -0.002674  0.000216  0.000000 -0.025251  0.000200  0.000000  0.009030  0.000110
                                 0.000000 -0.000000 -0.000570 -0.000070  0.000000 -0.000827 -0.000440 -0.000001 -0.000598 -0.000052
                                 0.000004  0.000261  0.002242 -0.008314  0.444527 -0.101462  0.001545  0.019868 -0.123244 -0.001540
                                -0.000000 -0.013279  0.000000

   6.1   +    -0.0797   -6.0692  0.000000 -0.000000  0.000000 -0.000000 -0.000000 -0.000000 -0.000001 -0.000002  0.000001 -0.000002
                                 0.000003 -0.000203 -0.000019  0.000023 -0.000267 -0.000259  0.000242  0.000625  0.000558  0.000000
                                 0.000000  0.000001  0.000002  0.000000  0.000360 -0.000099 -0.000095  0.000073 -0.000066  0.000041
                                -0.000011  0.000002  0.000000 -0.000000  0.000000 -0.000000  0.000000 -0.000000  0.000000 -0.000000
                                 0.000000 -0.000000 -0.000001 -0.000001  0.000025 -0.000009  0.000020  0.000063  0.000019 -0.000079
                                -0.000153  0.000000  0.000002 -0.000012 -0.000036  0.000033  0.000083 -0.000045 -0.000039  0.000080
                                 0.000009 -0.000002  0.000000  0.000001 -0.000000 -0.000004  0.000000  0.000018 -0.000000 -0.000093
                                 0.000001  0.001641  0.000007  0.014845 -0.000021 -0.045868  0.000018  0.039611 -0.000002 -0.004031
                                -0.000103 -0.250271 -0.000002 -0.003877 -0.000014 -0.028907  0.000025  0.051793 -0.000009 -0.018857
                                -0.000067 -0.154654 -0.000085 -0.196484 -0.000091 -0.234907 -0.000066 -0.201884 -0.000026 -0.161154
                                 0.000026 -0.085606 -0.000005  0.002050  0.000001 -0.004000  0.000000 -0.000019 -0.000000  0.000153
                                 0.000000 -0.002174  0.000008 -0.044625  0.000013 -0.073363  0.000015 -0.079156  0.000009 -0.048031
                                 0.000004 -0.018387  0.000002 -0.008391 -0.000007  0.004929  0.000018  0.003004  0.000017  0.037369
                                 0.000004  0.017019  0.000006  0.010380 -0.000000  0.000000  0.000022 -0.000000  0.000000 -0.000036
                                -0.000000  0.000000  0.000248 -0.000000  0.000001 -0.000081 -0.000001 -0.000002  0.001260  0.000000
                                -0.000001  0.001978  0.000006  0.000016  0.007565  0.000007  0.000019  0.010245 -0.000001  0.000005
                                 0.006002 -0.000072  0.000000  0.000000 -0.000151  0.000000  0.000000  0.000236 -0.000000  0.000000
                                -0.000001 -0.000013 -0.000050 -0.000121 -0.000174 -0.000204  0.000000  0.000003  0.000011 -0.000000
                                -0.000292 -0.000001 -0.004936

   7.1   0    -0.0819   -4.6271 -0.000000  0.000000 -0.000002  0.000031  0.000137  0.000426  0.000900  0.002012 -0.000819  0.001937
                                -0.005411  0.156198 -0.007459  0.021061  0.316857  0.201762 -0.120874 -0.518480 -0.563399 -0.000055
                                -0.000246 -0.000728 -0.002073  0.004396 -0.277886 -0.026713  0.027320 -0.045524  0.148725 -0.062514
                                 0.009127 -0.001941 -0.000000  0.000000 -0.000000  0.000000 -0.000000  0.000000 -0.000001  0.000003
                                -0.000012  0.000116  0.001230  0.001113 -0.021368  0.010526 -0.016431 -0.057326 -0.010011  0.052217
                                 0.107106 -0.000469 -0.001658  0.010173  0.030876 -0.031813 -0.080441  0.027667  0.118258  0.002022
                                -0.002043  0.000502 -0.000000  0.000000  0.000002 -0.000000 -0.000006  0.000000  0.000033 -0.000000
                                -0.000586  0.000001 -0.005227  0.000013  0.015537 -0.000044 -0.013099  0.000041  0.002280 -0.000012
                                 0.084242 -0.000283  0.001381 -0.000003  0.010087 -0.000026 -0.017740  0.000048  0.005963 -0.000016
                                 0.049258 -0.000161  0.059526 -0.000222  0.050929 -0.000222  0.027198 -0.000213  0.047393 -0.000198
                                 0.003357 -0.000138  0.002160 -0.000008 -0.000497 -0.000004 -0.000001 -0.000000  0.000010  0.000000
                                -0.000141 -0.000003 -0.002794 -0.000061 -0.004254 -0.000100 -0.004618 -0.000107 -0.001944 -0.000067
                                -0.001334 -0.000025 -0.001023 -0.000012  0.004386  0.000010 -0.010417 -0.000012 -0.018408  0.000026
                                -0.001856  0.000014 -0.003987  0.000016  0.000019 -0.000022  0.000000  0.000014  0.000011 -0.000000
                                 0.000274 -0.000272  0.000000  0.000265 -0.000083 -0.000001  0.000451 -0.000282  0.000003  0.000456
                                -0.000936  0.000000 -0.004515 -0.013164  0.000007 -0.008115 -0.015105  0.000014  0.000201 -0.013745
                                 0.000018 -0.000000 -0.000009 -0.000001 -0.000000  0.000046 -0.000022  0.000000  0.000086 -0.000075
                                 0.001074  0.012179  0.046657  0.117492  0.190740  0.057574 -0.000055 -0.003972 -0.007415  0.000445
                                -0.000000 -0.000180 -0.000005

   8.1   0    -0.0189   -3.8155  0.000000 -0.000000  0.000000 -0.000006 -0.000027 -0.000085 -0.000181 -0.000403  0.000164 -0.000377
                                 0.000807 -0.034824 -0.004714  0.012725 -0.039226 -0.036649  0.190929  0.238281 -0.580669  0.000011
                                 0.000049  0.000146  0.000416 -0.000396  0.062523 -0.037980 -0.030710 -0.247745  0.285375 -0.083574
                                -0.048726 -0.007227 -0.000000  0.000000 -0.000000  0.000000 -0.000000  0.000001 -0.000001  0.000003
                                -0.000015  0.000143  0.001534  0.001545 -0.017588  0.011156 -0.042922 -0.069854  0.003648  0.042546
                                 0.173495 -0.000580 -0.002096  0.007385  0.027599 -0.024321 -0.047977  0.226711  0.092723 -0.019900
                                 0.091630  0.023538  0.000000 -0.000000 -0.000002  0.000000  0.000007 -0.000000 -0.000035  0.000000
                                 0.000606  0.000000  0.005390  0.000000 -0.019392  0.000001  0.019822 -0.000001 -0.012641  0.000002
                                -0.144595  0.000019 -0.001419 -0.000000 -0.010514 -0.000000  0.020278 -0.000000 -0.003983 -0.000001
                                -0.080788  0.000005 -0.096256  0.000004 -0.156729  0.000004 -0.101388  0.000013 -0.185817  0.000033
                                -0.176072  0.000051 -0.031177  0.000022 -0.017811  0.000004 -0.000000  0.000000  0.000004 -0.000000
                                -0.000053  0.000000 -0.000980  0.000009 -0.001378  0.000016 -0.001725  0.000017 -0.000658  0.000008
                                -0.000561  0.000004 -0.000499  0.000002  0.006160  0.000001  0.002611 -0.000002  0.013674 -0.000013
                                -0.008919 -0.000021 -0.011177 -0.000029  0.000000  0.000006  0.000000 -0.000017 -0.000018 -0.000000
                                -0.000010  0.000063  0.000000 -0.000302 -0.000186 -0.000000  0.000616  0.000117  0.000000 -0.000685
                                 0.001124 -0.000004  0.002048  0.007352  0.000007  0.001361  0.007450  0.000000  0.012326  0.006834
                                 0.000029  0.000000 -0.000001  0.000009  0.000000  0.000036 -0.000054  0.000000  0.000121  0.000112
                                -0.000136 -0.001368 -0.006285 -0.012722  0.040443  0.411820  0.001848  0.006016 -0.010984 -0.000690
                                 0.000000 -0.002590 -0.000001

                                   1 2px     1 2px     1 2px     1 2px     1 2px     1 2px     1 2px     1 2px     1 2px     1 2px
                                   1 2px     1 2px     1 2px     1 2px     1 2px     1 2px     1 2px     1 2px     1 2px     1 2px
                                   1 2px     1 2px     1 2px     1 2px     1 2px     1 2px     1 2px     1 2px     1 2px     1 2px
                                   1 3d1+    1 3d1+    1 3d1+    1 3d1+    1 3d1+    1 3d1+    1 3d1+    1 3d1+    1 3d1+    1 3d1+
                                   1 3d1+    1 3d1+    1 3d1+    1 3d1+    1 3d1+    1 3d1+    1 3d1+    1 3d1+    1 3d1+    1 3d1+
                                   1 3d1+    1 3d1+    1 4f1+    1 4f3+    1 4f1+    1 4f3+    1 4f1+    1 4f3+    1 4f1+    1 4f3+
                                   1 4f1+    1 4f3+    1 4f1+    1 4f3+    1 4f1+    1 4f3+    1 4f1+    1 4f3+    1 4f1+    1 4f3+
                                   1 4f1+    1 4f3+    1 4f1+    1 4f3+    1 4f1+    1 4f3+    1 4f1+    1 4f3+    1 4f1+    1 4f3+
                                   1 5g1+    1 5g3+    1 5g1+    1 5g3+    1 5g1+    1 5g3+    1 5g1+    1 5g3+    1 5g1+    1 5g3+
                                   1 5g1+    1 5g3+    1 5g1+    1 5g3+    1 5g1+    1 5g3+    1 5g1+    1 5g3+    1 6h1+    1 6h3+
                                   1 6h5+    1 6h1+    1 6h3+    1 6h5+    1 6h1+    1 6h3+    1 6h5+    2 2px     2 2px     2 2px
                                   2 3d1+    2 3d1+

   1.2   2    -0.8927  -11.5057 -0.000000  0.000000 -0.000001  0.000002 -0.000003  0.000003 -0.000007  0.000021 -0.000089  0.000848
                                 0.008952  0.007310 -0.160586  0.102600 -0.170168 -0.353701 -0.109661 -0.013963  0.002387 -0.003422
                                -0.011841  0.081748  0.181088 -0.167705 -0.376780 -0.001151 -0.003681  0.002774  0.000336 -0.000063
                                -0.000000  0.000000 -0.000001  0.000006 -0.000120 -0.001098  0.002438 -0.001129 -0.004166  0.005165
                                 0.000287  0.002107 -0.003272  0.002724  0.002452  0.004336  0.000563  0.000662 -0.000010 -0.000026
                                 0.000023 -0.000008 -0.000001 -0.000001  0.000007  0.000010 -0.000117 -0.000135 -0.002697 -0.002564
                                -0.004787 -0.004351 -0.005078 -0.003675 -0.002192 -0.001617 -0.000755 -0.001015 -0.000360 -0.001025
                                 0.000831 -0.002419  0.000474 -0.001912  0.000458  0.000140 -0.000014 -0.000307  0.000017  0.000083
                                 0.000002  0.000002 -0.000014  0.000011  0.000012  0.000065 -0.000101  0.000033  0.000847  0.000105
                                -0.000494  0.000246  0.000512  0.000172 -0.000137  0.000068  0.000177  0.000012  0.000095 -0.000127
                                -0.000069  0.000205 -0.000351 -0.000044 -0.000168 -0.000362  0.000664 -0.000209 -0.001547 -0.001712
                                 0.000320  0.000996

   2.2   +    -0.3455  -13.9136  0.000000 -0.000000  0.000000 -0.000000  0.000000 -0.000000  0.000001 -0.000002  0.000006 -0.000007
                                 0.000618  0.000007  0.002859  0.001712 -0.004099 -0.002038  0.001458 -0.005831 -0.000180 -0.000133
                                -0.000702 -0.000985 -0.007912  0.011612  0.019565  0.000132 -0.000318 -0.000162 -0.000060  0.000014
                                -0.000000  0.000000 -0.000002  0.000009 -0.000161 -0.001489  0.003407 -0.001638 -0.004425  0.002111
                                 0.000386  0.002887 -0.004552  0.002838  0.005174  0.009468  0.000940  0.001986  0.000297 -0.000102
                                 0.000016 -0.000009 -0.000083 -0.000040  0.000663  0.000321 -0.009535 -0.004608 -0.197924 -0.095438
                                -0.320761 -0.155130 -0.344199 -0.166540 -0.202422 -0.098257 -0.084054 -0.040393 -0.042509 -0.020205
                                 0.004167  0.001426 -0.055255 -0.029057  0.031055  0.015817 -0.019185 -0.010311  0.007065  0.003770
                                -0.000014 -0.000004 -0.000006 -0.000021 -0.000078 -0.000019 -0.000079 -0.000152  0.000759  0.000085
                                 0.000939  0.000320  0.003592  0.000366 -0.001895  0.000203  0.001135  0.000009 -0.000148  0.000268
                                 0.000090 -0.000296  0.000427 -0.000067 -0.000071  0.000375 -0.000007 -0.000483 -0.003305 -0.005717
                                 0.001165  0.004951

   3.2   +    -0.3338  -13.8646  0.000000 -0.000000  0.000000 -0.000000  0.000000 -0.000000  0.000001 -0.000003  0.000011 -0.000082
                                -0.000490 -0.000574  0.002075  0.002831  0.008110  0.003223 -0.006555 -0.009036 -0.001858  0.000256
                                 0.000604 -0.000424 -0.006726  0.003524  0.003424 -0.000323 -0.001729  0.000736  0.000103 -0.000021
                                 0.000000 -0.000000  0.000001 -0.000004  0.000083  0.000755 -0.001724  0.000928  0.002330 -0.001395
                                -0.000200 -0.001443  0.002271 -0.001656 -0.003133 -0.004382  0.000399 -0.000197 -0.000147  0.000086
                                -0.000013  0.000006  0.000040 -0.000082 -0.000319  0.000660  0.004593 -0.009499  0.095430 -0.196893
                                 0.154686 -0.320064  0.166112 -0.343871  0.098582 -0.204942  0.040523 -0.083347  0.020347 -0.041440
                                -0.000326 -0.000446  0.028865 -0.063365 -0.014425  0.032280  0.009549 -0.021806 -0.003482  0.007906
                                 0.000012 -0.000013  0.000007 -0.000036  0.000086 -0.000069  0.000121 -0.000319 -0.000315  0.000190
                                -0.000464  0.000619 -0.001692  0.000664  0.000908  0.000408 -0.000496  0.000046 -0.000142  0.000453
                                 0.000296 -0.000015  0.000515  0.000368 -0.000104  0.000548  0.000285  0.000247  0.001336  0.001723
                                -0.000557 -0.002130

   4.2   0    -0.0288   -3.3263 -0.000000  0.000000 -0.000000  0.000000 -0.000000  0.000001 -0.000001  0.000004 -0.000017  0.000168
                                 0.001823  0.001751 -0.025736  0.015213 -0.028694 -0.071214 -0.045782  0.134923  0.245051 -0.000687
                                -0.002480  0.011585  0.038390 -0.040406 -0.099554  0.196179  0.209837  0.224330  0.070846  0.005297
                                 0.000000 -0.000001  0.000003 -0.000016  0.000273  0.002444 -0.008951  0.009068 -0.004916 -0.064136
                                -0.000640 -0.004806  0.009358 -0.002020 -0.037541 -0.045469 -0.065964 -0.077437 -0.092032 -0.092517
                                -0.025380 -0.004461 -0.000001 -0.000002  0.000004  0.000014 -0.000062 -0.000194 -0.001309 -0.003943
                                -0.002218 -0.006228 -0.002285 -0.006384 -0.001044 -0.003099 -0.000504 -0.001742 -0.000102 -0.001076
                                 0.001787  0.000896 -0.003612  0.013528 -0.011302  0.027083 -0.005399  0.024838 -0.005652  0.024057
                                 0.000007 -0.000005 -0.000038  0.000025  0.000091 -0.000046 -0.000341  0.000155  0.000955 -0.000280
                                -0.001315  0.000258  0.002646 -0.003234  0.000656 -0.002823  0.009895 -0.013112 -0.000001  0.000011
                                 0.000005 -0.000108  0.000027  0.000060 -0.000041  0.000006  0.000142  0.000019  0.001328  0.012752
                                 0.000270 -0.001007

   5.2   0     0.0019   -3.8541  0.000000 -0.000000  0.000000 -0.000000  0.000000 -0.000001  0.000001 -0.000004  0.000015 -0.000134
                                -0.001459 -0.001990 -0.011309 -0.016469 -0.041921 -0.025015  0.051452 -0.076847  0.297705  0.000540
                                 0.002092  0.009375  0.013206  0.021358  0.046989 -0.885460 -0.718443  0.921226  0.454953 -0.593198
                                 0.000001 -0.000003  0.000012 -0.000062  0.001095  0.009873 -0.031581  0.028324 -0.004671 -0.182734
                                -0.002582 -0.019259  0.035082 -0.012004 -0.114387 -0.143590 -0.151851 -0.115512 -0.173036 -0.159970
                                -0.077336 -0.028256 -0.000001  0.000000  0.000008 -0.000002 -0.000123  0.000027 -0.002604  0.000536
                                -0.004334  0.000795 -0.004451  0.000834 -0.001916  0.000403 -0.001018  0.000268 -0.000351  0.000224
                                 0.007307 -0.000428  0.010300  0.000004  0.054473 -0.006134  0.006226  0.004792  0.083252 -0.031927
                                 0.000002 -0.000004 -0.000042  0.000046  0.000063 -0.000045 -0.000568  0.000387  0.000858 -0.000322
                                -0.000032 -0.000116  0.002068 -0.006283  0.011848 -0.002663  0.007906 -0.010065  0.000008 -0.000001
                                -0.000002 -0.000030  0.000001 -0.000003  0.000217 -0.000029 -0.000060 -0.002668 -0.015159 -0.062441
                                 0.000920  0.004848

                                   1 2py     1 2py     1 2py     1 2py     1 2py     1 2py     1 2py     1 2py     1 2py     1 2py
                                   1 2py     1 2py     1 2py     1 2py     1 2py     1 2py     1 2py     1 2py     1 2py     1 2py
                                   1 2py     1 2py     1 2py     1 2py     1 2py     1 2py     1 2py     1 2py     1 2py     1 2py
                                   1 3d1-    1 3d1-    1 3d1-    1 3d1-    1 3d1-    1 3d1-    1 3d1-    1 3d1-    1 3d1-    1 3d1-
                                   1 3d1-    1 3d1-    1 3d1-    1 3d1-    1 3d1-    1 3d1-    1 3d1-    1 3d1-    1 3d1-    1 3d1-
                                   1 3d1-    1 3d1-    1 4f1-    1 4f3-    1 4f1-    1 4f3-    1 4f1-    1 4f3-    1 4f1-    1 4f3-
                                   1 4f1-    1 4f3-    1 4f1-    1 4f3-    1 4f1-    1 4f3-    1 4f1-    1 4f3-    1 4f1-    1 4f3-
                                   1 4f1-    1 4f3-    1 4f1-    1 4f3-    1 4f1-    1 4f3-    1 4f1-    1 4f3-    1 4f1-    1 4f3-
                                   1 5g1-    1 5g3-    1 5g1-    1 5g3-    1 5g1-    1 5g3-    1 5g1-    1 5g3-    1 5g1-    1 5g3-
                                   1 5g1-    1 5g3-    1 5g1-    1 5g3-    1 5g1-    1 5g3-    1 5g1-    1 5g3-    1 6h1-    1 6h3-
                                   1 6h5-    1 6h1-    1 6h3-    1 6h5-    1 6h1-    1 6h3-    1 6h5-    2 2py     2 2py     2 2py
                                   2 3d1-    2 3d1-

   1.3   2    -0.8927  -11.5057  0.000000 -0.000000  0.000001 -0.000002  0.000003 -0.000003  0.000007 -0.000021  0.000089 -0.000848
                                -0.008953 -0.007311  0.160587 -0.102600  0.170182  0.353688  0.109667  0.013965 -0.002385  0.003422
                                 0.011842 -0.081748 -0.181092  0.167708  0.376773  0.001151  0.003679 -0.002772 -0.000336  0.000063
                                 0.000000 -0.000000  0.000001 -0.000006  0.000120  0.001097 -0.002438  0.001128  0.004165 -0.005162
                                -0.000287 -0.002106  0.003272 -0.002723 -0.002451 -0.004338 -0.000563 -0.000663  0.000010  0.000026
                                -0.000023  0.000008  0.000001 -0.000001 -0.000007  0.000010  0.000117 -0.000134  0.002698 -0.002562
                                 0.004790 -0.004347  0.005080 -0.003672  0.002197 -0.001604  0.000755 -0.001014  0.000360 -0.001025
                                -0.000831 -0.002415 -0.000474 -0.001912 -0.000458  0.000140  0.000014 -0.000307 -0.000017  0.000083
                                -0.000002  0.000002  0.000014  0.000011 -0.000012  0.000065  0.000101  0.000033 -0.000848  0.000104
                                 0.000493  0.000245 -0.000512  0.000173  0.000137  0.000068 -0.000177  0.000012 -0.000095 -0.000127
                                 0.000069 -0.000205 -0.000351  0.000044  0.000168 -0.000362 -0.000664  0.000209  0.001548  0.001712
                                -0.000320 -0.000997

   2.3   +    -0.3455  -13.9136  0.000000 -0.000000  0.000000 -0.000000  0.000000 -0.000000  0.000001 -0.000002  0.000006 -0.000007
                                 0.000619  0.000008  0.002861  0.001712 -0.004096 -0.002035  0.001460 -0.005833 -0.000180 -0.000134
                                -0.000704 -0.000987 -0.007912  0.011609  0.019562  0.000132 -0.000318 -0.000161 -0.000060  0.000014
                                -0.000000  0.000000 -0.000002  0.000009 -0.000161 -0.001489  0.003407 -0.001638 -0.004425  0.002111
                                 0.000386  0.002887 -0.004552  0.002838  0.005173  0.009467  0.000942  0.001984  0.000298 -0.000102
                                 0.000016 -0.000009 -0.000083  0.000040  0.000663 -0.000321 -0.009535  0.004609 -0.197921  0.095443
                                -0.320758  0.155138 -0.344194  0.166550 -0.202418  0.098264 -0.084053  0.040395 -0.042509  0.020205
                                 0.004168 -0.001428 -0.055254  0.029058  0.031054 -0.015818 -0.019185  0.010311  0.007065 -0.003771
                                -0.000014  0.000004 -0.000006  0.000021 -0.000078  0.000019 -0.000079  0.000151  0.000759 -0.000085
                                 0.000940 -0.000320  0.003592 -0.000367 -0.001896 -0.000203  0.001135 -0.000009 -0.000148 -0.000268
                                 0.000090 -0.000296 -0.000427 -0.000067 -0.000071 -0.000376 -0.000006 -0.000483 -0.003305 -0.005716
                                 0.001165  0.004951

   3.3   +    -0.3338  -13.8646  0.000000 -0.000000  0.000000 -0.000000  0.000000 -0.000000  0.000001 -0.000003  0.000011 -0.000082
                                -0.000489 -0.000572  0.002076  0.002829  0.008110  0.003226 -0.006563 -0.009046 -0.001863  0.000255
                                 0.000603 -0.000425 -0.006722  0.003516  0.003419 -0.000323 -0.001729  0.000736  0.000103 -0.000021
                                 0.000000 -0.000000  0.000001 -0.000004  0.000084  0.000755 -0.001724  0.000928  0.002331 -0.001397
                                -0.000200 -0.001444  0.002272 -0.001656 -0.003134 -0.004381  0.000400 -0.000196 -0.000147  0.000086
                                -0.000013  0.000006  0.000040  0.000082 -0.000319 -0.000660  0.004593  0.009499  0.095435  0.196891
                                 0.154694  0.320060  0.166120  0.343867  0.098584  0.204938  0.040525  0.083346  0.020350  0.041439
                                -0.000326  0.000446  0.028869  0.063364 -0.014425 -0.032279  0.009549  0.021806 -0.003482 -0.007906
                                 0.000012  0.000013  0.000007  0.000036  0.000086  0.000069  0.000121  0.000319 -0.000315 -0.000190
                                -0.000463 -0.000619 -0.001692 -0.000663  0.000908 -0.000408 -0.000496 -0.000046 -0.000142 -0.000453
                                 0.000296 -0.000015 -0.000516  0.000368 -0.000104 -0.000547  0.000287  0.000247  0.001336  0.001723
                                -0.000558 -0.002129

   4.3   0    -0.0288   -3.3269 -0.000000  0.000000 -0.000000  0.000000 -0.000000  0.000001 -0.000001  0.000004 -0.000017  0.000168
                                 0.001823  0.001750 -0.025750  0.015208 -0.028728 -0.071237 -0.045833  0.135022  0.245234 -0.000687
                                -0.002480  0.011593  0.038409 -0.040408 -0.099553  0.196002  0.209756  0.224416  0.070743  0.005273
                                 0.000000 -0.000001  0.000003 -0.000016  0.000273  0.002446 -0.008954  0.009069 -0.004913 -0.064135
                                -0.000640 -0.004809  0.009363 -0.002022 -0.037542 -0.045450 -0.065995 -0.077468 -0.092069 -0.092519
                                -0.025349 -0.004452 -0.000001  0.000002  0.000004 -0.000014 -0.000062  0.000194 -0.001308  0.003948
                                -0.002216  0.006235 -0.002284  0.006392 -0.001043  0.003099 -0.000503  0.001744 -0.000101  0.001077
                                 0.001785 -0.000892 -0.003623 -0.013561 -0.011302 -0.027120 -0.005381 -0.024852 -0.005627 -0.024045
                                 0.000007  0.000005 -0.000038 -0.000025  0.000091  0.000046 -0.000341 -0.000155  0.000954  0.000280
                                -0.001315 -0.000263  0.002646  0.003240  0.000672  0.002839  0.009880  0.013130 -0.000001 -0.000011
                                 0.000005 -0.000108 -0.000027  0.000060 -0.000041 -0.000006  0.000142  0.000019  0.001328  0.012738
                                 0.000270 -0.001006

   5.3   0     0.0019   -3.8524  0.000000 -0.000000  0.000000 -0.000000  0.000000 -0.000001  0.000001 -0.000004  0.000015 -0.000134
                                -0.001461 -0.001993 -0.011331 -0.016493 -0.041987 -0.025062  0.051496 -0.076937  0.298042  0.000541
                                 0.002096  0.009392  0.013232  0.021384  0.047051 -0.886491 -0.719230  0.922407  0.455689 -0.593903
                                 0.000001 -0.000003  0.000012 -0.000062  0.001095  0.009872 -0.031574  0.028315 -0.004667 -0.182664
                                -0.002582 -0.019256  0.035076 -0.012003 -0.114347 -0.143518 -0.151837 -0.115448 -0.173048 -0.159926
                                -0.077348 -0.028139 -0.000001 -0.000000  0.000008  0.000002 -0.000123 -0.000027 -0.002605 -0.000536
                                -0.004335 -0.000795 -0.004452 -0.000834 -0.001915 -0.000403 -0.001018 -0.000267 -0.000351 -0.000224
                                 0.007304  0.000429  0.010310 -0.000007  0.054490  0.006119  0.006246 -0.004799  0.083271  0.031908
                                 0.000002  0.000004 -0.000041 -0.000046  0.000063  0.000046 -0.000567 -0.000387  0.000857  0.000321
                                -0.000032  0.000109  0.002074  0.006288  0.011858  0.002667  0.007890  0.010067  0.000008  0.000001
                                -0.000002 -0.000030 -0.000001 -0.000003  0.000217  0.000029 -0.000060 -0.002666 -0.015157 -0.062438
                                 0.000920  0.004846

                                   1 3d2-    1 3d2-    1 3d2-    1 3d2-    1 3d2-    1 3d2-    1 3d2-    1 3d2-    1 3d2-    1 3d2-
                                   1 3d2-    1 3d2-    1 3d2-    1 3d2-    1 3d2-    1 3d2-    1 3d2-    1 3d2-    1 3d2-    1 3d2-
                                   1 3d2-    1 3d2-    1 4f2-    1 4f2-    1 4f2-    1 4f2-    1 4f2-    1 4f2-    1 4f2-    1 4f2-
                                   1 4f2-    1 4f2-    1 4f2-    1 4f2-    1 4f2-    1 4f2-    1 5g2-    1 5g4-    1 5g2-    1 5g4-
                                   1 5g2-    1 5g4-    1 5g2-    1 5g4-    1 5g2-    1 5g4-    1 5g2-    1 5g4-    1 5g2-    1 5g4-
                                   1 5g2-    1 5g4-    1 5g2-    1 5g4-    1 6h4-    1 6h2-    1 6h4-    1 6h2-    1 6h4-    1 6h2-
                                   2 3d2-    2 3d2-

   1.4   +    -0.3239  -13.8720  0.000000 -0.000000  0.000000 -0.000001  0.000017  0.000184 -0.000575  0.000375  0.000648 -0.003651
                                -0.000043 -0.000388  0.000711 -0.000322 -0.000770 -0.001458 -0.002720  0.000418 -0.000548  0.000034
                                 0.000043 -0.000010  0.000091 -0.000735  0.010574  0.218855  0.356363  0.383442  0.227805  0.092511
                                 0.045469 -0.002663  0.067640 -0.037163  0.024077 -0.008903  0.000012 -0.000000  0.000038 -0.000000
                                 0.000045 -0.000000  0.000350 -0.000000 -0.000812 -0.000000 -0.000989 -0.000000 -0.000479  0.000000
                                -0.000211  0.000000 -0.000013 -0.000000 -0.000000 -0.000101 -0.000000 -0.000181  0.000001 -0.000356
                                 0.000317 -0.000288

   2.4   0     0.0023   -4.0888 -0.000001  0.000003 -0.000014  0.000074 -0.001302 -0.011793  0.036138 -0.031334 -0.000136  0.190230
                                 0.003078  0.022929 -0.040903  0.016667  0.125288  0.153237  0.143900  0.178578  0.142419  0.269525
                                 0.078940  0.242428  0.000001 -0.000008  0.000114  0.002317  0.003657  0.003804  0.002290  0.001028
                                 0.000630 -0.005719 -0.007386 -0.030455 -0.006576 -0.073116 -0.000019 -0.000000  0.000035  0.000000
                                -0.000218 -0.000000  0.000032  0.000001 -0.000957 -0.000000  0.000230  0.000005 -0.002843 -0.000013
                                -0.001234 -0.000007 -0.005388 -0.000020 -0.000000 -0.000008  0.000000  0.000024 -0.000000 -0.000128
                                 0.000224  0.003669

   3.4   0     0.0112   -1.4236  0.000000 -0.000002  0.000010 -0.000052  0.000989  0.009054 -0.013103 -0.003268  0.035420  0.123735
                                -0.002379 -0.017088  0.022686 -0.018153  0.031533 -0.016432  0.246021 -0.249042  0.521051 -0.522710
                                 1.007585 -1.510566  0.000000 -0.000003  0.000044  0.001064  0.002032  0.001992  0.000167  0.000253
                                -0.000242 -0.000400 -0.010216  0.004235 -0.037443  0.038924 -0.000007 -0.000000  0.000010  0.000000
                                -0.000085 -0.000000 -0.000034  0.000000 -0.000341  0.000000 -0.000165  0.000002 -0.000728 -0.000005
                                -0.001633 -0.000005 -0.000641 -0.000004 -0.000000 -0.000004  0.000000  0.000012 -0.000000 -0.000060
                                 0.000128  0.001516

 HOMO      6.1    -0.079725 =      -2.1694eV
 LUMO      7.1    -0.081898 =      -2.2285eV
 LUMO-HOMO        -0.002172 =      -0.0591eV

 No convergence



 **********************************************************************************************************************************
 DATASETS  * FILE   NREC   LENGTH (MB)   RECORD NAMES
              1      20       22.63       500      610      700      900      950      970     1000      129      960     1100
                                          VAR    BASINP    GEOM    SYMINP    ZMAT    AOBASIS   BASIS     P2S    ABASIS      S
                                         1400     1410     1420     1200     1210     1080     1600     1650     1700     1800
                                           T        V       ECP      H0       H01     AOSYM     SMH    MOLCAS    OPER     GRID

[...]
                                 0.000024 -0.000008 -0.000050 -0.000085  0.000400  0.000682 -0.005595 -0.009535 -0.108243 -0.184596
                                -0.178760 -0.305149 -0.197506 -0.337136 -0.121084 -0.207208 -0.043426 -0.073895 -0.021394 -0.036079
                                 0.000671 -0.001782 -0.032072 -0.057724  0.017599  0.032065 -0.010697 -0.019617  0.003852  0.007059
                                -0.000022 -0.000018 -0.000037 -0.000046 -0.000156 -0.000076 -0.000069 -0.000128  0.000092  0.000096
                                 0.000724  0.000484  0.001479  0.000555 -0.001016  0.000215  0.000445  0.000004 -0.000083  0.000305
                                -0.000028 -0.000233  0.000736 -0.000087  0.000182  0.000898 -0.000105 -0.000361 -0.001050 -0.001892
                                 0.000585  0.002086

   3.2   +    -0.4726  -13.9254 -0.000000  0.000000 -0.000000  0.000000 -0.000000  0.000000 -0.000000  0.000000 -0.000001  0.000010
                                 0.000119  0.000207  0.002441  0.000900  0.006486  0.005204 -0.005199 -0.002496 -0.001193 -0.000042
                                -0.000185 -0.001633 -0.002722 -0.001358 -0.002330 -0.000300 -0.000848  0.000637  0.000094 -0.000018
                                 0.000000 -0.000000  0.000001 -0.000006  0.000103  0.000932 -0.002211  0.001266  0.002218 -0.002689
                                -0.000246 -0.001819  0.002927 -0.001202 -0.003640 -0.007517  0.001015 -0.000354 -0.000132  0.000127
                                -0.000042  0.000014  0.000085 -0.000050 -0.000684  0.000399  0.009556 -0.005585  0.184836 -0.108094
                                 0.305234 -0.178675  0.337162 -0.197364  0.207026 -0.121515  0.074109 -0.043246  0.036426 -0.021070
                                -0.000590 -0.001323  0.055431 -0.034087 -0.030096  0.018817  0.018373 -0.011549 -0.006622  0.004159
                                 0.000029 -0.000010  0.000047 -0.000025  0.000212 -0.000041  0.000008 -0.000077 -0.000325  0.000046
                                -0.001380  0.000269 -0.002633  0.000319  0.001711  0.000127 -0.000772  0.000003  0.000033 -0.000013
                                 0.000047  0.000169 -0.000051  0.000132 -0.000400  0.000136  0.000157  0.000609  0.001776  0.003230
                                -0.000999 -0.003593

   4.2   0     0.0020   -1.8956 -0.000000  0.000000 -0.000000  0.000001 -0.000001  0.000001 -0.000002  0.000006 -0.000025  0.000230
                                 0.002527  0.003204  0.002172  0.025662  0.038382 -0.012820 -0.075390  0.160095 -0.168693 -0.000932
                                -0.003606 -0.006239  0.001919 -0.043349 -0.098524  1.206450  0.910312 -1.041709 -0.718951  0.931224
                                 0.000000 -0.000000  0.000002 -0.000010  0.000178  0.001657 -0.004671  0.003726  0.000908 -0.015662
                                -0.000426 -0.003205  0.005481 -0.003001 -0.014129 -0.018010 -0.017390 -0.062248 -0.017927 -0.095582
                                 0.020477 -0.144650 -0.000000 -0.000000  0.000000  0.000004 -0.000003 -0.000049 -0.000089 -0.000938
                                -0.000232 -0.001526 -0.000211 -0.001620 -0.000077 -0.001037  0.000013 -0.000387  0.000119 -0.000208
                                -0.000657 -0.000153 -0.003031 -0.000506 -0.008876  0.000075 -0.003030 -0.000234 -0.010563  0.000012
                                 0.000001  0.000001 -0.000007  0.000001  0.000012  0.000008 -0.000043  0.000018  0.000213  0.000001
                                 0.000259 -0.000011  0.000999 -0.000012 -0.000874 -0.000003  0.000752  0.000011  0.000002  0.000001
                                -0.000001 -0.000041  0.000015  0.000029 -0.000033  0.000022  0.000058  0.000161  0.001118  0.006849
                                -0.000001 -0.000317

   5.2   0     0.0081   -1.3796 -0.000000  0.000000 -0.000000  0.000001 -0.000002  0.000002 -0.000005  0.000015 -0.000062  0.000570
                                 0.006210  0.008849  0.076618  0.070170  0.222073  0.189649 -0.192304  0.326776 -1.315678 -0.002297
                                -0.008941 -0.056187 -0.095167 -0.068775 -0.169216  4.130962  3.153220 -4.729053 -3.822783  2.385879
                                 0.000000 -0.000000  0.000001 -0.000004  0.000079  0.000686 -0.000251 -0.001699  0.004487  0.019516
                                -0.000188 -0.001269  0.001296 -0.001141  0.008883  0.003592  0.042365  0.003514  0.085384 -0.005100
                                 0.142586 -0.097033  0.000000  0.000000 -0.000000 -0.000003  0.000004  0.000042  0.000097  0.000810
                                 0.000200  0.001317  0.000195  0.001398  0.000167  0.000895  0.000017  0.000334 -0.000049  0.000180
                                 0.000323  0.000133  0.003589  0.000441  0.003839 -0.000064  0.006838  0.000208  0.001247 -0.000011
                                -0.000000 -0.000001  0.000003 -0.000001 -0.000003 -0.000008  0.000019 -0.000017 -0.000146 -0.000001
                                -0.000346  0.000010 -0.000478  0.000011 -0.000096  0.000003 -0.001216 -0.000009 -0.000002 -0.000001
                                 0.000001  0.000035 -0.000013 -0.000025  0.000030 -0.000019 -0.000051 -0.000028 -0.001421 -0.002854
                                -0.000087  0.000526

                                   1 2py     1 2py     1 2py     1 2py     1 2py     1 2py     1 2py     1 2py     1 2py     1 2py
                                   1 2py     1 2py     1 2py     1 2py     1 2py     1 2py     1 2py     1 2py     1 2py     1 2py
                                   1 2py     1 2py     1 2py     1 2py     1 2py     1 2py     1 2py     1 2py     1 2py     1 2py
                                   1 3d1-    1 3d1-    1 3d1-    1 3d1-    1 3d1-    1 3d1-    1 3d1-    1 3d1-    1 3d1-    1 3d1-
                                   1 3d1-    1 3d1-    1 3d1-    1 3d1-    1 3d1-    1 3d1-    1 3d1-    1 3d1-    1 3d1-    1 3d1-
                                   1 3d1-    1 3d1-    1 4f1-    1 4f3-    1 4f1-    1 4f3-    1 4f1-    1 4f3-    1 4f1-    1 4f3-
                                   1 4f1-    1 4f3-    1 4f1-    1 4f3-    1 4f1-    1 4f3-    1 4f1-    1 4f3-    1 4f1-    1 4f3-
                                   1 4f1-    1 4f3-    1 4f1-    1 4f3-    1 4f1-    1 4f3-    1 4f1-    1 4f3-    1 4f1-    1 4f3-
                                   1 5g1-    1 5g3-    1 5g1-    1 5g3-    1 5g1-    1 5g3-    1 5g1-    1 5g3-    1 5g1-    1 5g3-
                                   1 5g1-    1 5g3-    1 5g1-    1 5g3-    1 5g1-    1 5g3-    1 5g1-    1 5g3-    1 6h1-    1 6h3-
                                   1 6h5-    1 6h1-    1 6h3-    1 6h5-    1 6h1-    1 6h3-    1 6h5-    2 2py     2 2py     2 2py
                                   2 3d1-    2 3d1-

   1.3   2    -1.1167  -11.7749  0.000000 -0.000000  0.000000 -0.000001  0.000002 -0.000002  0.000005 -0.000015  0.000064 -0.000586
                                -0.006334 -0.005246  0.158295 -0.093291  0.162194  0.361606  0.092491  0.012308 -0.002780  0.002368
                                 0.008611 -0.080899 -0.188641  0.172768  0.386513  0.001686  0.005348 -0.004100 -0.000472  0.000086
                                 0.000000 -0.000000  0.000000 -0.000001  0.000016  0.000162 -0.000329 -0.000137  0.000959 -0.003392
                                -0.000039 -0.000316  0.000476 -0.000127  0.000781 -0.003267 -0.000509 -0.000745  0.000078 -0.000060
                                 0.000023 -0.000006  0.000001 -0.000001 -0.000004  0.000008  0.000060 -0.000114  0.001076 -0.002198
                                 0.001577 -0.003632  0.001459 -0.003915 -0.001082 -0.002581  0.000551 -0.000922  0.000599 -0.000557
                                -0.002668 -0.000338 -0.000554 -0.000798 -0.000012  0.000391 -0.000010 -0.000245 -0.000002  0.000089
                                 0.000004  0.000010  0.000015  0.000022  0.000014  0.000076  0.000156  0.000128 -0.000440  0.000168
                                -0.000516  0.000132 -0.000142  0.000049  0.000087  0.000011 -0.000026 -0.000001 -0.000040 -0.000048
                                 0.000013  0.000027 -0.000223 -0.000113  0.000091 -0.000513 -0.000435  0.000259  0.000806  0.000321
                                -0.000222 -0.000183

   2.3   +    -0.4797  -13.9259  0.000000 -0.000000  0.000000 -0.000000  0.000000 -0.000000  0.000000 -0.000001  0.000002 -0.000023
                                -0.000293 -0.000517  0.001728  0.002700 -0.001149 -0.001428 -0.003519 -0.003425 -0.000898  0.000097
                                 0.000502 -0.000402 -0.007325  0.010701  0.011822  0.000307  0.000975 -0.000751 -0.000089  0.000017
                                -0.000000  0.000000 -0.000001  0.000004 -0.000075 -0.000690  0.001766 -0.001275 -0.001031  0.004233
                                 0.000180  0.001336 -0.002200  0.001213  0.004437  0.005778  0.000228  0.000514  0.000125 -0.000070
                                 0.000024 -0.000008 -0.000050  0.000085  0.000400 -0.000682 -0.005585  0.009541 -0.108048  0.184709
                                -0.178439  0.305337 -0.197151  0.337344 -0.120867  0.207335 -0.043348  0.073941 -0.021356  0.036102
                                 0.000669  0.001783 -0.032014  0.057759  0.017568 -0.032085 -0.010678  0.019629  0.003845 -0.007063
                                -0.000022  0.000018 -0.000037  0.000046 -0.000156  0.000077 -0.000069  0.000128  0.000092 -0.000096
                                 0.000723 -0.000484  0.001476 -0.000555 -0.001015 -0.000216  0.000445 -0.000004 -0.000083 -0.000305
                                -0.000027 -0.000233 -0.000737 -0.000086  0.000182 -0.000899 -0.000104 -0.000361 -0.001048 -0.001889
                                 0.000584  0.002082

   3.3   +    -0.4726  -13.9254 -0.000000  0.000000 -0.000000  0.000000 -0.000000  0.000000 -0.000000  0.000000 -0.000001  0.000010
                                 0.000119  0.000208  0.002438  0.000900  0.006487  0.005201 -0.005197 -0.002494 -0.001191 -0.000043
                                -0.000185 -0.001632 -0.002714 -0.001369 -0.002345 -0.000301 -0.000849  0.000638  0.000094 -0.000018
                                 0.000000 -0.000000  0.000001 -0.000006  0.000103  0.000933 -0.002215  0.001269  0.002218 -0.002700
                                -0.000246 -0.001822  0.002931 -0.001204 -0.003650 -0.007526  0.001013 -0.000354 -0.000132  0.000127
                                -0.000042  0.000014  0.000085  0.000050 -0.000684 -0.000399  0.009561  0.005575  0.184949  0.107900
                                 0.305421  0.178354  0.337368  0.197009  0.207154  0.121297  0.074154  0.043168  0.036448  0.021032
                                -0.000588  0.001322  0.055467  0.034026 -0.030114 -0.018783  0.018384  0.011529 -0.006626 -0.004151
                                 0.000029  0.000010  0.000047  0.000025  0.000214  0.000040  0.000010  0.000076 -0.000325 -0.000045
                                -0.001381 -0.000267 -0.002634 -0.000318  0.001712 -0.000127 -0.000772 -0.000003  0.000033  0.000013
                                 0.000047  0.000169  0.000053  0.000132 -0.000400 -0.000134  0.000157  0.000609  0.001777  0.003232
                                -0.001000 -0.003595

   4.3   0     0.0020   -1.8963 -0.000000  0.000000 -0.000000  0.000001 -0.000001  0.000001 -0.000002  0.000006 -0.000025  0.000230
                                 0.002526  0.003202  0.002152  0.025647  0.038329 -0.012874 -0.075354  0.160042 -0.168354 -0.000932
                                -0.003604 -0.006224  0.001945 -0.043337 -0.098493  1.205556  0.909623 -1.040620 -0.718102  0.930587
                                 0.000000 -0.000000  0.000002 -0.000010  0.000178  0.001656 -0.004671  0.003727  0.000905 -0.015674
                                -0.000426 -0.003204  0.005480 -0.003000 -0.014135 -0.018014 -0.017416 -0.062254 -0.017972 -0.095581
                                 0.020421 -0.144584 -0.000000  0.000000  0.000000 -0.000004 -0.000003  0.000049 -0.000089  0.000939
                                -0.000233  0.001527 -0.000212  0.001622 -0.000077  0.001038  0.000012  0.000388  0.000119  0.000208
                                -0.000657  0.000152 -0.003031  0.000503 -0.008875 -0.000083 -0.003032  0.000230 -0.010562 -0.000022
                                 0.000001 -0.000001 -0.000007 -0.000001  0.000012 -0.000008 -0.000043 -0.000018  0.000213 -0.000001
                                 0.000259  0.000011  0.001001  0.000015 -0.000871  0.000006  0.000755 -0.000006  0.000002 -0.000001
                                -0.000001 -0.000041 -0.000015  0.000029 -0.000033 -0.000022  0.000058  0.000161  0.001118  0.006844
                                -0.000001 -0.000316

   5.3   0     0.0081   -1.3792 -0.000000  0.000000 -0.000000  0.000001 -0.000002  0.000002 -0.000005  0.000015 -0.000062  0.000570
                                 0.006210  0.008849  0.076611  0.070168  0.222058  0.189632 -0.192294  0.326759 -1.315593 -0.002297
                                -0.008941 -0.056182 -0.095158 -0.068775 -0.169214  4.130707  3.153036 -4.728740 -3.822474  2.385987
                                 0.000000 -0.000000  0.000001 -0.000004  0.000079  0.000688 -0.000253 -0.001699  0.004491  0.019518
                                -0.000188 -0.001271  0.001299 -0.001143  0.008880  0.003586  0.042378  0.003486  0.085413 -0.005152
                                 0.142643 -0.097175  0.000000 -0.000000 -0.000000  0.000003  0.000004 -0.000042  0.000097 -0.000810
                                 0.000200 -0.001318  0.000196 -0.001398  0.000168 -0.000895  0.000018 -0.000335 -0.000049 -0.000180
                                 0.000323 -0.000133  0.003587 -0.000437  0.003834  0.000070  0.006837 -0.000203  0.001242  0.000017
                                -0.000000  0.000001  0.000003  0.000001 -0.000003  0.000008  0.000019  0.000017 -0.000146  0.000002
                                -0.000346 -0.000010 -0.000479 -0.000014 -0.000098 -0.000005 -0.001218  0.000005 -0.000002  0.000001
                                 0.000001  0.000035  0.000013 -0.000025  0.000030  0.000019 -0.000051 -0.000028 -0.001420 -0.002847
                                -0.000087  0.000525

                                   1 3d2-    1 3d2-    1 3d2-    1 3d2-    1 3d2-    1 3d2-    1 3d2-    1 3d2-    1 3d2-    1 3d2-
                                   1 3d2-    1 3d2-    1 3d2-    1 3d2-    1 3d2-    1 3d2-    1 3d2-    1 3d2-    1 3d2-    1 3d2-
                                   1 3d2-    1 3d2-    1 4f2-    1 4f2-    1 4f2-    1 4f2-    1 4f2-    1 4f2-    1 4f2-    1 4f2-
                                   1 4f2-    1 4f2-    1 4f2-    1 4f2-    1 4f2-    1 4f2-    1 5g2-    1 5g4-    1 5g2-    1 5g4-
                                   1 5g2-    1 5g4-    1 5g2-    1 5g4-    1 5g2-    1 5g4-    1 5g2-    1 5g4-    1 5g2-    1 5g4-
                                   1 5g2-    1 5g4-    1 5g2-    1 5g4-    1 6h4-    1 6h2-    1 6h4-    1 6h2-    1 6h4-    1 6h2-
                                   2 3d2-    2 3d2-

   1.4   +    -0.4729  -13.9300 -0.000000  0.000000 -0.000000  0.000000 -0.000005 -0.000060  0.000156 -0.000127  0.000078 -0.000719
                                 0.000012  0.000096 -0.000131  0.000650  0.001337 -0.001192 -0.001086 -0.000235 -0.000097 -0.000028
                                 0.000030 -0.000008  0.000098 -0.000792  0.011072  0.214274  0.354084  0.391002  0.239646  0.085760
                                 0.041879  0.000417  0.066686 -0.037143  0.022753 -0.008201  0.000037 -0.000000  0.000093 -0.000000
                                 0.000224 -0.000001  0.000331 -0.000001 -0.000250 -0.000000 -0.001144  0.000000 -0.000403  0.000000
                                 0.000085  0.000000 -0.000090 -0.000000  0.000000 -0.000081  0.000000 -0.000154  0.000001 -0.000732
                                 0.000318 -0.001302

   2.4   0     0.0110   -0.8404  0.000001 -0.000004  0.000017 -0.000090  0.001674  0.015253 -0.031805  0.012743  0.035837  0.028251
                                -0.003999 -0.029116  0.043980 -0.027032 -0.032117 -0.095083  0.174176 -0.343821  0.458691 -0.653318
                                 1.096339 -1.598331 -0.000000  0.000001 -0.000006 -0.000044  0.000073  0.000021 -0.000415 -0.000107
                                -0.000227  0.000972 -0.002265  0.008074 -0.012734  0.025267  0.000002  0.000000 -0.000005 -0.000000
                                 0.000016  0.000000 -0.000026 -0.000000  0.000106  0.000000 -0.000139 -0.000000  0.000607  0.000000
                                -0.000711 -0.000000  0.002193  0.000001 -0.000000  0.000000  0.000000 -0.000000  0.000000  0.000002
                                -0.000009 -0.000025

   3.4   0     0.0305   -1.3861  0.000001 -0.000008  0.000033 -0.000175  0.003230  0.029342 -0.058397  0.019100  0.075914  0.101223
                                -0.007710 -0.055918  0.083005 -0.051789 -0.037564 -0.161065  0.403587 -0.675839  1.043529 -1.377624
                                 2.718100 -1.419146  0.000000 -0.000002  0.000028  0.000344  0.000146  0.000325  0.001435  0.000397
                                 0.000701 -0.003082  0.005160 -0.027495  0.035582 -0.099854 -0.000006 -0.000000  0.000017  0.000000
                                -0.000068 -0.000000  0.000069  0.000000 -0.000450 -0.000000  0.000300  0.000000 -0.002495 -0.000001
                                 0.001981  0.000000 -0.009211 -0.000003  0.000000 -0.000001 -0.000000  0.000003 -0.000000 -0.000012
                                 0.000106 -0.000256

 HOMO      6.1    -0.190894 =      -5.1945eV
 LUMO      4.3     0.001960 =       0.0533eV
 LUMO-HOMO         0.192854 =       5.2478eV


 **********************************************************************************************************************************
 DATASETS  * FILE   NREC   LENGTH (MB)   RECORD NAMES
              1      20       22.63       500      610      700      900      950      970     1000      129      960     1100
                                          VAR    BASINP    GEOM    SYMINP    ZMAT    AOBASIS   BASIS     P2S    ABASIS      S
                                         1400     1410     1420     1200     1210     1080     1600     1650     1700     1800
                                           T        V       ECP      H0       H01     AOSYM     SMH    MOLCAS    OPER     GRID

              2       6        9.61       700     1000      520     1800     3202     2101
                                         GEOM     BASIS   MCVARS    GRID      RKS      RHF

 PROGRAMS   *        TOTAL       RHF       RKS       INT
 CPU TIMES  *       273.53     15.06    144.41    113.65
 REAL TIME  *       297.17 SEC
 DISK USED  *        13.53 GB
 SF USED    *         0.25 MB
 GA USED    *         0.19 MB       (max)       0.19 MB       (current)
 **********************************************************************************************************************************
   -->
   <time start="06:51:13" end="06:51:29" cpu="15.09" system="0.94" real="16.1"/>
   <storage units="megabyte" memory="8001.84" sf="0.25" df="621.81" eaf="12905.87"
     ga="0.19"/>
  </jobstep><!--
 SETTING SCF            =      -108.49774642  AU
 SETTING _CC_NORM_MAX   =         2.00000000
  --><jobstep command="OQVCCDR(T)" commandset="CCSD">
   <!--


 PROGRAM * OQVCCD (Closed-shell Orbitally Optimized Quasi-Variational Coupled Cluster, OQVCC(D))
 Authors: C. Hampel, H.-J. Werner, 1991, M. Deegan, P.J. Knowles, 1992, C. Kollmar, 2008, B. Cooper, 2009, J.B. Robinson, 2011


 NUMBER OF OCCUPIED ORBITALS NOT CONSISTENT WITH NUMBER OF ELECTRONS FOR CCSD. NELEC=  19  NCORE=  0  NCLOS= 13  NOCC= 13  MS2= 7
   --><error/><!--
  --></jobstep><!--
  -->
  <input>
  <!--
 --></job><!--
--></molpro>
