
 Primary working directories    : /global/cscratch1/sd/haihan
 Secondary working directories  : /global/cscratch1/sd/haihan
 Wavefunction directory         : /global/homes/h/haihan/Research/ECP/f_group_element_ecps/Zr/Molpro/molecule/ZrH/UC/wfu/
 Main file repository           : /global/cscratch1/sd/haihan/

 SHA1      : 19cd028119e0e09f93f0674bd8af7968d9b3eff6
 NAME      : 2015.1.36
 ARCHNAME  : linux/x86_64
 FC        : /opt/cray/pe/craype/2.5.14/bin/ftn
 BLASLIB   : -L/opt/intel/compilers_and_libraries_2018.1.163/linux/mkl/lib/intel64 -Wl,-_start-group -lmkl_intel_ilp64 -lmkl_intel_thread -lmkl_core -Wl,-_end-group -liomp5
 id        : lbl

 Nodes     nprocs
 nid02190    11
 Number of processes for MPI-2 version of Molpro:   nprocs(total)=   12   nprocs(compute)=   11   nprocs(helper)=    1

 Using customized tuning parameters: mindgm=7; mindgv=16; mindgc=1; mindgr=1; noblas=0; minvec=7
 default implementation of scratch files=sf  

 ***,Calculation for all-electron YH molecule, SCF and CCSD(T)
 memory,1,g
 gthresh,twoint=1.0E-15
 gthresh,throvl=1.0E-15
 
 set,dkroll=1,dkho=10,dkhp=4
 basis={
 Including file /global/u2/h/haihan/Research/ECP/f_group_element_ecps/Zr/Molpro/molecule/ZrH/UC/r_2.10/../generate/Zr-aug-cc-pwCVTZ.basis
 Including file /global/u2/h/haihan/Research/ECP/f_group_element_ecps/Zr/Molpro/molecule/ZrH/UC/r_2.10/../generate/H-aug-cc-pVTZ.basis
 }
 
 Zr_ccsd=-3596.607176
 H_ccsd=-0.49982785
 
                                                                                 !These are the wf cards parameters
 ne = 41
 symm = 2
 ss= 1
 
                                                                                 !There are irrep cards paramters
 A1=11
 B1=5
 B2=4
 A2=1
 
 
 geometry={
     2
     YH molecule
     Zr 0.0 0.0 0.0
     H 0.0 0.0 2.10
 }
 {rhf,nitord=100;
  maxit,200;
  wf,ne,symm,ss
  occ,A1,B1,B2,A2
  closed,A1,B1-1,B2,A2
  print,orbitals=2
 }
 scf=energy
 _CC_NORM_MAX=2.0
 {rccsd(t),shifts=0.2,shiftp=0.2,thrdis=1.0;diis,1,1,15,1;maxit,100;core,7,3,3,1}
 ccsd=energy
 bind=ccsd-Zr_ccsd-H_ccsd
 
 
 table,2.10,scf,ccsd,bind
 save
 type,csv
 

 Variables initialized (889), CPU time= 0.00 sec
 Commands  initialized (702), CPU time= 0.01 sec, 572 directives.
 Default parameters read. Elapsed time= 0.11 sec

 Checking input...
 Passed
1


                                         ***  PROGRAM SYSTEM MOLPRO  ***
                                       Copyright, TTI GmbH Stuttgart, 2015
                                    Version 2015.1 linked Dec 29 2018 15:55:43


 **********************************************************************************************************************************
 LABEL *   Calculation for all-electron YH molecule, SCF and CCSD(T)                     
  64 bit mpp version                                                                     DATE: 24-Sep-22          TIME: 21:14:16  
 **********************************************************************************************************************************

 SHA1:             19cd028119e0e09f93f0674bd8af7968d9b3eff6
 **********************************************************************************************************************************

 THRESHOLDS:

 ZERO    =  1.00D-12  ONEINT  =  1.00D-12  TWOINT  =  1.00D-15  PREFAC  =  1.00D-14  LOCALI  =  1.00D-09  EORDER  =  1.00D-04
 ENERGY  =  0.00D+00  ETEST   =  0.00D+00  EDENS   =  0.00D+00  THRDEDEF=  1.00D-06  GRADIENT=  1.00D-02  STEP    =  1.00D-03
 ORBITAL =  1.00D-05  CIVEC   =  1.00D-05  COEFF   =  1.00D-04  PRINTCI =  5.00D-02  PUNCHCI =  9.90D+01  OPTGRAD =  3.00D-04
 OPTENERG=  1.00D-06  OPTSTEP =  3.00D-04  THRGRAD =  1.00D-10  COMPRESS=  1.00D-11  VARMIN  =  1.00D-07  VARMAX  =  1.00D-03
 THRDOUB =  0.00D+00  THRDIV  =  1.00D-05  THRRED  =  1.00D-07  THRPSP  =  1.00D+00  THRDC   =  1.00D-10  THRCS   =  1.00D-10
 THRNRM  =  1.00D-08  THREQ   =  0.00D+00  THRDE   =  1.00D+00  THRREF  =  1.00D-05  SPARFAC =  1.00D+00  THRDLP  =  1.00D-07
 THRDIA  =  1.00D-10  THRDLS  =  1.00D-07  THRGPS  =  0.00D+00  THRKEX  =  0.00D+00  THRDIS  =  2.00D-01  THRVAR  =  1.00D-10
 THRLOC  =  1.00D-06  THRGAP  =  1.00D-06  THRLOCT = -1.00D+00  THRGAPT = -1.00D+00  THRORB  =  1.00D-06  THRMLTP =  0.00D+00
 THRCPQCI=  1.00D-10  KEXTA   =  0.00D+00  THRCOARS=  0.00D+00  SYMTOL  =  1.00D-06  GRADTOL =  1.00D-06  THROVL  =  1.00D-08
 THRORTH =  1.00D-08  GRID    =  1.00D-06  GRIDMAX =  1.00D-03  DTMAX   =  0.00D+00  THROCCDE=  1.00D-01  THROCCDE=  1.00D-01



 THRESHOLDS:

 ZERO    =  1.00D-12  ONEINT  =  1.00D-12  TWOINT  =  1.00D-15  PREFAC  =  1.00D-14  LOCALI  =  1.00D-09  EORDER  =  1.00D-04
 ENERGY  =  0.00D+00  ETEST   =  0.00D+00  EDENS   =  0.00D+00  THRDEDEF=  1.00D-06  GRADIENT=  1.00D-02  STEP    =  1.00D-03
 ORBITAL =  1.00D-05  CIVEC   =  1.00D-05  COEFF   =  1.00D-04  PRINTCI =  5.00D-02  PUNCHCI =  9.90D+01  OPTGRAD =  3.00D-04
 OPTENERG=  1.00D-06  OPTSTEP =  3.00D-04  THRGRAD =  1.00D-10  COMPRESS=  1.00D-11  VARMIN  =  1.00D-07  VARMAX  =  1.00D-03
 THRDOUB =  0.00D+00  THRDIV  =  1.00D-05  THRRED  =  1.00D-07  THRPSP  =  1.00D+00  THRDC   =  1.00D-10  THRCS   =  1.00D-10
 THRNRM  =  1.00D-08  THREQ   =  0.00D+00  THRDE   =  1.00D+00  THRREF  =  1.00D-05  SPARFAC =  1.00D+00  THRDLP  =  1.00D-07
 THRDIA  =  1.00D-10  THRDLS  =  1.00D-07  THRGPS  =  0.00D+00  THRKEX  =  0.00D+00  THRDIS  =  2.00D-01  THRVAR  =  1.00D-10
 THRLOC  =  1.00D-06  THRGAP  =  1.00D-06  THRLOCT = -1.00D+00  THRGAPT = -1.00D+00  THRORB  =  1.00D-06  THRMLTP =  0.00D+00
 THRCPQCI=  1.00D-10  KEXTA   =  0.00D+00  THRCOARS=  0.00D+00  SYMTOL  =  1.00D-06  GRADTOL =  1.00D-06  THROVL  =  1.00D-15
 THRORTH =  1.00D-08  GRID    =  1.00D-06  GRIDMAX =  1.00D-03  DTMAX   =  0.00D+00  THROCCDE=  1.00D-01  THROCCDE=  1.00D-01


 SETTING DKROLL         =         1.00000000                                  
 SETTING DKHO           =        10.00000000                                  
 SETTING DKHP           =         4.00000000                                  

 Variable memory set to 1000000000 words,  buffer space   230000 words

 SETTING BASIS          =    USERDEF
 SETTING ZR_CCSD        =     -3596.60717600                                  
 SETTING H_CCSD         =        -0.49982785                                  
 SETTING NE             =        41.00000000                                  
 SETTING SYMM           =         2.00000000                                  
 SETTING SS             =         1.00000000                                  
 SETTING A1             =        11.00000000                                  
 SETTING B1             =         5.00000000                                  
 SETTING B2             =         4.00000000                                  
 SETTING A2             =         1.00000000                                  

Geometry recognized as XYZ



 Recomputing integrals since basis changed


 Using spherical harmonics



 PROGRAM * SEWARD (Integral evaluation for generally contracted gaussian basis sets)     Author: Roland Lindh, 1990

 Geometry written to block  1 of record 700


 Point group  C2v 



 ATOMIC COORDINATES

 NR  ATOM    CHARGE       X              Y              Z

   1  ZR     40.00    0.000000000    0.000000000    0.000000000
   2  H       1.00    0.000000000    0.000000000    3.968424862

 Bond lengths in Bohr (Angstrom)

 1-2  3.968424862
     ( 2.100000000)

 NUCLEAR CHARGE:                   41
 NUMBER OF PRIMITIVE AOS:         347
 NUMBER OF SYMMETRY AOS:          295
 NUMBER OF CONTRACTIONS:          295   ( 129A1  +  67B1  +  67B2  +  32A2  )
 NUMBER OF CORE ORBITALS:          18   (   9A1  +   4B1  +   4B2  +   1A2  )
 NUMBER OF VALENCE ORBITALS:        7   (   4A1  +   1B1  +   1B2  +   1A2  )


 NUCLEAR REPULSION ENERGY   10.07956592

 One-electron integrals computed with SEWARD

 10nd-order Douglas-Kroll-Hess method activated. McWeeny DKH parametrization is used.

 Computing Douglas-Kroll / X2C integrals

 AO integral compression algorithm  1   Integral accuracy      1.0D-15

     1229.980 MB (compressed) written to integral file ( 55.1%)

     Node minimum: 49.021 MB, node maximum: 335.282 MB


 NUMBER OF SORTED TWO-ELECTRON INTEGRALS:   22432752.     BUFFER LENGTH:  32768
 NUMBER OF SEGMENTS:   2  SEGMENT LENGTH:   15996129      RECORD LENGTH: 524288

 Memory used in sort:      16.55 MW

 SORT1 READ   279023068. AND WROTE    10196616. INTEGRALS IN     30 RECORDS. CPU TIME:     5.70 SEC, REAL TIME:     6.56 SEC
 SORT2 READ   111193714. AND WROTE   246753875. INTEGRALS IN   2497 RECORDS. CPU TIME:     0.45 SEC, REAL TIME:     0.91 SEC

 Node minimum:    22405599.  Node maximum:    22490595. integrals

 OPERATOR DM      FOR CENTER  0  COORDINATES:    0.000000    0.000000    0.000000

 EXTRA SYMMETRY OF AOS IN SYMMETRY 1:   1 1 1 1 1 1 1 1 1 1   1 1 1 1 1 1 1 1 1 1   1 1 1 1 1 1 1 1 1 1   1 1 1 1 1 1 1 1 1 1
                                        1 1 1 1 1 1 1 1 1 1   1 1 1 1 1 1 1 1 1 1   2 1 2 1 2 1 2 1 2 1   2 1 2 1 2 1 2 1 2 1
                                        2 1 2 1 2 1 2 1 2 1   2 1 2 1 2 1 2 1 2 1   2 1 2 1 2 1 2 1 3 2   1 3 2 1 3 2 1 1 1 1
                                        1 1 1 1 1 1 2 1 2
 EXTRA SYMMETRY OF AOS IN SYMMETRY 2:   1 1 1 1 1 1 1 1 1 1   1 1 1 1 1 1 1 1 1 1   1 1 1 1 1 1 1 1 1 1   1 1 1 1 1 1 1 1 1 1
                                        1 1 1 1 1 1 1 1 1 2   1 2 1 2 1 2 1 2 1 2   1 2 1 1 1 1 1
 EXTRA SYMMETRY OF AOS IN SYMMETRY 3:   1 1 1 1 1 1 1 1 1 1   1 1 1 1 1 1 1 1 1 1   1 1 1 1 1 1 1 1 1 1   1 1 1 1 1 1 1 1 1 1
                                        1 1 1 1 1 1 1 1 1 2   1 2 1 2 1 2 1 2 1 2   1 2 1 1 1 1 1
 EXTRA SYMMETRY OF AOS IN SYMMETRY 4:   1 1 1 1 1 1 1 1 1 1   1 1 1 1 1 1 1 1 1 1   1 1 1 1 1 2 1 2 1 2   1 1

 Eigenvalues of metric

         1 0.120E-07 0.920E-07 0.978E-07 0.115E-06 0.525E-06 0.103E-05 0.319E-05 0.781E-05
         2 0.122E-07 0.976E-07 0.117E-06 0.105E-05 0.811E-05 0.108E-04 0.362E-04 0.404E-04
         3 0.122E-07 0.976E-07 0.117E-06 0.105E-05 0.811E-05 0.108E-04 0.362E-04 0.404E-04
         4 0.978E-07 0.108E-04 0.404E-04 0.435E-03 0.213E-02 0.598E-02 0.165E-01 0.366E-01


 **********************************************************************************************************************************
 DATASETS  * FILE   NREC   LENGTH (MB)   RECORD NAMES
              1      22       21.76       500      610      700      900      950      970     1000      129      960     1700   
                                          VAR    BASINP    GEOM    SYMINP    ZMAT    AOBASIS   BASIS     P2S    ABASIS    OPER   
                                         1101     1401     1411     1412     1650     1100     1400     1410     1200     1210   
                                          SR      EKINR    POTR     PVPR    MOLCAS      S      EKIN      POT      H0       H01  
                                         1080     1600   
                                         AOSYM     SMH  

 PROGRAMS   *        TOTAL       INT
 CPU TIMES  *        60.19     59.88
 REAL TIME  *        63.29 SEC
 DISK USED  *         2.64 GB      
 GA USED    *         0.00 MB       (max)       0.00 MB       (current)
 **********************************************************************************************************************************


 PROGRAM * RHF-SCF (OPEN SHELL)       Authors: W. Meyer, H.-J. Werner


 NUMBER OF ELECTRONS:      21+   20-    SPACE SYMMETRY=2    SPIN SYMMETRY: Doublet 
 CONVERGENCE THRESHOLDS:    1.00E-05 (Density)    1.00E-07 (Energy)
 MAX. NUMBER OF ITERATIONS:      200
 INTERPOLATION TYPE:            DIIS
 INTERPOLATION STEPS:              2 (START)      1 (STEP)
 LEVEL SHIFTS:                 -0.60 (CLOSED) -0.30 (OPEN) 

 Number of closed-shell orbitals:   20 (  11   4   4   1 )
 Number of open-shell orbitals:      1 (   0   1   0   0 )


 Orbital guess generated from atomic densities. Full valence occupancy:   13   5   5   2

 Molecular orbital dump at record        2100.2

 ITERATION    DDIFF          GRAD             ENERGY        2-EL.EN.            DIPOLE MOMENTS         DIIS   ORB.
    1      0.000D+00      0.000D+00     -3595.93178631   2679.909201    0.00000    0.00000   -0.58921    0    start
    2      0.000D+00      0.109D-01     -3596.68430749   2759.190393    0.00000    0.00000   -0.18972    1    diag,B
    3      0.782D+00      0.695D-02     -3596.72156562   2750.422917    0.00000    0.00000   -0.27769    2    diag,B
    4      0.820D-02      0.203D-02     -3596.73925081   2749.764357    0.00000    0.00000   -0.37000    3    diag,B
    5      0.989D-02      0.116D-02     -3596.75417526   2750.597850    0.00000    0.00000   -0.49492    4    diag,B
    6      0.141D-01      0.752D-03     -3596.76268838   2752.209239    0.00000    0.00000   -0.63372    5    diag,B
    7      0.128D-01      0.409D-03     -3596.76562374   2753.361419    0.00000    0.00000   -0.76995    6    diag,B
    8      0.812D-02      0.184D-03     -3596.76614981   2753.654833    0.00000    0.00000   -0.85117    7    diag,B
    9      0.321D-02      0.137D-03     -3596.76650896   2753.777664    0.00000    0.00000   -0.92269    8    diag,B
   10      0.248D-02      0.103D-03     -3596.76683188   2753.900944    0.00000    0.00000   -0.98980    9    orth
   11      0.464D-02      0.732D-04     -3596.76704468   2754.097706    0.00000    0.00000   -1.03177    9    diag,B
   12      0.419D-02      0.477D-04     -3596.76714919   2754.272290    0.00000    0.00000   -1.05866    9    diag,B
   13      0.328D-02      0.250D-04     -3596.76716649   2754.314985    0.00000    0.00000   -1.06019    9    diag,B
   14      0.105D-02      0.148D-04     -3596.76717185   2754.328922    0.00000    0.00000   -1.05903    9    diag,B
   15      0.118D-02      0.996D-05     -3596.76717396   2754.323552    0.00000    0.00000   -1.05757    9    diag,B
   16      0.572D-03      0.794D-05     -3596.76717572   2754.319172    0.00000    0.00000   -1.05486    9    diag,B
   17      0.297D-03      0.595D-05     -3596.76717708   2754.311228    0.00000    0.00000   -1.05242    9    diag,B
   18      0.523D-03      0.372D-05     -3596.76717756   2754.307005    0.00000    0.00000   -1.05040    9    diag,B
   19      0.381D-03      0.204D-05     -3596.76717768   2754.302501    0.00000    0.00000   -1.04925    9    diag,B
   20      0.871D-04      0.101D-05     -3596.76717770   2754.300300    0.00000    0.00000   -1.04850    9    orth
   21      0.573D-04      0.419D-06     -3596.76717770   2754.299514    0.00000    0.00000   -1.04816    9    diag,B
   22      0.180D-04      0.187D-06     -3596.76717770   2754.299289    0.00000    0.00000   -1.04805    9    diag,B
   23      0.750D-05      0.104D-06     -3596.76717770   2754.299248    0.00000    0.00000   -1.04803    0    orth

 Final alpha occupancy:  11   5   4   1
 Final beta  occupancy:  11   4   4   1

 !RHF STATE 1.2 Energy              -3596.767177700292
 Nuclear energy                        10.07956592
 One-electron energy                -4983.99636776
 Two-electron energy                 1377.14962414
 Virial quotient                       -0.91148721
 !RHF STATE 1.2 Dipole moment           0.00000000     0.00000000    -1.04803403
 Dipole moment /Debye                   0.00000000     0.00000000    -2.66366232

 ELECTRON ORBITALS
 =================


   Orb  Occ    Energy  Couls-En    Coefficients

                                   1 1s      1 1s      1 1s      1 1s      1 1s      1 1s      1 1s      1 1s      1 1s      1 1s   
                                   1 1s      1 1s      1 1s      1 1s      1 1s      1 1s      1 1s      1 1s      1 1s      1 1s   
                                   1 1s      1 1s      1 1s      1 1s      1 1s      1 1s      1 1s      1 1s      1 1s      1 1s   
                                   1 1s      1 2pz     1 2pz     1 2pz     1 2pz     1 2pz     1 2pz     1 2pz     1 2pz     1 2pz  
                                   1 2pz     1 2pz     1 2pz     1 2pz     1 2pz     1 2pz     1 2pz     1 2pz     1 2pz     1 2pz  
                                   1 2pz     1 2pz     1 2pz     1 2pz     1 2pz     1 2pz     1 2pz     1 2pz     1 2pz     1 3d0  
                                   1 3d2+    1 3d0     1 3d2+    1 3d0     1 3d2+    1 3d0     1 3d2+    1 3d0     1 3d2+    1 3d0  
                                   1 3d2+    1 3d0     1 3d2+    1 3d0     1 3d2+    1 3d0     1 3d2+    1 3d0     1 3d2+    1 3d0  
                                   1 3d2+    1 3d0     1 3d2+    1 3d0     1 3d2+    1 3d0     1 3d2+    1 3d0     1 3d2+    1 3d0  
                                   1 3d2+    1 3d0     1 3d2+    1 3d0     1 3d2+    1 3d0     1 3d2+    1 3d0     1 3d2+    1 4f0  
                                   1 4f2+    1 4f0     1 4f2+    1 4f0     1 4f2+    1 4f0     1 4f2+    1 5g0     1 5g4+    1 5g2+ 
                                   1 5g0     1 5g4+    1 5g2+    1 5g0     1 5g4+    1 5g2+    2 1s      2 1s      2 1s      2 1s   
                                   2 1s      2 1s      2 2pz     2 2pz     2 2pz     2 3d0     2 3d2+    2 3d0     2 3d2+ 

   1.1   2  -665.1380-1483.0097  0.000042  0.000111  0.000306  0.000707  0.001535  0.003175  0.006516  0.013482  0.028412  0.060272
                                 0.123434  0.225418  0.318989  0.279036 -0.004784  0.105657  0.006282  0.002708 -0.003367  0.004423
                                -0.004724  0.003829 -0.005064  0.003857 -0.000323  0.000133 -0.000085  0.000048 -0.000023  0.000010
                                -0.000001  0.000000  0.000000  0.000000  0.000000  0.000000  0.000000 -0.000000 -0.000000  0.000000
                                 0.000000  0.000001 -0.000008  0.000013 -0.000022  0.000051 -0.000088  0.000091 -0.000073  0.000137
                                -0.000166  0.000085 -0.000027  0.000026 -0.000023  0.000004 -0.000000  0.000002  0.000000 -0.000000
                                -0.000000 -0.000000 -0.000000 -0.000000 -0.000000 -0.000000 -0.000000  0.000000  0.000000 -0.000001
                                -0.000000  0.000002  0.000000 -0.000001 -0.000000  0.000001  0.000000 -0.000004 -0.000000  0.000020
                                 0.000000 -0.000052 -0.000001  0.000136  0.000001 -0.000122 -0.000001  0.000022  0.000000 -0.000006
                                -0.000000  0.000004  0.000000 -0.000000 -0.000000  0.000001  0.000000  0.000000 -0.000000  0.000000
                                 0.000000 -0.000000  0.000000 -0.000000  0.000000  0.000000 -0.000000  0.000000  0.000000  0.000000
                                -0.000000  0.000000  0.000000  0.000000  0.000000  0.000000  0.000000 -0.000000  0.000000 -0.000000
                                -0.000001 -0.000004 -0.000000 -0.000001  0.000000 -0.000000  0.000000  0.000000 -0.000000

   2.1   2   -94.8615 -298.3776 -0.000014 -0.000036 -0.000101 -0.000234 -0.000508 -0.001055 -0.002177 -0.004544 -0.009722 -0.021200
                                -0.045701 -0.092288 -0.158110 -0.186363  0.004619 -0.034322  0.360997  0.542740  0.231078  0.018482
                                 0.011102  0.001336 -0.004587  0.004117 -0.000600  0.000217 -0.000163  0.000093 -0.000044  0.000020
                                -0.000002  0.000000  0.000000  0.000000  0.000000  0.000001  0.000003  0.000009  0.000024  0.000052
                                 0.000086  0.000111  0.000073  0.000007 -0.000018  0.000084 -0.000152  0.000162 -0.000131  0.000254
                                -0.000312  0.000164 -0.000054  0.000058 -0.000051  0.000008  0.000000  0.000004  0.000000 -0.000000
                                -0.000000 -0.000000 -0.000000 -0.000001 -0.000001 -0.000006 -0.000004 -0.000031 -0.000017 -0.000043
                                -0.000022  0.000021  0.000010 -0.000005 -0.000002  0.000000 -0.000001 -0.000011 -0.000002  0.000043
                                 0.000003 -0.000109 -0.000006  0.000282  0.000010 -0.000253 -0.000007  0.000047  0.000001 -0.000013
                                -0.000000  0.000009  0.000000  0.000000 -0.000000  0.000001  0.000000  0.000001 -0.000000  0.000003
                                -0.000000 -0.000001  0.000000  0.000000 -0.000000  0.000001 -0.000000  0.000001 -0.000000 -0.000002
                                -0.000001  0.000000  0.000000  0.000000 -0.000000 -0.000000  0.000000  0.000000 -0.000000  0.000000
                                -0.000003 -0.000007 -0.000000 -0.000002  0.000001  0.000000 -0.000000  0.000001  0.000000

   3.1   2   -84.3898 -284.1680  0.000000  0.000000  0.000000  0.000000  0.000000  0.000000  0.000001  0.000001  0.000003  0.000007
                                 0.000014  0.000029  0.000050  0.000060 -0.000002  0.000009 -0.000124 -0.000157 -0.000069 -0.000007
                                -0.000026  0.000026 -0.000065  0.000062 -0.000007  0.000010 -0.000014  0.000010  0.000009  0.000012
                                 0.000003  0.000014  0.000054  0.000210  0.000776  0.002803  0.009566  0.029703  0.080896  0.181366
                                 0.307746  0.343363  0.167458  0.035758 -0.004639  0.086433 -0.113002  0.094734 -0.052377  0.062142
                                -0.060666  0.022984 -0.004605  0.001890 -0.001312  0.000143 -0.000021  0.000016 -0.000001  0.000000
                                 0.000000  0.000000  0.000000  0.000002  0.000000  0.000007  0.000000  0.000024  0.000001  0.000023
                                 0.000001 -0.000006  0.000000 -0.000002  0.000001  0.000004 -0.000000 -0.000014 -0.000001  0.000098
                                -0.000000 -0.000247 -0.000000  0.000626  0.000000 -0.000543 -0.000001  0.000088  0.000000 -0.000014
                                 0.000000  0.000010  0.000000  0.000005  0.000000  0.000001  0.000000  0.000002 -0.000000 -0.000003
                                -0.000010  0.000001 -0.000001  0.000001 -0.000001  0.000002  0.000000  0.000000 -0.000000  0.000000
                                -0.000000  0.000000  0.000000  0.000001  0.000000 -0.000000 -0.000000  0.000000  0.000000 -0.000002
                                -0.000019 -0.000017  0.000000  0.000000  0.000008 -0.000001 -0.000000  0.000001  0.000000

   4.1   2   -16.7484  -99.9378  0.000006  0.000015  0.000042  0.000097  0.000212  0.000440  0.000908  0.001900  0.004070  0.008915
                                 0.019333  0.039667  0.069686  0.087579 -0.006120  0.020261 -0.235531 -0.479391 -0.253394  0.246093
                                 0.403515  0.491736  0.246890 -0.021655  0.014350 -0.002131  0.001711 -0.000961  0.000525 -0.000223
                                 0.000026 -0.000000 -0.000000 -0.000000 -0.000001 -0.000002 -0.000007 -0.000021 -0.000058 -0.000136
                                -0.000241 -0.000286 -0.000054  0.000017  0.000534 -0.000141  0.001073 -0.000362  0.000960 -0.000970
                                 0.001272 -0.000664  0.000159 -0.000081  0.000027 -0.000007  0.000039 -0.000044 -0.000004 -0.000000
                                -0.000000 -0.000001 -0.000000 -0.000004 -0.000002 -0.000014 -0.000007 -0.000029 -0.000014 -0.000025
                                -0.000016 -0.000089 -0.000045 -0.000183 -0.000102 -0.000435 -0.000226 -0.000553 -0.000321  0.000396
                                 0.000330 -0.000473 -0.000556  0.000285  0.000944 -0.000031 -0.000708 -0.000047  0.000091 -0.000005
                                -0.000007 -0.000005  0.000003  0.000024 -0.000001 -0.000011  0.000000 -0.000007 -0.000000  0.000036
                                 0.000000 -0.000059  0.000001  0.000021 -0.000000 -0.000000 -0.000000 -0.000002 -0.000000 -0.000001
                                -0.000005  0.000001  0.000026  0.000007 -0.000000 -0.000006 -0.000000  0.000002 -0.000008 -0.000002
                                -0.000036  0.000079  0.000005 -0.000005 -0.000003  0.000004 -0.000000  0.000007  0.000001

   5.1   2   -13.2235  -93.3975 -0.000000 -0.000000 -0.000000 -0.000000 -0.000000 -0.000001 -0.000001 -0.000003 -0.000007 -0.000015
                                -0.000032 -0.000065 -0.000114 -0.000148  0.000022 -0.000045  0.000410  0.000764  0.000462 -0.000508
                                -0.000486 -0.001290  0.001397 -0.001473  0.000185 -0.000481  0.000578 -0.000232 -0.000312  0.000014
                                -0.000016 -0.000006 -0.000023 -0.000090 -0.000333 -0.001207 -0.004153 -0.013044 -0.036496 -0.084912
                                -0.152515 -0.171741 -0.013909  0.012100  0.285294  0.032724  0.433973  0.027970  0.292687 -0.058484
                                 0.130320 -0.041641  0.012940 -0.006024  0.004860 -0.000757 -0.000182 -0.000015 -0.000003  0.000000
                                -0.000000  0.000000 -0.000000  0.000002 -0.000001  0.000007 -0.000003  0.000013 -0.000010  0.000021
                                -0.000021  0.000037  0.000000  0.000123 -0.000026  0.000283 -0.000020  0.000545  0.000000 -0.000916
                                -0.000005  0.001972  0.000036 -0.004945 -0.000090  0.004412  0.000087 -0.000890 -0.000016  0.000427
                                 0.000004 -0.000320 -0.000005 -0.000169 -0.000002  0.000008  0.000000 -0.000006 -0.000000 -0.000401
                                -0.000200  0.000255  0.000204 -0.000133 -0.000046 -0.000041  0.000017 -0.000000  0.000000 -0.000000
                                 0.000002 -0.000000 -0.000001 -0.000046 -0.000000 -0.000004  0.000001 -0.000004  0.000023  0.000063
                                 0.000421  0.000042 -0.000016  0.000027 -0.000086 -0.000007 -0.000001 -0.000067  0.000009

   6.1   2    -7.4584  -83.0160  0.000000  0.000000  0.000000  0.000000  0.000000  0.000001  0.000001  0.000003  0.000006  0.000013
                                 0.000028  0.000058  0.000103  0.000130 -0.000007  0.000028 -0.000374 -0.000803 -0.000382  0.000376
                                 0.001441  0.000957  0.001525 -0.002575 -0.000486  0.000227 -0.000177  0.000157  0.000132 -0.000026
                                 0.000003  0.000000  0.000000  0.000000  0.000000  0.000000  0.000002  0.000005  0.000015  0.000035
                                 0.000063  0.000071 -0.000058  0.000062 -0.000298  0.000296 -0.000859  0.000695 -0.000581  0.001628
                                -0.001823  0.001040 -0.000424  0.000438 -0.000479  0.000185  0.000114 -0.000022  0.000004  0.000065
                                 0.000152  0.000583  0.001357  0.003430  0.007980  0.013536  0.031490  0.039626  0.092182  0.087224
                                 0.202882 -0.001410 -0.003238  0.129256  0.300752  0.131024  0.305222  0.080105  0.187484 -0.014232
                                -0.033676  0.043377  0.102894 -0.041550 -0.100096  0.029856  0.072339 -0.001768 -0.004520  0.000119
                                 0.000512  0.000018 -0.000230  0.000088  0.000033 -0.000015 -0.000010  0.000002  0.000002  0.000073
                                 0.000066 -0.000110 -0.000044  0.000072  0.000006  0.000008 -0.000005 -0.000142 -0.000136 -0.000231
                                 0.000013  0.000043  0.000101  0.000010 -0.000016 -0.000033  0.000000 -0.000001  0.000004 -0.000055
                                -0.000218  0.000004 -0.000001  0.000030  0.000069 -0.000001 -0.000002  0.000008  0.000002

   7.1   2    -7.4443  -83.0234  0.000000  0.000000  0.000000  0.000000  0.000000  0.000001  0.000001  0.000002  0.000005  0.000011
                                 0.000023  0.000047  0.000083  0.000104 -0.000004  0.000020 -0.000300 -0.000652 -0.000298  0.000281
                                 0.001231  0.000650  0.001400 -0.002165 -0.000348  0.000089 -0.000326  0.000453  0.000377 -0.000089
                                 0.000010  0.000000  0.000000  0.000000  0.000000  0.000001  0.000004  0.000012  0.000034  0.000081
                                 0.000146  0.000167 -0.000133  0.000164 -0.000689  0.000773 -0.002114  0.001753 -0.001519  0.003837
                                -0.004352  0.002279 -0.000924  0.000686 -0.000849  0.000538  0.000312 -0.000072  0.000012  0.000152
                                -0.000065  0.001359 -0.000582  0.007989 -0.003424  0.031527 -0.013510  0.092291 -0.039548  0.203152
                                -0.087042 -0.003303  0.001397  0.301073 -0.129042  0.305319 -0.131015  0.186791 -0.080528 -0.033248
                                 0.014461  0.101582 -0.044275 -0.098348  0.043182  0.071148 -0.031263 -0.004583  0.002009  0.000348
                                -0.000206  0.000051  0.000100  0.000234 -0.000013 -0.000050  0.000004  0.000004 -0.000001  0.000180
                                -0.000036 -0.000240  0.000005  0.000225 -0.000008  0.000007  0.000001 -0.000308  0.000060 -0.000017
                                 0.000160 -0.000022  0.000026  0.000014  0.000008 -0.000006  0.000000 -0.000003  0.000028 -0.000197
                                -0.000641  0.000018 -0.000008  0.000143  0.000240 -0.000012 -0.000000 -0.000005  0.000003

   8.1   2    -2.5601  -38.2589 -0.000002 -0.000006 -0.000016 -0.000037 -0.000080 -0.000167 -0.000344 -0.000721 -0.001544 -0.003390
                                -0.007342 -0.015158 -0.026584 -0.034617  0.004936 -0.010756  0.098985  0.204628  0.128816 -0.162009
                                -0.178208 -0.564301 -0.110359 -0.040584  0.787497  0.545183 -0.012643  0.035896 -0.017251  0.007668
                                -0.000954 -0.000000 -0.000000 -0.000000 -0.000001 -0.000002 -0.000007 -0.000023 -0.000066 -0.000149
                                -0.000289 -0.000243 -0.001272  0.002170 -0.003521  0.010977 -0.019964  0.024250 -0.022217  0.052958
                                -0.072077  0.043951 -0.020093  0.011785 -0.014467  0.001081 -0.000157  0.001311  0.000162  0.000000
                                 0.000000  0.000003  0.000001  0.000018  0.000007  0.000069  0.000025  0.000209  0.000074  0.000286
                                 0.000133  0.000217  0.000047  0.000585  0.000244  0.000907  0.000314 -0.000212  0.000353  0.005404
                                -0.000324 -0.019220 -0.000922  0.057311  0.002243 -0.055627 -0.003113  0.010398  0.001251 -0.003833
                                 0.000321  0.001600 -0.000222 -0.000182 -0.000031  0.000340 -0.000005  0.000254  0.000001 -0.000578
                                 0.000028 -0.001501 -0.000019  0.000034 -0.000026  0.000280  0.000012 -0.000121  0.000009  0.000275
                                -0.000221  0.000062  0.001105  0.000060  0.000010  0.000137  0.000031  0.000210  0.000701  0.002216
                                 0.000378 -0.002525 -0.000208 -0.001467 -0.000260  0.000208  0.000004  0.000637 -0.000003

   9.1   2    -1.5420  -33.6317 -0.000000 -0.000000 -0.000000 -0.000000 -0.000001 -0.000002 -0.000003 -0.000007 -0.000014 -0.000031
                                -0.000067 -0.000137 -0.000244 -0.000301 -0.000004 -0.000044  0.000859  0.001985  0.000900 -0.000816
                                -0.003243 -0.003308 -0.007024  0.004155  0.013669  0.000591 -0.006426 -0.000683 -0.000096  0.000904
                                 0.000221  0.000002  0.000008  0.000031  0.000117  0.000422  0.001456  0.004577  0.012878  0.030088
                                 0.054757  0.061109  0.008656 -0.024015 -0.096482 -0.109458 -0.033962 -0.238571  0.055955 -0.342497
                                 0.649587 -0.162866  0.583870  0.310601  0.020664  0.037968 -0.003277  0.001766 -0.000241  0.000001
                                 0.000000  0.000007  0.000001  0.000043  0.000003  0.000169  0.000013  0.000504  0.000039  0.001093
                                 0.000096 -0.000007 -0.000014  0.001560  0.000126  0.001479  0.000082 -0.000757  0.000039  0.002367
                                -0.000653 -0.011148  0.001489  0.024626 -0.005580 -0.021919  0.005358 -0.006917 -0.001734 -0.007783
                                -0.000428  0.002911 -0.000309  0.000197 -0.000147  0.000178  0.000011  0.000141 -0.000004 -0.003117
                                 0.001007 -0.003348  0.004313 -0.000766  0.003082  0.000268 -0.000140 -0.000037  0.000004  0.000016
                                -0.000478  0.000002 -0.000086  0.000228 -0.000002 -0.000041  0.000211  0.001485  0.005637  0.013515
                                 0.005485 -0.001111 -0.000885 -0.004321 -0.001401  0.000587  0.000008  0.000947 -0.000003

  10.1   2    -0.3703  -12.9024  0.000000  0.000001  0.000002  0.000005  0.000010  0.000022  0.000045  0.000093  0.000200  0.000439
                                 0.000949  0.001963  0.003435  0.004529 -0.000781  0.001553 -0.013064 -0.026703 -0.017932  0.023848
                                 0.020674  0.088896  0.001906  0.017366 -0.148189 -0.178110  0.024136  0.134769  0.124191  0.014002
                                -0.009563 -0.000000 -0.000001 -0.000004 -0.000016 -0.000059 -0.000203 -0.000637 -0.001794 -0.004191
                                -0.007646 -0.008482 -0.002059  0.004985  0.010488  0.025107 -0.015147  0.060601 -0.038380  0.140607
                                -0.240529  0.120952 -0.146783 -0.016293 -0.034485  0.082282  0.059165  0.003961 -0.005067 -0.000011
                                -0.000001 -0.000103 -0.000008 -0.000598 -0.000050 -0.002402 -0.000199 -0.006965 -0.000578 -0.017137
                                -0.001396  0.002242  0.000155 -0.023532 -0.001933 -0.018643 -0.001570 -0.015020 -0.001030  0.116131
                                 0.007874 -0.293769 -0.017760  1.088896  0.067593 -1.052414 -0.064222  0.332824  0.022416  0.048443
                                 0.004562  0.090610  0.004564  0.043293  0.003294  0.006645 -0.000023 -0.001650  0.000073  0.003750
                                 0.000315  0.011184  0.000393  0.023562  0.001060  0.006174  0.000893 -0.000148 -0.000019  0.000059
                                 0.003011 -0.000022  0.000031  0.003750  0.000004  0.000719  0.004558  0.033495  0.134327  0.309694
                                 0.314678  0.042656 -0.003478 -0.019942 -0.022785  0.001948 -0.000067  0.002754 -0.000520

  11.1   2    -0.2354  -14.4766  0.000001  0.000001  0.000004  0.000009  0.000019  0.000040  0.000082  0.000172  0.000368  0.000808
                                 0.001750  0.003615  0.006343  0.008281 -0.001210  0.002608 -0.023893 -0.049744 -0.031642  0.040345
                                 0.046108  0.155547  0.031627  0.006418 -0.284600 -0.343304  0.026576  0.272636  0.536028  0.217500
                                -0.000377  0.000000  0.000001  0.000002  0.000008  0.000029  0.000100  0.000313  0.000881  0.002058
                                 0.003753  0.004175  0.000759 -0.002051 -0.005980 -0.010098  0.002666 -0.023902  0.012260 -0.048350
                                 0.087026 -0.038121  0.063320  0.029739  0.014944 -0.071500 -0.155764 -0.042079  0.003286  0.000016
                                 0.000006  0.000147  0.000054  0.000856  0.000317  0.003434  0.001270  0.009980  0.003688  0.024335
                                 0.009029 -0.002969 -0.001137  0.033508  0.012409  0.026854  0.009885  0.017724  0.006810 -0.142432
                                -0.053803  0.337862  0.127960 -1.271976 -0.478988  1.222818  0.460789 -0.418190 -0.158212 -0.096341
                                -0.037081 -0.111182 -0.036064 -0.099938 -0.030480 -0.018737 -0.004406 -0.001320 -0.000900 -0.000064
                                -0.000226  0.003431  0.000103  0.002938  0.001235  0.000465  0.000658  0.000985  0.000214  0.000896
                                 0.001152  0.000193  0.000996  0.000481 -0.000099 -0.000213 -0.000682 -0.004893 -0.020898 -0.043446
                                -0.035431 -0.014940  0.001091  0.000016  0.000372 -0.000537 -0.000059  0.000557  0.000612

  12.1   0     0.0073   -8.6072 -0.000000 -0.000000 -0.000000 -0.000000 -0.000000 -0.000001 -0.000002 -0.000005 -0.000008 -0.000022
                                -0.000036 -0.000111 -0.000080 -0.000680  0.001606 -0.001815  0.002064 -0.001664  0.010993 -0.027100
                                 0.054002 -0.088254  0.267004 -0.257956  0.080009 -0.083908  0.162422 -0.343103  0.349296 -0.518492
                                 0.795957  0.000000  0.000001  0.000003  0.000011  0.000040  0.000134  0.000433  0.001182  0.002873
                                 0.004888  0.006867 -0.023343  0.037737 -0.085684  0.190608 -0.388914  0.418337 -0.406442  0.910443
                                -1.191116  0.712350 -0.212501  0.421447 -0.361413  0.073320 -0.319149  0.120875 -0.629451 -0.000013
                                -0.000009 -0.000116 -0.000083 -0.000678 -0.000482 -0.002716 -0.001931 -0.007905 -0.005625 -0.019099
                                -0.013549  0.002143  0.001475 -0.026420 -0.018772 -0.021472 -0.015349 -0.013042 -0.009098  0.104838
                                 0.071694 -0.243522 -0.164844  0.935631  0.637403 -0.900403 -0.613692  0.316619  0.220160  0.074501
                                 0.058630  0.080911  0.055718  0.088014  0.071192  0.065407  0.030629  0.156945  0.052197 -0.000280
                                -0.000190 -0.000321 -0.001939 -0.003548 -0.006793 -0.008395 -0.010287 -0.001264 -0.000207  0.000050
                                -0.003952 -0.000101  0.000794 -0.001981  0.000480  0.000946 -0.000309 -0.002497 -0.008761 -0.030659
                                 0.025059 -0.170242 -0.001219 -0.004079 -0.031739  0.000470  0.000121  0.003137 -0.000363

  13.1   0     0.0233   -4.1344  0.000000  0.000000  0.000001  0.000002  0.000004  0.000009  0.000017  0.000037  0.000075  0.000180
                                 0.000345  0.000841  0.001072  0.003437 -0.005839  0.006751 -0.010257 -0.000211 -0.042843  0.100977
                                -0.186024  0.330886 -0.943484  0.916097 -0.307031  0.271703 -0.572609  1.140318 -1.961364  1.749586
                                -2.756296  0.000000  0.000000  0.000001  0.000005  0.000016  0.000057  0.000172  0.000512  0.001109
                                 0.002296  0.001435  0.019572 -0.032928  0.057359 -0.165317  0.307609 -0.363784  0.333778 -0.774997
                                 1.044807 -0.598139  0.258219 -0.300392  0.338948 -0.211420 -0.409253 -0.610643 -0.459750 -0.000003
                                -0.000001 -0.000025 -0.000006 -0.000160 -0.000034 -0.000591 -0.000139 -0.001940 -0.000395 -0.001883
                                -0.001092 -0.002661  0.000264 -0.004343 -0.001427 -0.008111 -0.000938  0.018057 -0.001773 -0.114547
                                 0.012394  0.343140 -0.032814 -0.977036  0.109022  0.911652 -0.103705 -0.159006  0.028206  0.124195
                                -0.001913 -0.123305  0.010944 -0.080605  0.001206 -0.141814  0.008305 -0.055936 -0.017207 -0.000187
                                -0.000137  0.003271 -0.000658 -0.022427 -0.002113 -0.074166 -0.002424 -0.000135 -0.000010  0.000134
                                -0.002010 -0.000005  0.000624 -0.012368  0.000037  0.000974  0.000083  0.000267  0.003593 -0.015437
                                 0.572639  1.595801  0.000901 -0.015307 -0.241431 -0.000097 -0.000002  0.018253 -0.000014

                                   1 2px     1 2px     1 2px     1 2px     1 2px     1 2px     1 2px     1 2px     1 2px     1 2px  
                                   1 2px     1 2px     1 2px     1 2px     1 2px     1 2px     1 2px     1 2px     1 2px     1 2px  
                                   1 2px     1 2px     1 2px     1 2px     1 2px     1 2px     1 2px     1 2px     1 3d1+    1 3d1+ 
                                   1 3d1+    1 3d1+    1 3d1+    1 3d1+    1 3d1+    1 3d1+    1 3d1+    1 3d1+    1 3d1+    1 3d1+ 
                                   1 3d1+    1 3d1+    1 3d1+    1 3d1+    1 3d1+    1 3d1+    1 3d1+    1 3d1+    1 4f1+    1 4f3+ 
                                   1 4f1+    1 4f3+    1 4f1+    1 4f3+    1 4f1+    1 4f3+    1 5g1+    1 5g3+    1 5g1+    1 5g3+ 
                                   1 5g1+    1 5g3+    2 2px     2 2px     2 2px     2 3d1+    2 3d1+ 

   1.2   2   -84.3927 -284.1702  0.000014  0.000054  0.000210  0.000776  0.002803  0.009566  0.029702  0.080894  0.181361  0.307738
                                 0.343370  0.167540  0.035659 -0.004520  0.086133 -0.112492  0.094197 -0.051933  0.061310 -0.059650
                                 0.022477 -0.004450  0.001774 -0.001215  0.000123 -0.000029  0.000009 -0.000003  0.000000  0.000000
                                 0.000000  0.000002  0.000009  0.000015 -0.000002  0.000006 -0.000000 -0.000001  0.000000 -0.000003
                                 0.000010 -0.000009  0.000002  0.000001 -0.000001 -0.000000 -0.000000  0.000000 -0.000010 -0.000001
                                -0.000000  0.000001 -0.000002 -0.000000 -0.000000  0.000000  0.000001 -0.000000 -0.000000  0.000000
                                -0.000000  0.000000  0.000000  0.000000  0.000001  0.000000 -0.000001

   2.2   2   -13.2328  -93.3933 -0.000006 -0.000023 -0.000090 -0.000333 -0.001207 -0.004151 -0.013039 -0.036482 -0.084878 -0.152454
                                -0.171673 -0.014168  0.012439  0.284549  0.034093  0.431011  0.031036  0.290344 -0.052597  0.123055
                                -0.037648  0.011411 -0.004090  0.002975 -0.000374  0.000048 -0.000028  0.000008  0.000000  0.000001
                                 0.000006  0.000022  0.000062  0.000151  0.000004  0.000262  0.000245  0.000099  0.000016 -0.000034
                                 0.000065 -0.000032 -0.000010  0.000041 -0.000060 -0.000016 -0.000007  0.000001 -0.000311 -0.000178
                                 0.000260  0.000105 -0.000098 -0.000038  0.000010  0.000013  0.000001  0.000001 -0.000018 -0.000000
                                -0.000019  0.000000 -0.000005  0.000025  0.000053  0.000003 -0.000031

   3.2   2    -7.4516  -83.0580  0.000000  0.000000  0.000000  0.000000  0.000001  0.000002  0.000007  0.000020  0.000047  0.000084
                                 0.000092  0.000019 -0.000016 -0.000105 -0.000091 -0.000097 -0.000224 -0.000094 -0.000318  0.000314
                                -0.000217  0.000039  0.000012 -0.000043  0.000054 -0.000015  0.000003 -0.000001  0.000165  0.001480
                                 0.008701  0.034337  0.100519  0.221276 -0.003611  0.327858  0.332229  0.202739 -0.035919  0.109489
                                -0.104423  0.074985 -0.004264  0.000500 -0.000040  0.000067  0.000000  0.000002  0.000167 -0.000003
                                -0.000199 -0.000007  0.000096 -0.000003 -0.000021  0.000000 -0.000268 -0.000121  0.000127  0.000090
                                -0.000015 -0.000021  0.000011 -0.000045 -0.000034  0.000004  0.000057

   4.2   2    -1.5455  -33.6145  0.000002  0.000008  0.000031  0.000117  0.000422  0.001455  0.004572  0.012866  0.030055  0.054709
                                 0.061000  0.009696 -0.025697 -0.093102 -0.118008 -0.016803 -0.258060  0.074983 -0.390845  0.715465
                                -0.204060  0.599641  0.296513  0.033656  0.041678 -0.000927  0.001137 -0.000301 -0.000000 -0.000000
                                -0.000002 -0.000006 -0.000020 -0.000017 -0.000041 -0.000064 -0.000124  0.000435 -0.001660  0.006974
                                -0.021693  0.022880 -0.007027 -0.001899 -0.001493 -0.000578  0.000020 -0.000018 -0.000026 -0.001496
                                 0.001602 -0.001073  0.001702 -0.000331  0.000007 -0.000067 -0.000182  0.000017 -0.000906  0.000017
                                 0.000213  0.000004  0.000160  0.000386 -0.000191 -0.000180 -0.000057

   5.2   +    -0.3352  -22.4751  0.000000  0.000000  0.000001  0.000004  0.000015  0.000052  0.000162  0.000458  0.001066  0.001960
                                 0.002118  0.001498 -0.002897  0.000331 -0.014262  0.018471 -0.031706  0.023823 -0.063446  0.094884
                                -0.046780  0.046045 -0.000204  0.008016 -0.047742 -0.040916 -0.003881  0.000012 -0.000040 -0.000364
                                -0.002122 -0.008507 -0.024739 -0.060160  0.007144 -0.082901 -0.066493 -0.041590  0.340819 -0.787842
                                 2.988424 -2.862568  1.002199  0.241139  0.191997  0.143052  0.002807  0.003251 -0.000536  0.000108
                                -0.007175  0.000242 -0.015124 -0.000318 -0.002763 -0.000125 -0.001295  0.000698 -0.002674  0.003401
                                 0.000301  0.002498  0.002094  0.005861  0.000312 -0.000917  0.000463

   6.2   0     0.0099   -5.8124 -0.000000 -0.000001 -0.000004 -0.000013 -0.000048 -0.000162 -0.000525 -0.001426 -0.003487 -0.005868
                                -0.008530  0.032903 -0.053375  0.118399 -0.269121  0.544098 -0.589760  0.568976 -1.274722  1.668362
                                -0.991303  0.304083 -0.574395  0.499539 -0.108184  0.382262 -0.083535  0.872540 -0.000003 -0.000024
                                -0.000140 -0.000572 -0.001614 -0.004559  0.001187 -0.005889 -0.003686 -0.007515  0.054227 -0.143683
                                 0.474098 -0.450282  0.122403 -0.004297  0.032560 -0.022090  0.003548 -0.107497  0.000179 -0.000027
                                 0.000424 -0.000729  0.000873 -0.001434 -0.005106  0.002800 -0.000033  0.000029  0.000332  0.000179
                                -0.001204 -0.000130  0.000982  0.005025  0.000244 -0.000232  0.000198

   7.2   0     0.0428   -5.7878 -0.000000 -0.000001 -0.000004 -0.000017 -0.000057 -0.000213 -0.000609 -0.001918 -0.003865 -0.008991
                                -0.002063 -0.137288  0.229511 -0.418163  1.152287 -2.174794  2.531767 -2.341034  5.394166 -7.230284
                                 4.158833 -1.704873  2.057072 -2.081340  0.796336 -0.497687  1.842423 -1.540607 -0.000003 -0.000021
                                -0.000135 -0.000499 -0.001634 -0.001649 -0.002167 -0.003692 -0.006725  0.015069 -0.094647  0.285602
                                -0.819833  0.769088 -0.135162  0.105038 -0.085423  0.068273 -0.140954  0.145364  0.000281  0.000009
                                 0.000687 -0.000925  0.002650 -0.001171 -0.005852  0.002572 -0.000047  0.000024  0.000618  0.000145
                                -0.001078 -0.000159  0.001225  0.005335 -0.000051 -0.000550  0.002415

                                   1 2py     1 2py     1 2py     1 2py     1 2py     1 2py     1 2py     1 2py     1 2py     1 2py  
                                   1 2py     1 2py     1 2py     1 2py     1 2py     1 2py     1 2py     1 2py     1 2py     1 2py  
                                   1 2py     1 2py     1 2py     1 2py     1 2py     1 2py     1 2py     1 2py     1 3d1-    1 3d1- 
                                   1 3d1-    1 3d1-    1 3d1-    1 3d1-    1 3d1-    1 3d1-    1 3d1-    1 3d1-    1 3d1-    1 3d1- 
                                   1 3d1-    1 3d1-    1 3d1-    1 3d1-    1 3d1-    1 3d1-    1 3d1-    1 3d1-    1 4f1-    1 4f3- 
                                   1 4f1-    1 4f3-    1 4f1-    1 4f3-    1 4f1-    1 4f3-    1 5g1-    1 5g3-    1 5g1-    1 5g3- 
                                   1 5g1-    1 5g3-    2 2py     2 2py     2 2py     2 3d1-    2 3d1- 

   1.3   2   -84.3956 -284.1730  0.000014  0.000054  0.000210  0.000776  0.002803  0.009566  0.029701  0.080892  0.181357  0.307733
                                 0.343380  0.167569  0.035633 -0.004524  0.086119 -0.112483  0.094188 -0.051923  0.061304 -0.059638
                                 0.022475 -0.004446  0.001775 -0.001216  0.000123 -0.000029  0.000009 -0.000003  0.000000  0.000000
                                 0.000000  0.000002  0.000011  0.000017 -0.000002  0.000007 -0.000000 -0.000001  0.000000 -0.000004
                                 0.000011 -0.000011  0.000002  0.000000 -0.000000 -0.000000 -0.000000  0.000000  0.000001 -0.000000
                                 0.000002  0.000001 -0.000000 -0.000000 -0.000000  0.000000  0.000000 -0.000000 -0.000000  0.000000
                                -0.000000 -0.000000  0.000000  0.000000  0.000001 -0.000000 -0.000001

   2.3   2   -13.2418  -93.3946 -0.000006 -0.000023 -0.000090 -0.000333 -0.001207 -0.004150 -0.013036 -0.036472 -0.084854 -0.152408
                                -0.171631 -0.014235  0.012485  0.284405  0.034096  0.430690  0.031194  0.290517 -0.052170  0.122772
                                -0.037571  0.011292 -0.004109  0.002968 -0.000368  0.000053 -0.000027  0.000008  0.000000  0.000001
                                 0.000005  0.000018  0.000049  0.000123  0.000005  0.000227  0.000225  0.000108 -0.000005  0.000015
                                -0.000036  0.000053 -0.000025  0.000036 -0.000062 -0.000017 -0.000007  0.000001 -0.000330 -0.000172
                                 0.000157  0.000093 -0.000100 -0.000037  0.000007  0.000012  0.000002  0.000000 -0.000017 -0.000000
                                -0.000018 -0.000000 -0.000005  0.000023  0.000049  0.000002 -0.000029

   3.3   2    -7.4485  -83.0040  0.000000  0.000000  0.000000  0.000000  0.000001  0.000002  0.000007  0.000020  0.000047  0.000084
                                 0.000092  0.000013 -0.000017 -0.000123 -0.000093 -0.000114 -0.000210 -0.000059 -0.000252  0.000300
                                -0.000180  0.000041  0.000018 -0.000050  0.000073 -0.000002  0.000005 -0.000001  0.000165  0.001477
                                 0.008685  0.034272  0.100323  0.220813 -0.003551  0.327325  0.332182  0.203909 -0.036532  0.111782
                                -0.108737  0.078627 -0.004991  0.000434 -0.000126  0.000015 -0.000002  0.000001  0.000156 -0.000003
                                -0.000207 -0.000007  0.000099 -0.000003 -0.000022  0.000000 -0.000337 -0.000119  0.000115  0.000085
                                -0.000019 -0.000021  0.000010 -0.000048 -0.000033  0.000005  0.000058

   4.3   2    -1.5450  -33.5996  0.000002  0.000008  0.000031  0.000117  0.000422  0.001454  0.004570  0.012859  0.030039  0.054677
                                 0.060977  0.009552 -0.025439 -0.093576 -0.116612 -0.019231 -0.254980  0.072141 -0.385500  0.707523
                                -0.198843  0.598210  0.295622  0.032763  0.043647 -0.000066  0.001134 -0.000284  0.000000  0.000000
                                 0.000001  0.000006  0.000014  0.000071 -0.000057  0.000050 -0.000056  0.000448 -0.002281  0.008383
                                -0.026857  0.027641 -0.008461 -0.001429 -0.002496 -0.001100 -0.000097 -0.000005 -0.003777 -0.001715
                                -0.005781 -0.001620 -0.003436 -0.000734 -0.000217 -0.000067 -0.000136  0.000015 -0.000767  0.000020
                                -0.000040  0.000010  0.000072  0.000552  0.000502 -0.000116 -0.000388

   5.3   0     0.0088   -6.3478  0.000000  0.000001  0.000004  0.000014  0.000053  0.000179  0.000575  0.001575  0.003816  0.006528
                                 0.009016 -0.028518  0.045973 -0.105901  0.232043 -0.475803  0.508264 -0.494780  1.102008 -1.435156
                                 0.858772 -0.244665  0.513594 -0.436541  0.077270 -0.378895  0.029003 -0.793295 -0.000005 -0.000041
                                -0.000245 -0.000968 -0.002864 -0.006320  0.000093 -0.009121 -0.008419 -0.000234  0.007236  0.000368
                                 0.069279 -0.071522  0.059553  0.046498  0.014106  0.072576  0.022653  0.133289  0.000214  0.000091
                                 0.001698  0.000997  0.004817  0.001739  0.004514 -0.002589 -0.000368  0.000108 -0.001318  0.000462
                                 0.000944  0.000855 -0.000270 -0.003025  0.000681  0.000020  0.000261

   6.3   0     0.0378   -7.2384  0.000000  0.000001  0.000003  0.000010  0.000035  0.000133  0.000374  0.001200  0.002356  0.005704
                                 0.000593  0.099308 -0.165852  0.304278 -0.832744  1.575258 -1.829375  1.693730 -3.898567  5.221010
                                -3.005750  1.222257 -1.492514  1.499084 -0.569936  0.375712 -1.257803  1.243643 -0.000014 -0.000120
                                -0.000717 -0.002803 -0.008455 -0.016634 -0.002020 -0.025368 -0.026863  0.014862 -0.080600  0.295120
                                -0.681642  0.623742  0.001084  0.221900 -0.056768  0.243259 -0.066778  0.490749  0.000131  0.000070
                                -0.000433  0.000769 -0.000923  0.000668 -0.016659 -0.000832 -0.000934  0.000279 -0.002534  0.001246
                                -0.001832  0.001947  0.001141  0.002963  0.008455  0.000093 -0.002592

                                   1 3d2-    1 3d2-    1 3d2-    1 3d2-    1 3d2-    1 3d2-    1 3d2-    1 3d2-    1 3d2-    1 3d2- 
                                   1 3d2-    1 3d2-    1 3d2-    1 3d2-    1 3d2-    1 3d2-    1 3d2-    1 3d2-    1 3d2-    1 3d2- 
                                   1 4f2-    1 4f2-    1 4f2-    1 4f2-    1 5g2-    1 5g4-    1 5g2-    1 5g4-    1 5g2-    1 5g4- 
                                   2 3d2-    2 3d2- 

   1.4   2    -7.4558  -83.0023  0.000165  0.001476  0.008683  0.034263  0.100299  0.220745 -0.003525  0.327243  0.332150  0.204094
                                -0.036668  0.112100 -0.109154  0.078923 -0.004966  0.000552 -0.000252  0.000036 -0.000011  0.000002
                                 0.000075 -0.000043  0.000009 -0.000005 -0.000207 -0.000149  0.000085  0.000048 -0.000028 -0.000018
                                -0.000001  0.000001

   2.4   0     0.0342  -10.9406 -0.000022 -0.000190 -0.001137 -0.004443 -0.013400 -0.026402 -0.003155 -0.040232 -0.042521  0.023113
                                -0.125110  0.459254 -1.050689  0.958468  0.010974  0.353330 -0.092570  0.368315 -0.145055  0.730446
                                -0.000062 -0.002665 -0.008079 -0.024145 -0.000082 -0.000460  0.000025 -0.000349 -0.001732  0.001651
                                 0.000407 -0.001006

   3.4   0     0.0536  -10.0516  0.000021  0.000202  0.001111  0.004728  0.012577  0.045475 -0.020546  0.053596  0.019021  0.136626
                                -0.926432  2.578558 -8.091048  7.656720 -1.822569  0.434993 -0.749575  0.289760 -0.810914  1.108523
                                 0.000181  0.001887  0.010248  0.010589  0.000063  0.000484  0.000082  0.000169  0.001119 -0.001115
                                -0.000202  0.000431

 HOMO     11.1    -0.235390 =      -6.4053eV
 LUMO     12.1     0.007304 =       0.1987eV
 LUMO-HOMO         0.242693 =       6.6040eV


 **********************************************************************************************************************************
 DATASETS  * FILE   NREC   LENGTH (MB)   RECORD NAMES
              1      22       21.76       500      610      700      900      950      970     1000      129      960     1700   
                                          VAR    BASINP    GEOM    SYMINP    ZMAT    AOBASIS   BASIS     P2S    ABASIS    OPER   
                                         1101     1401     1411     1412     1650     1100     1400     1410     1200     1210   
                                          SR      EKINR    POTR     PVPR    MOLCAS      S      EKIN      POT      H0       H01  
                                         1080     1600   
                                         AOSYM     SMH  

              2       4        3.56       700     1000      520     2100   
                                         GEOM     BASIS   MCVARS     RHF  

 PROGRAMS   *        TOTAL       RHF       INT
 CPU TIMES  *        63.57      3.32     59.88
 REAL TIME  *        67.10 SEC
 DISK USED  *         2.96 GB      
 SF USED    *         0.11 MB      
 GA USED    *         0.00 MB       (max)       0.00 MB       (current)
 **********************************************************************************************************************************
 SETTING SCF            =     -3596.76717770  AU                              
 SETTING _CC_NORM_MAX   =         2.00000000                                  


 PROGRAM * CCSD (Restricted open-shell coupled cluster)     Authors: C. Hampel, H.-J. Werner, 1991, M. Deegan, P.J. Knowles, 1992


 Convergence thresholds:  THRVAR = 1.00D-08  THRDEN = 1.00D-06

 CCSD(T)     terms to be evaluated (factor= 1.000)


 Number of core orbitals:          14 (   7   3   3   1 )
 Number of closed-shell orbitals:   6 (   4   1   1   0 )
 Number of active  orbitals:        1 (   0   1   0   0 )
 Number of external orbitals:     274 ( 118  62  63  31 )

 Memory could be reduced to 77.51 Mwords without degradation in triples

 Number of N-1 electron functions:              13
 Number of N-2 electron functions:              78
 Number of singly external CSFs:              1259
 Number of doubly external CSFs:           1212062
 Total number of CSFs:                     1213321

 Molecular orbitals read from record     2100.2  Type=RHF/CANONICAL (state 1.2)

 Integral transformation finished. Total CPU:   2.09 sec, npass=  1  Memory used:   8.58 MW

 Starting RMP2 calculation

 Wavefunction is spin-projected

 ITER.      SQ.NORM     CORR.ENERGY   TOTAL ENERGY   ENERGY CHANGE        DEN1      VAR(S)    VAR(P)  DIIS     TIME
   1      1.12432712    -0.37208682 -3597.13926452    -0.37208682    -0.00191553  0.14D-04  0.15D-02  1  1     2.33
   2      1.12853575    -0.37419679 -3597.14137449    -0.00210997    -0.00002778  0.28D-06  0.34D-04  2  2     2.42
   3      1.12919285    -0.37438851 -3597.14156621    -0.00019173    -0.00000018  0.21D-08  0.21D-06  3  3     2.62
   4      1.12922066    -0.37439268 -3597.14157038    -0.00000417    -0.00000000  0.12D-09  0.16D-08  4  4     2.76
   5      1.12922103    -0.37439269 -3597.14157039    -0.00000001    -0.00000000  0.92D-11  0.14D-10  5  5     3.30

 Norm of t1 vector:      0.02819634      S-energy:    -0.00197528      T1 diagnostic:  0.00010796
 Norm of t2 vector:      0.35836573      P-energy:    -0.37241740
                                         Alpha-Beta:  -0.28022395
                                         Alpha-Alpha: -0.05346247
                                         Beta-Beta:   -0.03873098

 Spin contamination <S**2-Sz**2-Sz>     0.00000000
  Reference energy                  -3596.767177700288
  RHF-RMP2 correlation energy          -0.374392687983
 !RHF-RMP2 energy                   -3597.141570388271
 (NB above energy spin projected)

 Starting RCCSD calculation

 ITER.      SQ.NORM     CORR.ENERGY   TOTAL ENERGY   ENERGY CHANGE        DEN1      VAR(S)    VAR(P)  DIIS     TIME
   1      1.13513546    -0.37972779 -3597.14690549    -0.37972779    -0.01039879  0.30D-02  0.43D-02  1  1     4.95
   2      1.15931474    -0.39046934 -3597.15764704    -0.01074155    -0.00157374  0.49D-03  0.11D-02  2  2     6.03
   3      1.17748249    -0.39388750 -3597.16106520    -0.00341816    -0.00044553  0.32D-03  0.26D-03  3  3     7.01
   4      1.19395151    -0.39598883 -3597.16316653    -0.00210133    -0.00011929  0.83D-04  0.70D-04  4  4     8.44
   5      1.20482124    -0.39677541 -3597.16395312    -0.00078659    -0.00003448  0.30D-04  0.18D-04  5  5     9.45
   6      1.20984999    -0.39698837 -3597.16416607    -0.00021295    -0.00001158  0.12D-04  0.51D-05  6  6    10.48
   7      1.21250071    -0.39706121 -3597.16423891    -0.00007284    -0.00000405  0.50D-05  0.13D-05  7  7    12.00
   8      1.21379931    -0.39707891 -3597.16425661    -0.00001769    -0.00000159  0.21D-05  0.49D-06  8  8    13.58
   9      1.21458930    -0.39708687 -3597.16426458    -0.00000797    -0.00000065  0.79D-06  0.23D-06  9  9    15.08
  10      1.21501892    -0.39708887 -3597.16426657    -0.00000200    -0.00000029  0.34D-06  0.12D-06 10 10    16.61
  11      1.21525908    -0.39708944 -3597.16426714    -0.00000057    -0.00000014  0.17D-06  0.51D-07 11 11    18.33
  12      1.21534198    -0.39708864 -3597.16426634     0.00000080    -0.00000010  0.13D-06  0.29D-07 12 12    19.83
  13      1.21538028    -0.39708761 -3597.16426531     0.00000103    -0.00000007  0.10D-06  0.18D-07 13 13    22.06
  14      1.21541055    -0.39708669 -3597.16426439     0.00000092    -0.00000006  0.84D-07  0.12D-07 14 14    24.15
  15      1.21544571    -0.39708541 -3597.16426311     0.00000128    -0.00000004  0.63D-07  0.90D-08 15 15    26.22
  16      1.21546135    -0.39708445 -3597.16426215     0.00000097    -0.00000004  0.50D-07  0.82D-08 15  1    27.30
  17      1.21547503    -0.39708315 -3597.16426085     0.00000129    -0.00000003  0.37D-07  0.81D-08 15  2    29.94
  18      1.21550123    -0.39708193 -3597.16425963     0.00000122    -0.00000002  0.21D-07  0.71D-08 15  3    32.36
  19      1.21550682    -0.39708121 -3597.16425891     0.00000072    -0.00000001  0.16D-07  0.62D-08 15  4    34.19
  20      1.21552076    -0.39708030 -3597.16425800     0.00000091    -0.00000001  0.91D-08  0.47D-08 15  5    36.55
  21      1.21552613    -0.39707949 -3597.16425719     0.00000081    -0.00000001  0.56D-08  0.40D-08 15  6    39.15

 Norm of t1 vector:      0.18004297      S-energy:    -0.00212784      T1 diagnostic:  0.03443658
                                                                       D1 diagnostic:  0.11456870
 Norm of t2 vector:      0.42791432      P-energy:    -0.39495164
                                         Alpha-Beta:  -0.30730497
                                         Alpha-Alpha: -0.05108869
                                         Beta-Beta:   -0.03655799

 Singles amplitudes (print threshold =  0.500E-01):

         I         SYM. A    A   T(IA) [Alpha-Alpha]

         4         1         1     -0.06908316
 
         I         SYM. A    A   T(IA) [Beta-Beta]

         4         1         1     -0.08078800

 Doubles amplitudes (print threshold =  0.500E-01):

         I         J         SYM. A    SYM. B    A         B      T(IJ, AB) [Alpha-Beta]

         4         4         1         1         1         1     -0.05395041
         4         4         1         1         3         3     -0.05425697
         4         4         3         3         1         1     -0.05816258
         4         4         4         4         1         1     -0.05566863

 Spin contamination <S**2-Sz**2-Sz>     0.00000000

 Memory could be reduced to 79.46 Mwords without degradation in triples
 

  Correlated core orbitals:             8.1       9.1       4.2       4.3
  Orbital energies:                    -2.5795   -1.5793   -1.5826   -1.5502
 
  RCCSD core-core energy               -0.199172390359
  RCCSD core-valence energy            -0.104907355563
  RCCSD valence correlation energy     -0.092999740997
 

 RESULTS
 =======

  Reference energy                  -3596.767177700288
  RCCSD singles energy                 -0.002127842896
  RCCSD pair energy                    -0.394951644023
  RCCSD correlation energy             -0.397079486919
  Triples (T) contribution             -0.019168221659
  Total correlation energy             -0.416247708578
 
  RHF-RCCSD energy                  -3597.164257187207
  RHF-RCCSD[T] energy               -3597.184575712240
  RHF-RCCSD-T energy                -3597.183091829249
 !RHF-RCCSD(T) energy               -3597.183425408866

 Program statistics:

 Available memory in ccsd:               999999438
 Min. memory needed in ccsd:               3955656
 Max. memory used in ccsd:                 5358175
 Max. memory used in cckext:               5240143 (21 integral passes)
 Max. memory used in cckint:               8577232 ( 1 integral passes)



 **********************************************************************************************************************************
 DATASETS  * FILE   NREC   LENGTH (MB)   RECORD NAMES
              1      22       21.76       500      610      700      900      950      970     1000      129      960     1700   
                                          VAR    BASINP    GEOM    SYMINP    ZMAT    AOBASIS   BASIS     P2S    ABASIS    OPER   
                                         1101     1401     1411     1412     1650     1100     1400     1410     1200     1210   
                                          SR      EKINR    POTR     PVPR    MOLCAS      S      EKIN      POT      H0       H01  
                                         1080     1600   
                                         AOSYM     SMH  

              2       4        3.56       700     1000      520     2100   
                                         GEOM     BASIS   MCVARS     RHF  

 PROGRAMS   *        TOTAL  RCCSD(T)       RHF       INT
 CPU TIMES  *       114.74     51.18      3.32     59.88
 REAL TIME  *       160.82 SEC
 DISK USED  *         7.07 GB      
 SF USED    *         1.06 GB      
 GA USED    *         0.00 MB       (max)       0.00 MB       (current)
 **********************************************************************************************************************************
 SETTING CCSD           =     -3597.18342541  AU                              
 SETTING BIND           =        -0.07642156  AU                              
 Output type csv         
                                                                                                                                                                                                                                                                

  2.10,SCF,CCSD,BIND
   2.1,   -3596.767178,   -3597.183425,   -0.07642156
                                                  

 RCCSD(T)/USERDEF energy=  -3597.183425408866

        RCCSD(T)        RHF-SCF 
  -3597.18342541  -3596.76717770
 **********************************************************************************************************************************
 Molpro calculation terminated
 Variable memory released
