
 Primary working directories    : /global/cscratch1/sd/haihan
 Secondary working directories  : /global/cscratch1/sd/haihan
 Wavefunction directory         : /global/homes/h/haihan/Research/ECP/f_group_element_ecps/Zr/Molpro/molecule/ZrH/UC/wfu/
 Main file repository           : /global/cscratch1/sd/haihan/

 SHA1      : 19cd028119e0e09f93f0674bd8af7968d9b3eff6
 NAME      : 2015.1.36
 ARCHNAME  : linux/x86_64
 FC        : /opt/cray/pe/craype/2.5.14/bin/ftn
 BLASLIB   : -L/opt/intel/compilers_and_libraries_2018.1.163/linux/mkl/lib/intel64 -Wl,-_start-group -lmkl_intel_ilp64 -lmkl_intel_thread -lmkl_core -Wl,-_end-group -liomp5
 id        : lbl

 Nodes     nprocs
 nid01897    11
 Number of processes for MPI-2 version of Molpro:   nprocs(total)=   12   nprocs(compute)=   11   nprocs(helper)=    1

 Using customized tuning parameters: mindgm=7; mindgv=16; mindgc=1; mindgr=1; noblas=0; minvec=7
 default implementation of scratch files=sf  

 ***,Calculation for all-electron YH molecule, SCF and CCSD(T)
 memory,1,g
 gthresh,twoint=1.0E-15
 gthresh,throvl=1.0E-15
 
 set,dkroll=1,dkho=10,dkhp=4
 basis={
 Including file /global/u2/h/haihan/Research/ECP/f_group_element_ecps/Zr/Molpro/molecule/ZrH/UC/r_2.10/../generate/Zr-aug-cc-pwCVTZ.basis
 Including file /global/u2/h/haihan/Research/ECP/f_group_element_ecps/Zr/Molpro/molecule/ZrH/UC/r_2.10/../generate/H-aug-cc-pVTZ.basis
 }
 
 Zr_ccsd=-3596.607176
 H_ccsd=-0.49982785
 
                                                                                 !These are the wf cards parameters
 ne = 41
 symm = 1
 ss= 1
 
                                                                                 !There are irrep cards paramters
 A1=12
 B1=4
 B2=4
 A2=1
 
 
 geometry={
     2
     YH molecule
     Zr 0.0 0.0 0.0
     H 0.0 0.0 2.10
 }
 {rhf,nitord=100;
  maxit,200;
  wf,ne,symm,ss
  occ,A1,B1,B2,A2
  closed,A1-1,B1,B2,A2
  print,orbitals=2
 }
 scf=energy
 _CC_NORM_MAX=2.0
 {rccsd(t),shifts=0.2,shiftp=0.2,thrdis=1.0;diis,1,1,15,1;maxit,100;core,7,3,3,1}
 ccsd=energy
 bind=ccsd-Zr_ccsd-H_ccsd
 
 
 table,2.10,scf,ccsd,bind
 save
 type,csv
 

 Variables initialized (889), CPU time= 0.01 sec
 Commands  initialized (702), CPU time= 0.01 sec, 572 directives.
 Default parameters read. Elapsed time= 0.13 sec

 Checking input...
 Passed
1


                                         ***  PROGRAM SYSTEM MOLPRO  ***
                                       Copyright, TTI GmbH Stuttgart, 2015
                                    Version 2015.1 linked Dec 29 2018 15:55:43


 **********************************************************************************************************************************
 LABEL *   Calculation for all-electron YH molecule, SCF and CCSD(T)                     
  64 bit mpp version                                                                     DATE: 24-Sep-22          TIME: 17:58:07  
 **********************************************************************************************************************************

 SHA1:             19cd028119e0e09f93f0674bd8af7968d9b3eff6
 **********************************************************************************************************************************

 THRESHOLDS:

 ZERO    =  1.00D-12  ONEINT  =  1.00D-12  TWOINT  =  1.00D-15  PREFAC  =  1.00D-14  LOCALI  =  1.00D-09  EORDER  =  1.00D-04
 ENERGY  =  0.00D+00  ETEST   =  0.00D+00  EDENS   =  0.00D+00  THRDEDEF=  1.00D-06  GRADIENT=  1.00D-02  STEP    =  1.00D-03
 ORBITAL =  1.00D-05  CIVEC   =  1.00D-05  COEFF   =  1.00D-04  PRINTCI =  5.00D-02  PUNCHCI =  9.90D+01  OPTGRAD =  3.00D-04
 OPTENERG=  1.00D-06  OPTSTEP =  3.00D-04  THRGRAD =  1.00D-10  COMPRESS=  1.00D-11  VARMIN  =  1.00D-07  VARMAX  =  1.00D-03
 THRDOUB =  0.00D+00  THRDIV  =  1.00D-05  THRRED  =  1.00D-07  THRPSP  =  1.00D+00  THRDC   =  1.00D-10  THRCS   =  1.00D-10
 THRNRM  =  1.00D-08  THREQ   =  0.00D+00  THRDE   =  1.00D+00  THRREF  =  1.00D-05  SPARFAC =  1.00D+00  THRDLP  =  1.00D-07
 THRDIA  =  1.00D-10  THRDLS  =  1.00D-07  THRGPS  =  0.00D+00  THRKEX  =  0.00D+00  THRDIS  =  2.00D-01  THRVAR  =  1.00D-10
 THRLOC  =  1.00D-06  THRGAP  =  1.00D-06  THRLOCT = -1.00D+00  THRGAPT = -1.00D+00  THRORB  =  1.00D-06  THRMLTP =  0.00D+00
 THRCPQCI=  1.00D-10  KEXTA   =  0.00D+00  THRCOARS=  0.00D+00  SYMTOL  =  1.00D-06  GRADTOL =  1.00D-06  THROVL  =  1.00D-08
 THRORTH =  1.00D-08  GRID    =  1.00D-06  GRIDMAX =  1.00D-03  DTMAX   =  0.00D+00  THROCCDE=  1.00D-01  THROCCDE=  1.00D-01



 THRESHOLDS:

 ZERO    =  1.00D-12  ONEINT  =  1.00D-12  TWOINT  =  1.00D-15  PREFAC  =  1.00D-14  LOCALI  =  1.00D-09  EORDER  =  1.00D-04
 ENERGY  =  0.00D+00  ETEST   =  0.00D+00  EDENS   =  0.00D+00  THRDEDEF=  1.00D-06  GRADIENT=  1.00D-02  STEP    =  1.00D-03
 ORBITAL =  1.00D-05  CIVEC   =  1.00D-05  COEFF   =  1.00D-04  PRINTCI =  5.00D-02  PUNCHCI =  9.90D+01  OPTGRAD =  3.00D-04
 OPTENERG=  1.00D-06  OPTSTEP =  3.00D-04  THRGRAD =  1.00D-10  COMPRESS=  1.00D-11  VARMIN  =  1.00D-07  VARMAX  =  1.00D-03
 THRDOUB =  0.00D+00  THRDIV  =  1.00D-05  THRRED  =  1.00D-07  THRPSP  =  1.00D+00  THRDC   =  1.00D-10  THRCS   =  1.00D-10
 THRNRM  =  1.00D-08  THREQ   =  0.00D+00  THRDE   =  1.00D+00  THRREF  =  1.00D-05  SPARFAC =  1.00D+00  THRDLP  =  1.00D-07
 THRDIA  =  1.00D-10  THRDLS  =  1.00D-07  THRGPS  =  0.00D+00  THRKEX  =  0.00D+00  THRDIS  =  2.00D-01  THRVAR  =  1.00D-10
 THRLOC  =  1.00D-06  THRGAP  =  1.00D-06  THRLOCT = -1.00D+00  THRGAPT = -1.00D+00  THRORB  =  1.00D-06  THRMLTP =  0.00D+00
 THRCPQCI=  1.00D-10  KEXTA   =  0.00D+00  THRCOARS=  0.00D+00  SYMTOL  =  1.00D-06  GRADTOL =  1.00D-06  THROVL  =  1.00D-15
 THRORTH =  1.00D-08  GRID    =  1.00D-06  GRIDMAX =  1.00D-03  DTMAX   =  0.00D+00  THROCCDE=  1.00D-01  THROCCDE=  1.00D-01


 SETTING DKROLL         =         1.00000000                                  
 SETTING DKHO           =        10.00000000                                  
 SETTING DKHP           =         4.00000000                                  

 Variable memory set to 1000000000 words,  buffer space   230000 words

 SETTING BASIS          =    USERDEF
 SETTING ZR_CCSD        =     -3596.60717600                                  
 SETTING H_CCSD         =        -0.49982785                                  
 SETTING NE             =        41.00000000                                  
 SETTING SYMM           =         1.00000000                                  
 SETTING SS             =         1.00000000                                  
 SETTING A1             =        12.00000000                                  
 SETTING B1             =         4.00000000                                  
 SETTING B2             =         4.00000000                                  
 SETTING A2             =         1.00000000                                  

Geometry recognized as XYZ



 Recomputing integrals since basis changed


 Using spherical harmonics



 PROGRAM * SEWARD (Integral evaluation for generally contracted gaussian basis sets)     Author: Roland Lindh, 1990

 Geometry written to block  1 of record 700


 Point group  C2v 



 ATOMIC COORDINATES

 NR  ATOM    CHARGE       X              Y              Z

   1  ZR     40.00    0.000000000    0.000000000    0.000000000
   2  H       1.00    0.000000000    0.000000000    3.968424862

 Bond lengths in Bohr (Angstrom)

 1-2  3.968424862
     ( 2.100000000)

 NUCLEAR CHARGE:                   41
 NUMBER OF PRIMITIVE AOS:         347
 NUMBER OF SYMMETRY AOS:          295
 NUMBER OF CONTRACTIONS:          295   ( 129A1  +  67B1  +  67B2  +  32A2  )
 NUMBER OF CORE ORBITALS:          18   (   9A1  +   4B1  +   4B2  +   1A2  )
 NUMBER OF VALENCE ORBITALS:        7   (   4A1  +   1B1  +   1B2  +   1A2  )


 NUCLEAR REPULSION ENERGY   10.07956592

 One-electron integrals computed with SEWARD

 10nd-order Douglas-Kroll-Hess method activated. McWeeny DKH parametrization is used.

 Computing Douglas-Kroll / X2C integrals

 AO integral compression algorithm  1   Integral accuracy      1.0D-15

     1229.718 MB (compressed) written to integral file ( 55.1%)

     Node minimum: 39.846 MB, node maximum: 335.282 MB


 NUMBER OF SORTED TWO-ELECTRON INTEGRALS:   22432752.     BUFFER LENGTH:  32768
 NUMBER OF SEGMENTS:   2  SEGMENT LENGTH:   15996129      RECORD LENGTH: 524288

 Memory used in sort:      16.55 MW

 SORT1 READ   279023068. AND WROTE    10196616. INTEGRALS IN     30 RECORDS. CPU TIME:     4.93 SEC, REAL TIME:     5.68 SEC
 SORT2 READ   111193714. AND WROTE   246753875. INTEGRALS IN   2497 RECORDS. CPU TIME:     0.38 SEC, REAL TIME:     1.47 SEC

 Node minimum:    22405599.  Node maximum:    22490595. integrals

 OPERATOR DM      FOR CENTER  0  COORDINATES:    0.000000    0.000000    0.000000

 EXTRA SYMMETRY OF AOS IN SYMMETRY 1:   1 1 1 1 1 1 1 1 1 1   1 1 1 1 1 1 1 1 1 1   1 1 1 1 1 1 1 1 1 1   1 1 1 1 1 1 1 1 1 1
                                        1 1 1 1 1 1 1 1 1 1   1 1 1 1 1 1 1 1 1 1   2 1 2 1 2 1 2 1 2 1   2 1 2 1 2 1 2 1 2 1
                                        2 1 2 1 2 1 2 1 2 1   2 1 2 1 2 1 2 1 2 1   2 1 2 1 2 1 2 1 3 2   1 3 2 1 3 2 1 1 1 1
                                        1 1 1 1 1 1 2 1 2
 EXTRA SYMMETRY OF AOS IN SYMMETRY 2:   1 1 1 1 1 1 1 1 1 1   1 1 1 1 1 1 1 1 1 1   1 1 1 1 1 1 1 1 1 1   1 1 1 1 1 1 1 1 1 1
                                        1 1 1 1 1 1 1 1 1 2   1 2 1 2 1 2 1 2 1 2   1 2 1 1 1 1 1
 EXTRA SYMMETRY OF AOS IN SYMMETRY 3:   1 1 1 1 1 1 1 1 1 1   1 1 1 1 1 1 1 1 1 1   1 1 1 1 1 1 1 1 1 1   1 1 1 1 1 1 1 1 1 1
                                        1 1 1 1 1 1 1 1 1 2   1 2 1 2 1 2 1 2 1 2   1 2 1 1 1 1 1
 EXTRA SYMMETRY OF AOS IN SYMMETRY 4:   1 1 1 1 1 1 1 1 1 1   1 1 1 1 1 1 1 1 1 1   1 1 1 1 1 2 1 2 1 2   1 1

 Eigenvalues of metric

         1 0.120E-07 0.920E-07 0.978E-07 0.115E-06 0.525E-06 0.103E-05 0.319E-05 0.781E-05
         2 0.122E-07 0.976E-07 0.117E-06 0.105E-05 0.811E-05 0.108E-04 0.362E-04 0.404E-04
         3 0.122E-07 0.976E-07 0.117E-06 0.105E-05 0.811E-05 0.108E-04 0.362E-04 0.404E-04
         4 0.978E-07 0.108E-04 0.404E-04 0.435E-03 0.213E-02 0.598E-02 0.165E-01 0.366E-01


 **********************************************************************************************************************************
 DATASETS  * FILE   NREC   LENGTH (MB)   RECORD NAMES
              1      22       21.76       500      610      700      900      950      970     1000      129      960     1700   
                                          VAR    BASINP    GEOM    SYMINP    ZMAT    AOBASIS   BASIS     P2S    ABASIS    OPER   
                                         1101     1401     1411     1412     1650     1100     1400     1410     1200     1210   
                                          SR      EKINR    POTR     PVPR    MOLCAS      S      EKIN      POT      H0       H01  
                                         1080     1600   
                                         AOSYM     SMH  

 PROGRAMS   *        TOTAL       INT
 CPU TIMES  *        60.07     59.88
 REAL TIME  *        63.68 SEC
 DISK USED  *         2.62 GB      
 GA USED    *         0.00 MB       (max)       0.00 MB       (current)
 **********************************************************************************************************************************


 PROGRAM * RHF-SCF (OPEN SHELL)       Authors: W. Meyer, H.-J. Werner


 NUMBER OF ELECTRONS:      21+   20-    SPACE SYMMETRY=1    SPIN SYMMETRY: Doublet 
 CONVERGENCE THRESHOLDS:    1.00E-05 (Density)    1.00E-07 (Energy)
 MAX. NUMBER OF ITERATIONS:      200
 INTERPOLATION TYPE:            DIIS
 INTERPOLATION STEPS:              2 (START)      1 (STEP)
 LEVEL SHIFTS:                 -0.60 (CLOSED) -0.30 (OPEN) 

 Number of closed-shell orbitals:   20 (  11   4   4   1 )
 Number of open-shell orbitals:      1 (   1   0   0   0 )


 Orbital guess generated from atomic densities. Full valence occupancy:   13   5   5   2

 Molecular orbital dump at record        2100.2

 ITERATION    DDIFF          GRAD             ENERGY        2-EL.EN.            DIPOLE MOMENTS         DIIS   ORB.
    1      0.000D+00      0.000D+00     -3595.91763198   2679.643179    0.00000    0.00000   -5.81540    0    start
    2      0.000D+00      0.108D-01     -3596.69856083   2759.376919    0.00000    0.00000   -0.13881    1    diag,B
    3      0.303D+00      0.683D-02     -3596.73481279   2750.691622    0.00000    0.00000   -0.21178    2    diag,B
    4      0.874D-02      0.199D-02     -3596.75174034   2750.100338    0.00000    0.00000   -0.28775    3    diag,B
    5      0.988D-02      0.113D-02     -3596.76605656   2750.977775    0.00000    0.00000   -0.39553    4    diag,B
    6      0.139D-01      0.710D-03     -3596.77372748   2752.562896    0.00000    0.00000   -0.51863    5    diag,B
    7      0.120D-01      0.376D-03     -3596.77619897   2753.672552    0.00000    0.00000   -0.64760    6    diag,B
    8      0.729D-02      0.143D-03     -3596.77649261   2753.915941    0.00000    0.00000   -0.72705    7    diag,B
    9      0.245D-02      0.888D-04     -3596.77661248   2753.990708    0.00000    0.00000   -0.79424    8    diag,B
   10      0.914D-03      0.552D-04     -3596.77667565   2754.054832    0.00000    0.00000   -0.84248    9    orth
   11      0.155D-02      0.383D-04     -3596.77671687   2754.152965    0.00000    0.00000   -0.87432    9    diag,B
   12      0.150D-02      0.279D-04     -3596.77675017   2754.275926    0.00000    0.00000   -0.90897    9    diag,B
   13      0.129D-02      0.160D-04     -3596.77675966   2754.349005    0.00000    0.00000   -0.92548    9    diag,B
   14      0.826D-03      0.815D-05     -3596.77676158   2754.376704    0.00000    0.00000   -0.93323    9    diag,B
   15      0.903D-03      0.293D-05     -3596.77676172   2754.382458    0.00000    0.00000   -0.93460    9    diag,B
   16      0.339D-03      0.117D-05     -3596.77676174   2754.384090    0.00000    0.00000   -0.93488    9    diag,B
   17      0.519D-04      0.534D-06     -3596.77676174   2754.384694    0.00000    0.00000   -0.93513    9    diag,B
   18      0.439D-04      0.239D-06     -3596.77676174   2754.384789    0.00000    0.00000   -0.93521    9    diag,B
   19      0.164D-04      0.115D-06     -3596.77676174   2754.384645    0.00000    0.00000   -0.93524    9    diag,B
   20      0.543D-05      0.523D-07     -3596.77676174   2754.384645    0.00000    0.00000   -0.93525    0    orth

 Final alpha occupancy:  12   4   4   1
 Final beta  occupancy:  11   4   4   1

 !RHF STATE 1.1 Energy              -3596.776761743843
 Nuclear energy                        10.07956592
 One-electron energy                -4984.04865036
 Two-electron energy                 1377.19232270
 Virial quotient                       -0.91148907
 !RHF STATE 1.1 Dipole moment           0.00000000     0.00000000    -0.93524995
 Dipole moment /Debye                   0.00000000     0.00000000    -2.37701256

 ELECTRON ORBITALS
 =================


   Orb  Occ    Energy  Couls-En    Coefficients

                                   1 1s      1 1s      1 1s      1 1s      1 1s      1 1s      1 1s      1 1s      1 1s      1 1s   
                                   1 1s      1 1s      1 1s      1 1s      1 1s      1 1s      1 1s      1 1s      1 1s      1 1s   
                                   1 1s      1 1s      1 1s      1 1s      1 1s      1 1s      1 1s      1 1s      1 1s      1 1s   
                                   1 1s      1 2pz     1 2pz     1 2pz     1 2pz     1 2pz     1 2pz     1 2pz     1 2pz     1 2pz  
                                   1 2pz     1 2pz     1 2pz     1 2pz     1 2pz     1 2pz     1 2pz     1 2pz     1 2pz     1 2pz  
                                   1 2pz     1 2pz     1 2pz     1 2pz     1 2pz     1 2pz     1 2pz     1 2pz     1 2pz     1 3d0  
                                   1 3d2+    1 3d0     1 3d2+    1 3d0     1 3d2+    1 3d0     1 3d2+    1 3d0     1 3d2+    1 3d0  
                                   1 3d2+    1 3d0     1 3d2+    1 3d0     1 3d2+    1 3d0     1 3d2+    1 3d0     1 3d2+    1 3d0  
                                   1 3d2+    1 3d0     1 3d2+    1 3d0     1 3d2+    1 3d0     1 3d2+    1 3d0     1 3d2+    1 3d0  
                                   1 3d2+    1 3d0     1 3d2+    1 3d0     1 3d2+    1 3d0     1 3d2+    1 3d0     1 3d2+    1 4f0  
                                   1 4f2+    1 4f0     1 4f2+    1 4f0     1 4f2+    1 4f0     1 4f2+    1 5g0     1 5g4+    1 5g2+ 
                                   1 5g0     1 5g4+    1 5g2+    1 5g0     1 5g4+    1 5g2+    2 1s      2 1s      2 1s      2 1s   
                                   2 1s      2 1s      2 2pz     2 2pz     2 2pz     2 3d0     2 3d2+    2 3d0     2 3d2+ 

   1.1   2  -665.1361-1483.0077  0.000042  0.000111  0.000306  0.000707  0.001535  0.003175  0.006516  0.013482  0.028412  0.060272
                                 0.123434  0.225418  0.318989  0.279036 -0.004784  0.105657  0.006282  0.002708 -0.003367  0.004423
                                -0.004724  0.003829 -0.005064  0.003857 -0.000323  0.000133 -0.000085  0.000048 -0.000023  0.000010
                                -0.000001  0.000000  0.000000  0.000000  0.000000  0.000000  0.000000  0.000000 -0.000000  0.000000
                                 0.000001  0.000001 -0.000007  0.000012 -0.000021  0.000051 -0.000088  0.000091 -0.000073  0.000137
                                -0.000166  0.000085 -0.000027  0.000026 -0.000023  0.000004 -0.000000  0.000002  0.000000 -0.000000
                                 0.000000  0.000000 -0.000000  0.000000  0.000000  0.000000 -0.000000 -0.000000  0.000000 -0.000001
                                -0.000000  0.000001  0.000000 -0.000001 -0.000000  0.000001  0.000000 -0.000004  0.000000  0.000020
                                -0.000000 -0.000051  0.000000  0.000134 -0.000000 -0.000120  0.000000  0.000022 -0.000000 -0.000006
                                 0.000000  0.000004 -0.000000 -0.000000  0.000000  0.000001 -0.000000  0.000000  0.000000  0.000000
                                -0.000000 -0.000000 -0.000000 -0.000000 -0.000000  0.000000 -0.000000  0.000000  0.000000  0.000000
                                -0.000000  0.000000 -0.000000  0.000000  0.000000 -0.000000  0.000000 -0.000000  0.000000 -0.000000
                                -0.000001 -0.000004 -0.000000 -0.000001  0.000000 -0.000000 -0.000000  0.000000  0.000000

   2.1   2   -94.8594 -298.3755 -0.000014 -0.000036 -0.000101 -0.000234 -0.000508 -0.001055 -0.002177 -0.004544 -0.009722 -0.021200
                                -0.045700 -0.092288 -0.158110 -0.186363  0.004618 -0.034321  0.360996  0.542739  0.231079  0.018480
                                 0.011105  0.001332 -0.004579  0.004110 -0.000598  0.000216 -0.000162  0.000093 -0.000044  0.000020
                                -0.000002  0.000000  0.000000  0.000000  0.000000  0.000001  0.000004  0.000012  0.000032  0.000070
                                 0.000117  0.000150  0.000103  0.000003 -0.000013  0.000088 -0.000160  0.000169 -0.000136  0.000262
                                -0.000320  0.000166 -0.000053  0.000056 -0.000049  0.000009  0.000001  0.000004  0.000000 -0.000000
                                -0.000000 -0.000000  0.000000 -0.000000 -0.000000 -0.000000 -0.000000 -0.000005  0.000000 -0.000020
                                -0.000000  0.000015  0.000000 -0.000003 -0.000000  0.000002  0.000000 -0.000010 -0.000000  0.000044
                                 0.000000 -0.000110 -0.000000  0.000283  0.000000 -0.000252 -0.000000  0.000046  0.000000 -0.000012
                                 0.000000  0.000009 -0.000000  0.000000  0.000000  0.000001 -0.000000  0.000001  0.000000  0.000003
                                 0.000000 -0.000001 -0.000000  0.000001 -0.000000  0.000001 -0.000000 -0.000001 -0.000002  0.000000
                                -0.000000  0.000000 -0.000000  0.000000 -0.000000 -0.000000  0.000000 -0.000000  0.000000 -0.000000
                                -0.000003 -0.000007 -0.000000 -0.000001  0.000001  0.000000 -0.000000  0.000001  0.000000

   3.1   2   -84.3902 -284.1684  0.000000  0.000000  0.000000  0.000000  0.000000  0.000000  0.000001  0.000002  0.000004  0.000009
                                 0.000020  0.000040  0.000068  0.000081 -0.000002  0.000012 -0.000168 -0.000214 -0.000091 -0.000013
                                -0.000027  0.000025 -0.000064  0.000062 -0.000006  0.000010 -0.000015  0.000011  0.000009  0.000012
                                 0.000003  0.000014  0.000054  0.000210  0.000776  0.002803  0.009566  0.029702  0.080895  0.181364
                                 0.307743  0.343371  0.167470  0.035749 -0.004650  0.086438 -0.113017  0.094745 -0.052382  0.062154
                                -0.060674  0.022990 -0.004602  0.001893 -0.001313  0.000145 -0.000020  0.000016 -0.000001  0.000000
                                -0.000000  0.000000 -0.000000  0.000002 -0.000000  0.000008 -0.000000  0.000030 -0.000000  0.000031
                                -0.000000 -0.000008 -0.000000  0.000000 -0.000000  0.000004 -0.000000 -0.000014  0.000000  0.000097
                                -0.000000 -0.000246  0.000000  0.000624 -0.000000 -0.000541  0.000000  0.000088 -0.000000 -0.000014
                                 0.000000  0.000010 -0.000000  0.000006  0.000000  0.000001 -0.000000  0.000002  0.000000 -0.000007
                                 0.000000 -0.000002  0.000000  0.000001 -0.000000  0.000002 -0.000000  0.000000  0.000000  0.000000
                                 0.000000 -0.000000 -0.000000  0.000001  0.000000  0.000000 -0.000000  0.000000  0.000000 -0.000002
                                -0.000020 -0.000017  0.000000  0.000000  0.000008 -0.000001  0.000000  0.000001 -0.000000

   4.1   2   -16.7464  -99.9356  0.000006  0.000015  0.000042  0.000097  0.000212  0.000440  0.000908  0.001900  0.004070  0.008915
                                 0.019332  0.039667  0.069685  0.087577 -0.006117  0.020257 -0.235526 -0.479388 -0.253380  0.246049
                                 0.403561  0.491666  0.247156 -0.021907  0.014413 -0.002190  0.001738 -0.000922  0.000537 -0.000230
                                 0.000026 -0.000000 -0.000000 -0.000000 -0.000001 -0.000003 -0.000009 -0.000029 -0.000080 -0.000185
                                -0.000330 -0.000389 -0.000087  0.000046  0.000682 -0.000081  0.001257 -0.000261  0.001118 -0.000955
                                 0.001315 -0.000724  0.000204 -0.000214  0.000139  0.000023  0.000050 -0.000050 -0.000003  0.000000
                                -0.000000  0.000000  0.000000  0.000002 -0.000000  0.000008  0.000000  0.000028 -0.000000  0.000097
                                -0.000000 -0.000038  0.000000  0.000095 -0.000000 -0.000046  0.000000 -0.000038 -0.000000 -0.000001
                                 0.000000  0.000336 -0.000000 -0.001315  0.000000  0.001297 -0.000000 -0.000291  0.000000  0.000037
                                -0.000000 -0.000010  0.000000  0.000032 -0.000000 -0.000016  0.000000 -0.000007 -0.000000  0.000031
                                 0.000000 -0.000054 -0.000000  0.000037  0.000000 -0.000004 -0.000000 -0.000006 -0.000001  0.000000
                                 0.000027  0.000028 -0.000000  0.000003 -0.000006  0.000000 -0.000000  0.000001 -0.000001 -0.000025
                                -0.000074  0.000081  0.000002  0.000020  0.000023  0.000000  0.000000 -0.000003 -0.000000

   5.1   2   -13.2308  -93.3958 -0.000000 -0.000000 -0.000000 -0.000000 -0.000000 -0.000001 -0.000002 -0.000004 -0.000009 -0.000020
                                -0.000044 -0.000090 -0.000158 -0.000200  0.000017 -0.000049  0.000554  0.001077  0.000560 -0.000515
                                -0.001075 -0.001182  0.000153 -0.000355 -0.000145 -0.000140  0.000196 -0.000122 -0.000128 -0.000021
                                -0.000012 -0.000006 -0.000023 -0.000090 -0.000333 -0.001207 -0.004152 -0.013040 -0.036485 -0.084886
                                -0.152469 -0.171695 -0.014030  0.012254  0.284936  0.033327  0.432563  0.029286  0.291622 -0.055486
                                 0.126767 -0.039540  0.012054 -0.004761  0.003581 -0.000552 -0.000048 -0.000035 -0.000000  0.000000
                                -0.000000  0.000001  0.000000  0.000004 -0.000000  0.000014  0.000000  0.000033 -0.000000  0.000063
                                 0.000000  0.000047 -0.000000  0.000209 -0.000000  0.000392 -0.000000  0.000596  0.000000 -0.000782
                                -0.000000  0.001492  0.000000 -0.003169 -0.000000  0.002585  0.000000 -0.000403 -0.000000  0.000137
                                -0.000000 -0.000120 -0.000000 -0.000072 -0.000000  0.000002  0.000000 -0.000006 -0.000000  0.000000
                                -0.000000  0.000119  0.000000 -0.000050 -0.000000 -0.000017  0.000000  0.000001 -0.000000  0.000000
                                -0.000014 -0.000000 -0.000000 -0.000017  0.000000  0.000000  0.000000  0.000000 -0.000000  0.000057
                                 0.000219  0.000053 -0.000002 -0.000022 -0.000065  0.000005  0.000000 -0.000013  0.000000

   6.1   2    -7.4572  -83.0579  0.000000 -0.000000 -0.000000  0.000000 -0.000000  0.000000 -0.000000 -0.000000  0.000000 -0.000000
                                 0.000000 -0.000000  0.000000 -0.000000  0.000000 -0.000000  0.000000 -0.000000  0.000000 -0.000000
                                 0.000000 -0.000000  0.000000 -0.000000  0.000000  0.000000  0.000000 -0.000000 -0.000000  0.000000
                                 0.000000 -0.000000  0.000000 -0.000000  0.000000 -0.000000  0.000000 -0.000000 -0.000000 -0.000000
                                -0.000000 -0.000000  0.000000 -0.000000  0.000000 -0.000000  0.000000  0.000000 -0.000000  0.000000
                                -0.000000  0.000000 -0.000000  0.000000 -0.000000 -0.000000 -0.000000  0.000000 -0.000000 -0.000000
                                 0.000165 -0.000000  0.001479 -0.000000  0.008700 -0.000000  0.034330 -0.000000  0.100500 -0.000000
                                 0.221209  0.000000 -0.003573 -0.000000  0.327784 -0.000000  0.332242 -0.000000  0.203009  0.000000
                                -0.036268 -0.000000  0.109944  0.000000 -0.105188 -0.000000  0.075454  0.000000 -0.004258 -0.000000
                                 0.000625  0.000000 -0.000158 -0.000000  0.000088  0.000000 -0.000010  0.000000  0.000003 -0.000000
                                 0.000137  0.000000 -0.000090 -0.000000  0.000022 -0.000000 -0.000011 -0.000000 -0.000000  0.000075
                                -0.000000  0.000000 -0.000079 -0.000000 -0.000000  0.000015 -0.000000 -0.000000 -0.000000 -0.000000
                                -0.000000 -0.000000 -0.000000  0.000000 -0.000000 -0.000000  0.000001  0.000000 -0.000008

   7.1   2    -7.4515  -83.0334  0.000000  0.000000  0.000000  0.000000  0.000000  0.000000  0.000000  0.000000  0.000001  0.000001
                                 0.000003  0.000005  0.000009  0.000016 -0.000011  0.000015 -0.000059 -0.000101 -0.000076  0.000290
                                 0.000248  0.000322 -0.002104  0.001279 -0.000071  0.000444 -0.000602  0.000224  0.000360 -0.000062
                                 0.000009  0.000000  0.000000  0.000000  0.000000  0.000002  0.000005  0.000017  0.000047  0.000112
                                 0.000202  0.000229 -0.000135  0.000157 -0.000809  0.000748 -0.002307  0.001764 -0.001638  0.004328
                                -0.005121  0.002959 -0.001416  0.001742 -0.001785  0.000416  0.000282 -0.000040  0.000007  0.000165
                                 0.000000  0.001478  0.000000  0.008693  0.000000  0.034305  0.000000  0.100424  0.000000  0.221056
                                 0.000000 -0.003581 -0.000000  0.327606  0.000000  0.332175  0.000000  0.203224  0.000000 -0.035895
                                -0.000000  0.109948  0.000000 -0.104369  0.000000  0.074682 -0.000000 -0.004142  0.000000  0.000110
                                -0.000000  0.000075  0.000000  0.000218 -0.000000 -0.000024  0.000000  0.000003 -0.000000  0.000263
                                 0.000000 -0.000322 -0.000000  0.000155  0.000000  0.000041 -0.000000  0.000062  0.000018 -0.000000
                                 0.000014 -0.000070 -0.000000  0.000050  0.000012 -0.000000 -0.000000  0.000003 -0.000017 -0.000067
                                -0.000464  0.000011  0.000009 -0.000019  0.000091  0.000015 -0.000000  0.000065 -0.000000

   8.1   2    -2.5584  -38.2538 -0.000002 -0.000006 -0.000016 -0.000037 -0.000080 -0.000167 -0.000344 -0.000721 -0.001543 -0.003390
                                -0.007341 -0.015156 -0.026579 -0.034613  0.004942 -0.010761  0.098975  0.204579  0.128839 -0.162094
                                -0.177906 -0.564604 -0.108986 -0.041839  0.787282  0.545163 -0.012404  0.036052 -0.016792  0.007633
                                -0.000934 -0.000000 -0.000000 -0.000000 -0.000001 -0.000002 -0.000008 -0.000024 -0.000070 -0.000157
                                -0.000305 -0.000255 -0.001346  0.002300 -0.003752  0.011654 -0.021191  0.025692 -0.023547  0.055746
                                -0.075451  0.046152 -0.021091  0.010203 -0.013460  0.001451  0.000231  0.001267  0.000180 -0.000000
                                -0.000000 -0.000003  0.000000 -0.000018 -0.000000 -0.000072  0.000000 -0.000203 -0.000000 -0.000622
                                 0.000000  0.000204 -0.000000 -0.000771  0.000000 -0.000398 -0.000000 -0.000906  0.000000  0.007170
                                -0.000000 -0.019335  0.000000  0.064532 -0.000000 -0.059015  0.000000  0.014122 -0.000000 -0.003544
                                 0.000000  0.001154 -0.000000  0.000021  0.000000  0.000316 -0.000000  0.000261 -0.000000 -0.000604
                                -0.000000 -0.001593 -0.000000  0.000185  0.000000  0.000313  0.000000  0.000140  0.000317 -0.000000
                                 0.000847  0.001167 -0.000000  0.000191  0.000110 -0.000000  0.000033  0.000215  0.000792  0.002125
                                -0.000334 -0.002576 -0.000232 -0.001310 -0.000010  0.000184 -0.000000  0.000583 -0.000000

   9.1   2    -1.5469  -33.6840 -0.000000 -0.000000 -0.000000 -0.000000 -0.000001 -0.000002 -0.000003 -0.000007 -0.000015 -0.000033
                                -0.000073 -0.000149 -0.000267 -0.000319 -0.000033 -0.000016  0.000908  0.002216  0.000796 -0.000422
                                -0.004546 -0.002018 -0.013020  0.009645  0.014342  0.000043 -0.007397  0.000373  0.001742  0.000203
                                 0.000256  0.000002  0.000008  0.000031  0.000117  0.000423  0.001459  0.004586  0.012903  0.030149
                                 0.054859  0.061255  0.008223 -0.023296 -0.098167 -0.105739 -0.041506 -0.230318  0.047831 -0.324957
                                 0.625166 -0.147971  0.581067  0.322471  0.008002  0.036027 -0.002808  0.001396 -0.000221  0.000001
                                 0.000000  0.000007 -0.000000  0.000043  0.000000  0.000168  0.000000  0.000506  0.000000  0.001065
                                 0.000000  0.000025  0.000000  0.001533  0.000000  0.001501  0.000000 -0.001042  0.000000  0.004399
                                -0.000000 -0.016813  0.000000  0.043139 -0.000000 -0.039547  0.000000 -0.003728 -0.000000 -0.009589
                                 0.000000  0.003840 -0.000000  0.000837  0.000000 -0.000005 -0.000000  0.000128 -0.000000  0.002467
                                -0.000000  0.005722 -0.000000  0.001816 -0.000000  0.000357  0.000000 -0.000150  0.000001 -0.000000
                                -0.000777  0.000009 -0.000000  0.000247  0.000001  0.000000  0.000218  0.001535  0.005796  0.014349
                                 0.004001 -0.000751 -0.000954 -0.004831 -0.000993  0.000675 -0.000000  0.001215  0.000000

  10.1   2    -0.3862  -13.1035  0.000000  0.000001  0.000002  0.000005  0.000010  0.000021  0.000043  0.000091  0.000195  0.000428
                                 0.000926  0.001915  0.003350  0.004425 -0.000784  0.001540 -0.012763 -0.026002 -0.017634  0.023614
                                 0.019369  0.087755 -0.001286  0.019784 -0.145076 -0.171234  0.028864  0.130064  0.098001  0.008938
                                -0.008849 -0.000000 -0.000001 -0.000004 -0.000016 -0.000059 -0.000204 -0.000642 -0.001808 -0.004222
                                -0.007708 -0.008534 -0.002375  0.005519  0.009621  0.027797 -0.020096  0.066615 -0.043914  0.154280
                                -0.259368  0.132145 -0.152465 -0.014658 -0.034565  0.085446  0.049995  0.002364 -0.004685 -0.000012
                                -0.000000 -0.000110  0.000000 -0.000640 -0.000000 -0.002572 -0.000000 -0.007452  0.000000 -0.018413
                                -0.000000  0.002491  0.000000 -0.025231 -0.000000 -0.019865  0.000000 -0.016601 -0.000000  0.127633
                                 0.000000 -0.324450 -0.000000  1.195229  0.000000 -1.155530 -0.000000  0.363300  0.000000  0.054729
                                -0.000000  0.098413  0.000000  0.043754  0.000000  0.004716  0.000000 -0.001427 -0.000000  0.003139
                                 0.000000  0.011328  0.000000  0.026643 -0.000000  0.005746  0.000000  0.000886  0.000072 -0.000000
                                 0.006034 -0.000193 -0.000000  0.005455 -0.000183 -0.000000  0.004592  0.033788  0.135165  0.314217
                                 0.317065  0.039957 -0.003675 -0.022274 -0.026469  0.002084 -0.000000  0.003341  0.000000

  11.1   2    -0.2326  -14.2435  0.000001  0.000001  0.000004  0.000009  0.000019  0.000040  0.000082  0.000171  0.000366  0.000805
                                 0.001743  0.003602  0.006318  0.008255 -0.001223  0.002617 -0.023819 -0.049524 -0.031633  0.040494
                                 0.045315  0.155802  0.028283  0.009553 -0.282421 -0.343386  0.018311  0.264270  0.551261  0.230188
                                -0.000277  0.000000  0.000001  0.000002  0.000008  0.000028  0.000097  0.000305  0.000859  0.002007
                                 0.003662  0.004063  0.000899 -0.002264 -0.005335 -0.011117  0.004950 -0.025869  0.014098 -0.050842
                                 0.088584 -0.038573  0.061617  0.034650  0.013410 -0.076839 -0.164147 -0.045973  0.003163  0.000017
                                 0.000000  0.000152  0.000000  0.000888  0.000000  0.003560  0.000000  0.010356  0.000000  0.025137
                                 0.000000 -0.002942 -0.000000  0.034691  0.000000  0.028003 -0.000000  0.017609  0.000000 -0.141525
                                -0.000000  0.330265  0.000000 -1.253808 -0.000000  1.202427  0.000000 -0.419406 -0.000000 -0.102314
                                 0.000000 -0.098925 -0.000000 -0.087817 -0.000000 -0.014335  0.000000 -0.001144 -0.000000  0.000151
                                 0.000000  0.003793  0.000000 -0.000693  0.000000 -0.002188 -0.000000  0.000174  0.000627  0.000000
                                -0.002394  0.000579  0.000000 -0.002409  0.000153  0.000000 -0.000552 -0.003895 -0.017238 -0.032621
                                -0.026233 -0.012558  0.001128 -0.000970  0.000804 -0.000384 -0.000000  0.000824  0.000000

  12.1   +    -0.3437  -22.6715  0.000000  0.000000  0.000000  0.000000  0.000000  0.000000  0.000000  0.000000  0.000000  0.000000
                                 0.000000  0.000000  0.000000  0.000000 -0.000000  0.000000 -0.000000  0.000000 -0.000000  0.000000
                                -0.000000  0.000000 -0.000000  0.000000 -0.000000  0.000000 -0.000000  0.000000 -0.000000  0.000000
                                -0.000000 -0.000000 -0.000000 -0.000000 -0.000000 -0.000000 -0.000000 -0.000000 -0.000000 -0.000000
                                -0.000000 -0.000000 -0.000000  0.000000 -0.000000  0.000000 -0.000000  0.000000 -0.000000  0.000000
                                -0.000000  0.000000 -0.000000  0.000000 -0.000000  0.000000  0.000000  0.000000 -0.000000  0.000000
                                -0.000041  0.000000 -0.000368  0.000000 -0.002147  0.000000 -0.008606  0.000000 -0.025028 -0.000000
                                -0.060836  0.000000  0.007195  0.000000 -0.083848  0.000000 -0.067268 -0.000000 -0.042117  0.000000
                                 0.344186 -0.000000 -0.795579  0.000000  3.021670 -0.000000 -2.895351  0.000000  1.015084 -0.000000
                                 0.245220  0.000000  0.188504 -0.000000  0.137500  0.000000  0.000736  0.000000  0.003228  0.000000
                                -0.000038  0.000000 -0.003730  0.000000 -0.011659  0.000000 -0.004397  0.000000  0.000000 -0.001345
                                 0.000000  0.000000 -0.003050  0.000000 -0.000000 -0.002111  0.000000  0.000000  0.000000  0.000000
                                 0.000000 -0.000000  0.000000 -0.000000  0.000000 -0.000000  0.000288  0.000000 -0.000746

  13.1   0     0.0047   -8.9956  0.000000  0.000000  0.000000  0.000000  0.000001  0.000002  0.000004  0.000009  0.000019  0.000045
                                 0.000088  0.000208  0.000281  0.000796 -0.001239  0.001444 -0.002374 -0.000508 -0.009314  0.021643
                                -0.038629  0.071733 -0.198567  0.193252 -0.072985  0.046238 -0.104622  0.261152 -0.199060  0.306894
                                -0.640702 -0.000000 -0.000001 -0.000003 -0.000012 -0.000044 -0.000150 -0.000480 -0.001321 -0.003182
                                -0.005501 -0.007345  0.019728 -0.031625  0.075538 -0.160004  0.332841 -0.351045  0.345285 -0.767123
                                 0.996577 -0.600744  0.161166 -0.367473  0.302860 -0.053771  0.336290 -0.066974  0.571172  0.000016
                                 0.000000  0.000144  0.000000  0.000842  0.000000  0.003378  0.000000  0.009814  0.000000  0.023958
                                 0.000000 -0.002939 -0.000000  0.032993  0.000000  0.026430 -0.000000  0.018142  0.000000 -0.142150
                                -0.000000  0.336334  0.000000 -1.259699 -0.000000  1.208282  0.000000 -0.411336 -0.000000 -0.084959
                                 0.000000 -0.111482 -0.000000 -0.100171  0.000000 -0.086839 -0.000000 -0.160821  0.000000  0.000101
                                 0.000000  0.001903 -0.000000  0.011371  0.000000  0.022233 -0.000000  0.000183  0.000899  0.000000
                                 0.000157  0.002399  0.000000 -0.001965  0.001550  0.000000  0.000382  0.003142  0.010541  0.039790
                                -0.029171  0.206923  0.001612  0.003567  0.035290 -0.000435 -0.000000 -0.002671  0.000000

  14.1   0     0.0230   -4.0626  0.000000  0.000000  0.000001  0.000002  0.000004  0.000009  0.000017  0.000038  0.000076  0.000183
                                 0.000350  0.000854  0.001084  0.003505 -0.005985  0.006917 -0.010461 -0.000097 -0.043854  0.103440
                                -0.190843  0.338816 -0.967149  0.938920 -0.313624  0.279887 -0.592499  1.175744 -1.990002  1.795793
                                -2.827380  0.000000  0.000000  0.000001  0.000004  0.000015  0.000053  0.000156  0.000477  0.001001
                                 0.002179  0.000979  0.025110 -0.042089  0.075319 -0.211407  0.396802 -0.465057  0.428944 -0.992694
                                 1.334674 -0.767462  0.321946 -0.389569  0.424363 -0.235247 -0.369080 -0.680197 -0.361961 -0.000003
                                 0.000000 -0.000022  0.000000 -0.000142  0.000000 -0.000524  0.000000 -0.001717  0.000000 -0.001715
                                 0.000000 -0.002299 -0.000000 -0.003880  0.000000 -0.007133 -0.000000  0.015642  0.000000 -0.099423
                                -0.000000  0.298297  0.000000 -0.849200 -0.000000  0.792101  0.000000 -0.137586 -0.000000  0.108808
                                 0.000000 -0.106854 -0.000000 -0.089442  0.000000 -0.131743 -0.000000 -0.113922  0.000000 -0.000154
                                 0.000000  0.002677  0.000000 -0.024434  0.000000 -0.078502  0.000000  0.000150 -0.000037 -0.000000
                                -0.000659  0.000115 -0.000000 -0.010897  0.000280 -0.000000  0.000059  0.000097  0.002917 -0.016538
                                 0.559967  1.624325  0.000826 -0.014543 -0.234321 -0.000131  0.000000  0.017185 -0.000000

                                   1 2px     1 2px     1 2px     1 2px     1 2px     1 2px     1 2px     1 2px     1 2px     1 2px  
                                   1 2px     1 2px     1 2px     1 2px     1 2px     1 2px     1 2px     1 2px     1 2px     1 2px  
                                   1 2px     1 2px     1 2px     1 2px     1 2px     1 2px     1 2px     1 2px     1 3d1+    1 3d1+ 
                                   1 3d1+    1 3d1+    1 3d1+    1 3d1+    1 3d1+    1 3d1+    1 3d1+    1 3d1+    1 3d1+    1 3d1+ 
                                   1 3d1+    1 3d1+    1 3d1+    1 3d1+    1 3d1+    1 3d1+    1 3d1+    1 3d1+    1 4f1+    1 4f3+ 
                                   1 4f1+    1 4f3+    1 4f1+    1 4f3+    1 4f1+    1 4f3+    1 5g1+    1 5g3+    1 5g1+    1 5g3+ 
                                   1 5g1+    1 5g3+    2 2px     2 2px     2 2px     2 3d1+    2 3d1+ 

   1.2   2   -84.3907 -284.1682  0.000014  0.000054  0.000210  0.000776  0.002803  0.009566  0.029702  0.080893  0.181360  0.307736
                                 0.343371  0.167550  0.035649 -0.004515  0.086123 -0.112480  0.094188 -0.051927  0.061304 -0.059645
                                 0.022475 -0.004450  0.001774 -0.001216  0.000123 -0.000028  0.000009 -0.000003  0.000000  0.000000
                                 0.000000  0.000003  0.000015  0.000023 -0.000004  0.000007 -0.000000 -0.000001 -0.000001 -0.000001
                                 0.000006 -0.000007  0.000002  0.000000  0.000000 -0.000000 -0.000000  0.000000  0.000004 -0.000009
                                 0.000001 -0.000002  0.000000 -0.000001 -0.000000  0.000000  0.000000  0.000000 -0.000000  0.000000
                                -0.000000  0.000000  0.000000  0.000000  0.000001 -0.000000 -0.000000

   2.2   2   -13.2306  -93.3914 -0.000006 -0.000023 -0.000090 -0.000333 -0.001207 -0.004151 -0.013039 -0.036482 -0.084878 -0.152453
                                -0.171671 -0.014178  0.012443  0.284539  0.034068  0.431031  0.031052  0.290439 -0.052711  0.123128
                                -0.037738  0.011409 -0.004059  0.002936 -0.000333  0.000076 -0.000026  0.000007  0.000000  0.000001
                                 0.000007  0.000026  0.000070  0.000169  0.000012  0.000313  0.000330  0.000201 -0.000079  0.000129
                                -0.000187  0.000137 -0.000020 -0.000002 -0.000003  0.000005  0.000001 -0.000000  0.000076 -0.000056
                                -0.000053  0.000123  0.000002 -0.000014  0.000000  0.000009 -0.000001 -0.000000 -0.000013 -0.000001
                                 0.000004 -0.000000 -0.000001 -0.000002 -0.000009 -0.000000  0.000001

   3.2   2    -7.4464  -83.0004  0.000000  0.000000  0.000000  0.000000  0.000001  0.000003  0.000011  0.000030  0.000071  0.000127
                                 0.000141  0.000007 -0.000009 -0.000226 -0.000061 -0.000339 -0.000128 -0.000204 -0.000001  0.000002
                                -0.000035 -0.000037  0.000028 -0.000039  0.000041  0.000031  0.000002 -0.000001  0.000165  0.001477
                                 0.008685  0.034271  0.100320  0.220811 -0.003556  0.327320  0.332164  0.203866 -0.036438  0.111711
                                -0.108514  0.078490 -0.004965  0.000472 -0.000196  0.000055 -0.000001  0.000001  0.000225 -0.000000
                                -0.000243 -0.000002  0.000099 -0.000000 -0.000003 -0.000000  0.000065 -0.000012 -0.000002  0.000043
                                 0.000024 -0.000007  0.000004 -0.000028 -0.000070 -0.000004  0.000034

   4.2   2    -1.5408  -33.5699  0.000002  0.000008  0.000031  0.000116  0.000421  0.001452  0.004564  0.012844  0.030005  0.054616
                                 0.060899  0.009626 -0.025563 -0.093129 -0.117323 -0.017689 -0.256544  0.073786 -0.387766  0.711146
                                -0.201670  0.597004  0.294280  0.036328  0.043935 -0.000440  0.001123 -0.000286  0.000000  0.000000
                                 0.000001  0.000007  0.000018  0.000084 -0.000064  0.000061 -0.000051  0.000452 -0.002313  0.008884
                                -0.028648  0.029665 -0.009485 -0.001640 -0.002266 -0.001029 -0.000103 -0.000002 -0.000485  0.002353
                                -0.001748  0.005370 -0.003221  0.003297 -0.000171 -0.000125 -0.000173 -0.000011 -0.000836 -0.000082
                                -0.000083 -0.000052  0.000083  0.000646  0.000613 -0.000133 -0.000440

   5.2   0     0.0089   -6.3848  0.000000  0.000001  0.000004  0.000014  0.000053  0.000179  0.000576  0.001575  0.003818  0.006528
                                 0.009034 -0.028827  0.046482 -0.106882  0.234579 -0.480680  0.513797 -0.499919  1.113861 -1.450820
                                 0.867993 -0.248275  0.517898 -0.441578  0.078974 -0.379077  0.033648 -0.795977 -0.000005 -0.000045
                                -0.000265 -0.001051 -0.003101 -0.006945  0.000218 -0.009954 -0.009012 -0.001046  0.013038 -0.014562
                                 0.120015 -0.119801  0.073395  0.046570  0.019543  0.074338  0.025737  0.131096  0.000623 -0.000318
                                 0.002090 -0.002423  0.002010 -0.006176 -0.003852 -0.003753 -0.000118  0.000175 -0.000460  0.000577
                                 0.002000  0.000582 -0.000231 -0.003108  0.003096  0.000014  0.000133

   6.2   0     0.0366   -7.8019  0.000000  0.000001  0.000002  0.000009  0.000031  0.000117  0.000327  0.001052  0.002059  0.005015
                                 0.000430  0.088856 -0.148379  0.272442 -0.744968  1.409558 -1.636419  1.515280 -3.487157  4.669557
                                -2.688449  1.092109 -1.335866  1.339905 -0.509194  0.336258 -1.116377  1.142967 -0.000015 -0.000134
                                -0.000801 -0.003133 -0.009437 -0.018733 -0.002063 -0.028443 -0.029819  0.015290 -0.081494  0.304912
                                -0.686920  0.626385  0.016208  0.241907 -0.056611  0.264175 -0.075216  0.528709  0.000374 -0.000177
                                -0.000684 -0.001435 -0.004558 -0.003554 -0.023785 -0.002685 -0.000184  0.000515 -0.000169  0.001520
                                 0.000960  0.001139  0.001514  0.003507  0.012859  0.000031 -0.002706

                                   1 2py     1 2py     1 2py     1 2py     1 2py     1 2py     1 2py     1 2py     1 2py     1 2py  
                                   1 2py     1 2py     1 2py     1 2py     1 2py     1 2py     1 2py     1 2py     1 2py     1 2py  
                                   1 2py     1 2py     1 2py     1 2py     1 2py     1 2py     1 2py     1 2py     1 3d1-    1 3d1- 
                                   1 3d1-    1 3d1-    1 3d1-    1 3d1-    1 3d1-    1 3d1-    1 3d1-    1 3d1-    1 3d1-    1 3d1- 
                                   1 3d1-    1 3d1-    1 3d1-    1 3d1-    1 3d1-    1 3d1-    1 3d1-    1 3d1-    1 4f1-    1 4f3- 
                                   1 4f1-    1 4f3-    1 4f1-    1 4f3-    1 4f1-    1 4f3-    1 5g1-    1 5g3-    1 5g1-    1 5g3- 
                                   1 5g1-    1 5g3-    2 2py     2 2py     2 2py     2 3d1-    2 3d1- 

   1.3   2   -84.3907 -284.1682  0.000014  0.000054  0.000210  0.000776  0.002803  0.009566  0.029702  0.080893  0.181360  0.307736
                                 0.343371  0.167550  0.035649 -0.004514  0.086120 -0.112476  0.094184 -0.051925  0.061301 -0.059641
                                 0.022474 -0.004450  0.001774 -0.001216  0.000123 -0.000028  0.000009 -0.000003  0.000000  0.000000
                                 0.000000  0.000003  0.000015  0.000023 -0.000004  0.000007 -0.000000 -0.000001 -0.000001 -0.000001
                                 0.000006 -0.000007  0.000002  0.000000  0.000000 -0.000000 -0.000000  0.000000  0.000004  0.000009
                                 0.000001  0.000002  0.000000  0.000001 -0.000000 -0.000000  0.000000 -0.000000 -0.000000 -0.000000
                                -0.000000 -0.000000  0.000000  0.000000  0.000001 -0.000000 -0.000000

   2.3   2   -13.2306  -93.3914 -0.000006 -0.000023 -0.000090 -0.000333 -0.001207 -0.004151 -0.013039 -0.036482 -0.084878 -0.152453
                                -0.171671 -0.014178  0.012443  0.284539  0.034067  0.431031  0.031051  0.290439 -0.052712  0.123129
                                -0.037739  0.011409 -0.004059  0.002936 -0.000333  0.000076 -0.000026  0.000007  0.000000  0.000001
                                 0.000007  0.000026  0.000070  0.000169  0.000012  0.000313  0.000330  0.000201 -0.000079  0.000129
                                -0.000187  0.000137 -0.000020 -0.000002 -0.000003  0.000005  0.000001 -0.000000  0.000076  0.000056
                                -0.000053 -0.000123  0.000002  0.000014  0.000000 -0.000009 -0.000001  0.000000 -0.000013  0.000001
                                 0.000004  0.000000 -0.000001 -0.000002 -0.000009 -0.000000  0.000001

   3.3   2    -7.4464  -83.0004  0.000000  0.000000  0.000000  0.000000  0.000001  0.000003  0.000011  0.000030  0.000071  0.000127
                                 0.000141  0.000007 -0.000009 -0.000226 -0.000061 -0.000339 -0.000128 -0.000204 -0.000001  0.000002
                                -0.000035 -0.000037  0.000028 -0.000039  0.000041  0.000031  0.000002 -0.000001  0.000165  0.001477
                                 0.008685  0.034271  0.100320  0.220811 -0.003556  0.327320  0.332164  0.203866 -0.036438  0.111711
                                -0.108514  0.078490 -0.004965  0.000472 -0.000196  0.000055 -0.000001  0.000001  0.000225  0.000000
                                -0.000243  0.000002  0.000099  0.000000 -0.000003  0.000000  0.000065  0.000012 -0.000002 -0.000043
                                 0.000024  0.000007  0.000004 -0.000028 -0.000070 -0.000004  0.000034

   4.3   2    -1.5408  -33.5699  0.000002  0.000008  0.000031  0.000116  0.000421  0.001452  0.004564  0.012844  0.030005  0.054616
                                 0.060899  0.009626 -0.025563 -0.093130 -0.117322 -0.017690 -0.256543  0.073785 -0.387765  0.711144
                                -0.201669  0.597004  0.294280  0.036327  0.043935 -0.000440  0.001123 -0.000286  0.000000  0.000000
                                 0.000001  0.000007  0.000018  0.000084 -0.000064  0.000061 -0.000051  0.000452 -0.002313  0.008884
                                -0.028648  0.029665 -0.009485 -0.001640 -0.002266 -0.001029 -0.000103 -0.000002 -0.000485 -0.002353
                                -0.001748 -0.005370 -0.003221 -0.003297 -0.000171  0.000125 -0.000173  0.000011 -0.000836  0.000082
                                -0.000083  0.000052  0.000083  0.000646  0.000613 -0.000133 -0.000440

   5.3   0     0.0089   -6.3848  0.000000  0.000001  0.000004  0.000014  0.000053  0.000179  0.000576  0.001575  0.003818  0.006528
                                 0.009034 -0.028827  0.046481 -0.106881  0.234578 -0.480679  0.513797 -0.499919  1.113860 -1.450819
                                 0.867993 -0.248275  0.517898 -0.441578  0.078974 -0.379077  0.033648 -0.795977 -0.000005 -0.000045
                                -0.000265 -0.001051 -0.003101 -0.006945  0.000218 -0.009954 -0.009012 -0.001046  0.013038 -0.014562
                                 0.120015 -0.119801  0.073395  0.046570  0.019543  0.074338  0.025737  0.131096  0.000623  0.000318
                                 0.002090  0.002423  0.002010  0.006176 -0.003852  0.003753 -0.000118 -0.000175 -0.000460 -0.000577
                                 0.002000 -0.000582 -0.000231 -0.003108  0.003096  0.000014  0.000133

   6.3   0     0.0366   -7.8019  0.000000  0.000001  0.000002  0.000009  0.000031  0.000117  0.000327  0.001052  0.002059  0.005015
                                 0.000430  0.088856 -0.148379  0.272441 -0.744967  1.409557 -1.636417  1.515279 -3.487154  4.669554
                                -2.688447  1.092109 -1.335866  1.339905 -0.509194  0.336258 -1.116377  1.142967 -0.000015 -0.000134
                                -0.000801 -0.003133 -0.009437 -0.018733 -0.002063 -0.028443 -0.029819  0.015290 -0.081494  0.304912
                                -0.686920  0.626385  0.016208  0.241907 -0.056611  0.264175 -0.075216  0.528709  0.000374  0.000177
                                -0.000684  0.001435 -0.004558  0.003554 -0.023785  0.002685 -0.000184 -0.000515 -0.000169 -0.001520
                                 0.000960 -0.001139  0.001514  0.003507  0.012859  0.000031 -0.002706

                                   1 3d2-    1 3d2-    1 3d2-    1 3d2-    1 3d2-    1 3d2-    1 3d2-    1 3d2-    1 3d2-    1 3d2- 
                                   1 3d2-    1 3d2-    1 3d2-    1 3d2-    1 3d2-    1 3d2-    1 3d2-    1 3d2-    1 3d2-    1 3d2- 
                                   1 4f2-    1 4f2-    1 4f2-    1 4f2-    1 5g2-    1 5g4-    1 5g2-    1 5g4-    1 5g2-    1 5g4- 
                                   2 3d2-    2 3d2- 

   1.4   2    -7.4473  -83.0016  0.000165  0.001477  0.008685  0.034271  0.100320  0.220788 -0.003534  0.327299  0.332232  0.204064
                                -0.036820  0.112065 -0.109338  0.079019 -0.005039  0.000539 -0.000248  0.000036 -0.000012  0.000002
                                 0.000136 -0.000088  0.000026 -0.000009  0.000063 -0.000000 -0.000032  0.000000  0.000008 -0.000000
                                 0.000001 -0.000006

   2.4   0     0.0402   -6.0780 -0.000012 -0.000100 -0.000629 -0.002324 -0.007585 -0.007882 -0.009807 -0.017368 -0.031187  0.067153
                                -0.426843  1.286406 -3.690251  3.460250 -0.612297  0.459361 -0.334275  0.429120 -0.386340  1.063460
                                 0.000062 -0.001512 -0.003148 -0.018585 -0.000040 -0.000000  0.000061 -0.000000  0.000269 -0.000000
                                 0.000311 -0.000975

   3.4   0     0.0653  -13.8454  0.000025  0.000242  0.001349  0.005661  0.015377  0.051132 -0.020049  0.062108  0.027752  0.132762
                                -0.907527  2.503570 -7.935316  7.517019 -1.836378  0.372081 -0.745347  0.208090 -0.841023  0.827199
                                 0.000078  0.002337  0.010650  0.021071  0.000065  0.000000 -0.000297  0.000000 -0.000156  0.000000
                                -0.000335  0.000938

 HOMO     12.1    -0.343698 =      -9.3525eV
 LUMO     13.1     0.004731 =       0.1287eV
 LUMO-HOMO         0.348428 =       9.4812eV


 **********************************************************************************************************************************
 DATASETS  * FILE   NREC   LENGTH (MB)   RECORD NAMES
              1      22       21.76       500      610      700      900      950      970     1000      129      960     1700   
                                          VAR    BASINP    GEOM    SYMINP    ZMAT    AOBASIS   BASIS     P2S    ABASIS    OPER   
                                         1101     1401     1411     1412     1650     1100     1400     1410     1200     1210   
                                          SR      EKINR    POTR     PVPR    MOLCAS      S      EKIN      POT      H0       H01  
                                         1080     1600   
                                         AOSYM     SMH  

              2       4        3.56       700     1000      520     2100   
                                         GEOM     BASIS   MCVARS     RHF  

 PROGRAMS   *        TOTAL       RHF       INT
 CPU TIMES  *        63.70      3.60     59.88
 REAL TIME  *        67.80 SEC
 DISK USED  *         2.95 GB      
 SF USED    *         0.11 MB      
 GA USED    *         0.00 MB       (max)       0.00 MB       (current)
 **********************************************************************************************************************************
 SETTING SCF            =     -3596.77676174  AU                              
 SETTING _CC_NORM_MAX   =         2.00000000                                  


 PROGRAM * CCSD (Restricted open-shell coupled cluster)     Authors: C. Hampel, H.-J. Werner, 1991, M. Deegan, P.J. Knowles, 1992


 Convergence thresholds:  THRVAR = 1.00D-08  THRDEN = 1.00D-06

 CCSD(T)     terms to be evaluated (factor= 1.000)


 Number of core orbitals:          14 (   7   3   3   1 )
 Number of closed-shell orbitals:   6 (   4   1   1   0 )
 Number of active  orbitals:        1 (   1   0   0   0 )
 Number of external orbitals:     274 ( 117  63  63  31 )

 Memory could be reduced to 77.55 Mwords without degradation in triples

 Number of N-1 electron functions:              13
 Number of N-2 electron functions:              78
 Number of singly external CSFs:              1314
 Number of doubly external CSFs:           1235150
 Total number of CSFs:                     1236464

 Molecular orbitals read from record     2100.2  Type=RHF/CANONICAL (state 1.1)

 Integral transformation finished. Total CPU:   2.08 sec, npass=  1  Memory used:   7.65 MW

 Starting RMP2 calculation

 Wavefunction is spin-projected

 ITER.      SQ.NORM     CORR.ENERGY   TOTAL ENERGY   ENERGY CHANGE        DEN1      VAR(S)    VAR(P)  DIIS     TIME
   1      1.12245843    -0.36850565 -3597.14526739    -0.36850565    -0.00181011  0.17D-04  0.14D-02  1  1     2.34
   2      1.12639512    -0.37049281 -3597.14725455    -0.00198716    -0.00002491  0.27D-06  0.31D-04  2  2     2.47
   3      1.12699757    -0.37066652 -3597.14742827    -0.00017371    -0.00000017  0.10D-08  0.20D-06  3  3     2.86
   4      1.12702443    -0.37067038 -3597.14743213    -0.00000386    -0.00000000  0.59D-10  0.14D-08  4  4     3.26
   5      1.12702494    -0.37067042 -3597.14743216    -0.00000003    -0.00000000  0.52D-11  0.11D-10  5  5     3.61

 Norm of t1 vector:      0.03079645      S-energy:    -0.00212918      T1 diagnostic:  0.00004106
 Norm of t2 vector:      0.35507255      P-energy:    -0.36854124
                                         Alpha-Beta:  -0.27864640
                                         Alpha-Alpha: -0.05129863
                                         Beta-Beta:   -0.03859621

 Spin contamination <S**2-Sz**2-Sz>     0.00000000
  Reference energy                  -3596.776761743843
  RHF-RMP2 correlation energy          -0.370670415056
 !RHF-RMP2 energy                   -3597.147432158899
 (NB above energy spin projected)

 Starting RCCSD calculation

 ITER.      SQ.NORM     CORR.ENERGY   TOTAL ENERGY   ENERGY CHANGE        DEN1      VAR(S)    VAR(P)  DIIS     TIME
   1      1.13407796    -0.37719201 -3597.15395376    -0.37719201    -0.01028207  0.29D-02  0.42D-02  1  1     4.74
   2      1.15762597    -0.38786967 -3597.16463141    -0.01067766    -0.00144473  0.48D-03  0.95D-03  2  2     6.07
   3      1.17423965    -0.39110803 -3597.16786977    -0.00323836    -0.00037057  0.28D-03  0.19D-03  3  3     7.25
   4      1.18802821    -0.39297385 -3597.16973559    -0.00186582    -0.00008691  0.69D-04  0.41D-04  4  4     8.54
   5      1.19611798    -0.39361147 -3597.17037321    -0.00063762    -0.00002243  0.22D-04  0.91D-05  5  5     9.63
   6      1.19925195    -0.39375497 -3597.17051672    -0.00014351    -0.00000738  0.81D-05  0.31D-05  6  6    11.39
   7      1.20073975    -0.39379893 -3597.17056068    -0.00004396    -0.00000268  0.33D-05  0.96D-06  7  7    12.60
   8      1.20147016    -0.39380756 -3597.17056931    -0.00000863    -0.00000109  0.15D-05  0.35D-06  8  8    14.39
   9      1.20194123    -0.39381149 -3597.17057323    -0.00000393    -0.00000050  0.65D-06  0.17D-06  9  9    16.15
  10      1.20223503    -0.39381311 -3597.17057485    -0.00000162    -0.00000023  0.28D-06  0.98D-07 10 10    17.77
  11      1.20242668    -0.39381406 -3597.17057581    -0.00000095    -0.00000012  0.11D-06  0.63D-07 11 11    19.87
  12      1.20252473    -0.39381403 -3597.17057577     0.00000004    -0.00000006  0.44D-07  0.35D-07 12 12    22.21
  13      1.20258327    -0.39381371 -3597.17057545     0.00000032    -0.00000002  0.16D-07  0.17D-07 13 13    24.31
  14      1.20261460    -0.39381328 -3597.17057503     0.00000042    -0.00000001  0.65D-08  0.90D-08 14 14    26.41
  15      1.20262397    -0.39381285 -3597.17057459     0.00000043    -0.00000001  0.34D-08  0.53D-08 15 15    28.69

 Norm of t1 vector:      0.16610110      S-energy:    -0.00244760      T1 diagnostic:  0.03072380
                                                                       D1 diagnostic:  0.10032647
 Norm of t2 vector:      0.41837112      P-energy:    -0.39136525
                                         Alpha-Beta:  -0.30605368
                                         Alpha-Alpha: -0.04883341
                                         Beta-Beta:   -0.03647816

 Singles amplitudes (print threshold =  0.500E-01):

         I         SYM. A    A   T(IA) [Alpha-Alpha]

         4         1         2      0.09234892

 Doubles amplitudes (print threshold =  0.500E-01):

         I         J         SYM. A    SYM. B    A         B      T(IJ, AB) [Alpha-Beta]

         4         4         1         1         2         2     -0.05385413
         4         4         2         2         1         1     -0.05067535
         4         4         3         3         1         1     -0.05067535
         4         4         4         4         2         2     -0.06052097

 Spin contamination <S**2-Sz**2-Sz>     0.00000000

 Memory could be reduced to 79.97 Mwords without degradation in triples
 

  Correlated core orbitals:             8.1       9.1       4.2       4.3
  Orbital energies:                    -2.5781   -1.5521   -1.5790   -1.5790
 
  RCCSD core-core energy               -0.198593884399
  RCCSD core-valence energy            -0.103761040482
  RCCSD valence correlation energy     -0.091457924086
 

 RESULTS
 =======

  Reference energy                  -3596.776761743843
  RCCSD singles energy                 -0.002447602188
  RCCSD pair energy                    -0.391365246780
  RCCSD correlation energy             -0.393812848968
  Triples (T) contribution             -0.017902252625
  Total correlation energy             -0.411715101593
 
  RHF-RCCSD energy                  -3597.170574592811
  RHF-RCCSD[T] energy               -3597.189406916230
  RHF-RCCSD-T energy                -3597.188293895468
 !RHF-RCCSD(T) energy               -3597.188476845436

 Program statistics:

 Available memory in ccsd:               999999438
 Min. memory needed in ccsd:               4025365
 Max. memory used in ccsd:                 5454294
 Max. memory used in cckext:               5318751 (15 integral passes)
 Max. memory used in cckint:               7654914 ( 1 integral passes)



 **********************************************************************************************************************************
 DATASETS  * FILE   NREC   LENGTH (MB)   RECORD NAMES
              1      22       21.76       500      610      700      900      950      970     1000      129      960     1700   
                                          VAR    BASINP    GEOM    SYMINP    ZMAT    AOBASIS   BASIS     P2S    ABASIS    OPER   
                                         1101     1401     1411     1412     1650     1100     1400     1410     1200     1210   
                                          SR      EKINR    POTR     PVPR    MOLCAS      S      EKIN      POT      H0       H01  
                                         1080     1600   
                                         AOSYM     SMH  

              2       4        3.56       700     1000      520     2100   
                                         GEOM     BASIS   MCVARS     RHF  

 PROGRAMS   *        TOTAL  RCCSD(T)       RHF       INT
 CPU TIMES  *       104.55     40.81      3.60     59.88
 REAL TIME  *       153.54 SEC
 DISK USED  *         7.14 GB      
 SF USED    *         1.07 GB      
 GA USED    *         0.00 MB       (max)       0.00 MB       (current)
 **********************************************************************************************************************************
 SETTING CCSD           =     -3597.18847685  AU                              
 SETTING BIND           =        -0.08147300  AU                              
 Output type csv         
                                                                                                                                                                                                                                                                

  2.10,SCF,CCSD,BIND
   2.1,   -3596.776762,   -3597.188477,   -0.08147300
                                                  

 RCCSD(T)/USERDEF energy=  -3597.188476845436

        RCCSD(T)        RHF-SCF 
  -3597.18847685  -3596.77676174
 **********************************************************************************************************************************
 Molpro calculation terminated
 Variable memory released
