<?xml version="1.0"?>
<molpro xmlns="http://www.molpro.net/schema/molpro-output"
  xmlns:xsd="http://www.w3.org/1999/XMLSchema"
  xmlns:cml="http://www.xml-cml.org/schema"
  xmlns:stm="http://www.xml-cml.org/schema"
  xmlns:xhtml="http://www.w3.org/1999/xhtml">
 <!--

 Nodes     nprocs
 nid01071     5
 Number of processes for MPI-2 version of Molpro:   nprocs(total)=    6   nprocs(compute)=    5   nprocs(helper)=    1

 Using customized tuning parameters: mindgm=7; mindgv=16; mindgc=1; mindgr=1; noblas=0; minvec=7
 default implementation of scratch files=sf

 --><job>
  <!--

 Variables initialized (889), CPU time= 0.02 sec
 Commands  initialized (702), CPU time= 0.01 sec, 572 directives.
 Default parameters read. Elapsed time= 0.12 sec

 Checking input...
 Passed
1


                                         ***  PROGRAM SYSTEM MOLPRO  ***
                                       Copyright, TTI GmbH Stuttgart, 2015
                                    Version 2015.1 linked Dec 29 2018 15:55:43


 **********************************************************************************************************************************
 LABEL *   Calculation for Gd atom, singlet and triplet
  64 bit mpp version                                                                     DATE: 12-May-23          TIME: 06:32:01
 **********************************************************************************************************************************

 SHA1:             19cd028119e0e09f93f0674bd8af7968d9b3eff6
 **********************************************************************************************************************************
  -->
  <!--

 THRESHOLDS:

 ZERO    =  1.00D-12  ONEINT  =  1.00D-12  TWOINT  =  1.00D-15  PREFAC  =  1.00D-14  LOCALI  =  1.00D-09  EORDER  =  1.00D-04
 ENERGY  =  0.00D+00  ETEST   =  0.00D+00  EDENS   =  0.00D+00  THRDEDEF=  1.00D-06  GRADIENT=  1.00D-02  STEP    =  1.00D-03
 ORBITAL =  1.00D-05  CIVEC   =  1.00D-05  COEFF   =  1.00D-04  PRINTCI =  5.00D-02  PUNCHCI =  9.90D+01  OPTGRAD =  3.00D-04
 OPTENERG=  1.00D-06  OPTSTEP =  3.00D-04  THRGRAD =  1.00D-10  COMPRESS=  1.00D-11  VARMIN  =  1.00D-07  VARMAX  =  1.00D-03
 THRDOUB =  0.00D+00  THRDIV  =  1.00D-05  THRRED  =  1.00D-07  THRPSP  =  1.00D+00  THRDC   =  1.00D-10  THRCS   =  1.00D-10
 THRNRM  =  1.00D-08  THREQ   =  0.00D+00  THRDE   =  1.00D+00  THRREF  =  1.00D-05  SPARFAC =  1.00D+00  THRDLP  =  1.00D-07
 THRDIA  =  1.00D-10  THRDLS  =  1.00D-07  THRGPS  =  0.00D+00  THRKEX  =  0.00D+00  THRDIS  =  2.00D-01  THRVAR  =  1.00D-10
 THRLOC  =  1.00D-06  THRGAP  =  1.00D-06  THRLOCT = -1.00D+00  THRGAPT = -1.00D+00  THRORB  =  1.00D-06  THRMLTP =  0.00D+00
 THRCPQCI=  1.00D-10  KEXTA   =  0.00D+00  THRCOARS=  0.00D+00  SYMTOL  =  1.00D-06  GRADTOL =  1.00D-06  THROVL  =  1.00D-08
 THRORTH =  1.00D-08  GRID    =  1.00D-06  GRIDMAX =  1.00D-03  DTMAX   =  0.00D+00  THROCCDE=  1.00D-01  THROCCDE=  1.00D-01



 THRESHOLDS:

 ZERO    =  1.00D-12  ONEINT  =  1.00D-15  TWOINT  =  1.00D-15  PREFAC  =  1.00D-14  LOCALI  =  1.00D-09  EORDER  =  1.00D-04
 ENERGY  =  0.00D+00  ETEST   =  0.00D+00  EDENS   =  0.00D+00  THRDEDEF=  1.00D-06  GRADIENT=  1.00D-02  STEP    =  1.00D-03
 ORBITAL =  1.00D-05  CIVEC   =  1.00D-05  COEFF   =  1.00D-04  PRINTCI =  5.00D-02  PUNCHCI =  9.90D+01  OPTGRAD =  3.00D-04
 OPTENERG=  1.00D-06  OPTSTEP =  3.00D-04  THRGRAD =  1.00D-10  COMPRESS=  1.00D-11  VARMIN  =  1.00D-07  VARMAX  =  1.00D-03
 THRDOUB =  0.00D+00  THRDIV  =  1.00D-05  THRRED  =  1.00D-07  THRPSP  =  1.00D+00  THRDC   =  1.00D-10  THRCS   =  1.00D-10
 THRNRM  =  1.00D-08  THREQ   =  0.00D+00  THRDE   =  1.00D+00  THRREF  =  1.00D-05  SPARFAC =  1.00D+00  THRDLP  =  1.00D-07
 THRDIA  =  1.00D-10  THRDLS  =  1.00D-07  THRGPS  =  0.00D+00  THRKEX  =  0.00D+00  THRDIS  =  2.00D-01  THRVAR  =  1.00D-10
 THRLOC  =  1.00D-06  THRGAP  =  1.00D-06  THRLOCT = -1.00D+00  THRGAPT = -1.00D+00  THRORB  =  1.00D-06  THRMLTP =  0.00D+00
 THRCPQCI=  1.00D-10  KEXTA   =  0.00D+00  THRCOARS=  0.00D+00  SYMTOL  =  1.00D-06  GRADTOL =  1.00D-06  THROVL  =  1.00D-08
 THRORTH =  1.00D-08  GRID    =  1.00D-06  GRIDMAX =  1.00D-03  DTMAX   =  0.00D+00  THROCCDE=  1.00D-01  THROCCDE=  1.00D-01


 SETTING DKROLL         =         1.00000000
 SETTING DKHO           =        10.00000000
 SETTING DKHP           =         4.00000000

Geometry recognized as XYZ


 Variable memory set to 2000000000 words,  buffer space   230000 words

 SETTING BASIS          =    USERDEF

 DO I                   =        17.00000000

 Running procedure=IIIEF2
  --><jobstep command="RHF-SCF" commandset="SCFPRO">
   <!--


 Recomputing integrals since basis changed


 Using spherical harmonics



 PROGRAM * SEWARD (Integral evaluation for generally contracted gaussian basis sets)     Author: Roland Lindh, 1990

 Geometry written to block  1 of record 700

 Orientation using atomic masses
 Molecule type: Atom
 Symmetry elements: X,Y,Z
 Rotational constants:       0.0000000      0.0000000      0.0000000 GHz  (calculated with average atomic masses)

 Point group  D2h


   --><cml:molecule>
    <cml:symmetry pointGroup="D2h"/>
    <cml:atomArray>
     <cml:atom id="a1" elementType="Lu" x3="0.0" y3="0.0" z3="0.0"/>
    </cml:atomArray>
    <cml:bondArray>
    </cml:bondArray>
   </cml:molecule><!--

 ATOMIC COORDINATES

 NR  ATOM    CHARGE       X              Y              Z

   1  LU     71.00    0.000000000    0.000000000    0.000000000

 NUCLEAR CHARGE:                   71
 NUMBER OF PRIMITIVE AOS:         463
 NUMBER OF SYMMETRY AOS:          341
 NUMBER OF CONTRACTIONS:          341   (  77Ag  +  54B3u +  54B2u +  28B1g +  54B1u +  28B2g +  28B3g +  18Au  )
 NUMBER OF CORE ORBITALS:          23   (   8Ag  +   3B3u +   3B2u +   2B1g +   3B1u +   2B2g +   2B3g +   0Au  )
 NUMBER OF VALENCE ORBITALS:       17   (   4Ag  +   3B3u +   3B2u +   1B1g +   3B1u +   1B2g +   1B3g +   1Au  )


 NUCLEAR REPULSION ENERGY    0.00000000

 One-electron integrals computed with SEWARD

 10nd-order Douglas-Kroll-Hess method activated. McWeeny DKH parametrization is used.

 Computing Douglas-Kroll / X2C integrals

 AO integral compression algorithm  1   Integral accuracy      1.0D-15

     1449.132 MB (compressed) written to integral file ( 50.0%)

     Node minimum: 217.317 MB, node maximum: 355.467 MB


 NUMBER OF SORTED TWO-ELECTRON INTEGRALS:   43660745.     BUFFER LENGTH:  32768
 NUMBER OF SEGMENTS:   2  SEGMENT LENGTH:   31988333      RECORD LENGTH: 524288

 Memory used in sort:      32.55 MW

 SORT1 READ   362089039. AND WROTE    27175390. INTEGRALS IN     78 RECORDS. CPU TIME:     8.00 SEC, REAL TIME:     8.44 SEC
 SORT2 READ   135657947. AND WROTE   217701552. INTEGRALS IN   4985 RECORDS. CPU TIME:     0.92 SEC, REAL TIME:     1.40 SEC

 Node minimum:    43453828.  Node maximum:    43660745. integrals

 OPERATOR DM      FOR CENTER  0  COORDINATES:    0.000000    0.000000    0.000000

 EXTRA SYMMETRY OF AOS IN SYMMETRY 1:   1 1 1 1 1 1 1 1 1 1   1 1 1 1 1 1 1 1 1 1   1 1 1 1 1 1 1 2 3 2   3 2 3 2 3 2 3 2 3 2
                                        3 2 3 2 3 2 3 2 3 2   3 2 3 2 3 2 3 2 3 4   5 6 4 5 6 4 5 6 4 5   6 4 5 6 4 5 6
 EXTRA SYMMETRY OF AOS IN SYMMETRY 2:   1 1 1 1 1 1 1 1 1 1   1 1 1 1 1 1 1 1 1 1   1 1 2 3 2 3 2 3 2 3   2 3 2 3 2 3 2 3 2 3
                                        2 3 4 5 6 4 5 6 4 5   6 4 5 6
 EXTRA SYMMETRY OF AOS IN SYMMETRY 3:   1 1 1 1 1 1 1 1 1 1   1 1 1 1 1 1 1 1 1 1   1 1 2 3 2 3 2 3 2 3   2 3 2 3 2 3 2 3 2 3
                                        2 3 4 5 6 4 5 6 4 5   6 4 5 6
 EXTRA SYMMETRY OF AOS IN SYMMETRY 4:   1 1 1 1 1 1 1 1 1 1   1 1 1 1 1 1 2 3 2 3   2 3 2 3 2 3 2 3
 EXTRA SYMMETRY OF AOS IN SYMMETRY 5:   1 1 1 1 1 1 1 1 1 1   1 1 1 1 1 1 1 1 1 1   1 1 2 3 2 3 2 3 2 3   2 3 2 3 2 3 2 3 2 3
                                        2 3 4 5 6 4 5 6 4 5   6 4 5 6
 EXTRA SYMMETRY OF AOS IN SYMMETRY 6:   1 1 1 1 1 1 1 1 1 1   1 1 1 1 1 1 2 3 2 3   2 3 2 3 2 3 2 3
 EXTRA SYMMETRY OF AOS IN SYMMETRY 7:   1 1 1 1 1 1 1 1 1 1   1 1 1 1 1 1 2 3 2 3   2 3 2 3 2 3 2 3
 EXTRA SYMMETRY OF AOS IN SYMMETRY 8:   1 1 1 1 1 1 1 1 1 1   2 3 2 3 2 3 2 3

 Eigenvalues of metric

         1 0.198E-06 0.285E-05 0.880E-05 0.110E-03 0.147E-03 0.147E-03 0.226E-03 0.428E-03
         2 0.115E-06 0.864E-04 0.280E-03 0.685E-03 0.202E-02 0.951E-02 0.162E-01 0.364E-01
         3 0.115E-06 0.864E-04 0.280E-03 0.685E-03 0.202E-02 0.951E-02 0.162E-01 0.364E-01
         4 0.147E-03 0.324E-02 0.233E-01 0.406E-01 0.866E-01 0.997E-01 0.997E-01 0.141E+00
         5 0.115E-06 0.864E-04 0.280E-03 0.685E-03 0.202E-02 0.951E-02 0.162E-01 0.364E-01
         6 0.147E-03 0.324E-02 0.233E-01 0.406E-01 0.866E-01 0.997E-01 0.997E-01 0.141E+00
         7 0.147E-03 0.324E-02 0.233E-01 0.406E-01 0.866E-01 0.997E-01 0.997E-01 0.141E+00
         8 0.437E-01 0.880E-01 0.207E+00 0.366E+00 0.366E+00 0.370E+00 0.551E+00 0.646E+00


 **********************************************************************************************************************************
 DATASETS  * FILE   NREC   LENGTH (MB)   RECORD NAMES
              1      22       21.15       500      610      700      900      950      970     1000      129      960     1700
                                          VAR    BASINP    GEOM    SYMINP    ZMAT    AOBASIS   BASIS     P2S    ABASIS    OPER
                                         1101     1401     1411     1412     1650     1100     1400     1410     1200     1210
                                          SR      EKINR    POTR     PVPR    MOLCAS      S      EKIN      POT      H0       H01
                                         1080     1600
                                         AOSYM     SMH

 PROGRAMS   *        TOTAL       INT
 CPU TIMES  *        38.66     38.31
 REAL TIME  *        41.20 SEC
 DISK USED  *         3.06 GB
 GA USED    *         0.00 MB       (max)       0.00 MB       (current)
 **********************************************************************************************************************************


 PROGRAM * RHF-SCF (OPEN SHELL)       Authors: W. Meyer, H.-J. Werner


 NUMBER OF ELECTRONS:      36+   34-    SPACE SYMMETRY=4    SPIN SYMMETRY: Triplet
 CONVERGENCE THRESHOLDS:    1.00E-05 (Density)    1.42E-07 (Energy)
 MAX. NUMBER OF ITERATIONS:       60
 INTERPOLATION TYPE:            DIIS
 INTERPOLATION STEPS:              2 (START)      1 (STEP)
 LEVEL SHIFTS:                 -0.60 (CLOSED) -0.30 (OPEN)

 Number of closed-shell orbitals:   34 (   9   6   6   2   6   2   2   1 )
 Number of open-shell orbitals:      2 (   0   1   1   0   0   0   0   0 )



 Extra symmetries of mos in symmetry 2:   1   1   1   1   3   2   3   2
 Extra symmetries of mos in symmetry 3:   1   1   1   1   3   2   3   2
 Extra symmetries of mos in symmetry 5:   1   1   1   1   3   2   3   2
 Orbital guess generated from atomic densities. Full valence occupancy:   12   6   6   3   6   3   3   1


 Molecular orbital dump at record        4202.2

 ITERATION    DDIFF          GRAD             ENERGY        2-EL.EN.            DIPOLE MOMENTS         DIIS   ORB.
    1      0.000D+00      0.000D+00    -14558.26085194  10724.634929    0.00000    0.00000    0.00000    0    start
    2      0.000D+00      0.160D-01    -14558.36033738  10836.299308    0.00000    0.00000    0.00000    1    diag,B
    3      0.343D-01      0.212D-01    -14558.44606779  10791.685270    0.00000    0.00000    0.00000    2    diag,B
    4      0.189D-01      0.260D-02    -14558.46463923  10788.008810    0.00000    0.00000    0.00000    3    diag,B
    5      0.365D-02      0.856D-03    -14558.47359212  10791.446185    0.00000    0.00000    0.00000    4    diag,B
    6      0.209D-02      0.392D-03    -14558.47775829  10793.575532    0.00000    0.00000    0.00000    5    diag,B
    7      0.156D-02      0.190D-03    -14558.47891499  10795.083161    0.00000    0.00000    0.00000    6    fixocc
    8      0.120D-02      0.301D-04    -14558.47892612  10795.200618    0.00000    0.00000    0.00000    7    diag,B
    9      0.124D-03      0.413D-05    -14558.47892617  10795.206943    0.00000    0.00000    0.00000    8    diag,B
   10      0.119D-04      0.112D-05    -14558.47892618  10795.206251    0.00000    0.00000    0.00000    9    orth
   11      0.421D-05      0.284D-06    -14558.47892618  10795.206614    0.00000    0.00000    0.00000    0    orth

 Final alpha occupancy:   9   7   7   2   6   2   2   1
 Final beta  occupancy:   9   6   6   2   6   2   2   1

 !RHF STATE 1.4 Energy               -14558.4789261764
   --><property name="Energy" method="RHF" principal="true" stateSymmetry="4" stateNumber="1"
     value="-14558.4789261764"/><!--
 Nuclear energy                         0.00000000
 One-electron energy               -19956.08223320
 Two-electron energy                 5397.60330702
 Virial quotient                       -0.73507693
 !RHF STATE 1.4 Dipole moment           0.00000000     0.00000000     0.00000000
 Dipole moment /Debye                   0.00000000     0.00000000     0.00000000
   --><property name="Dipole moment" method="RHF" principal="true" stateSymmetry="4"
     stateNumber="1" value="0.0 0.0 0.0"/><!--

 ELECTRON ORBITALS
 =================


   Orb  Occ    Energy  Couls-En    Coefficients

                                   1 1s      1 1s      1 1s      1 1s      1 1s      1 1s      1 1s      1 1s      1 1s      1 1s
                                   1 1s      1 1s      1 1s      1 1s      1 1s      1 1s      1 1s      1 1s      1 1s      1 1s
                                   1 1s      1 1s      1 1s      1 1s      1 1s      1 1s      1 1s      1 3d0     1 3d2+    1 3d0
                                   1 3d2+    1 3d0     1 3d2+    1 3d0     1 3d2+    1 3d0     1 3d2+    1 3d0     1 3d2+    1 3d0
                                   1 3d2+    1 3d0     1 3d2+    1 3d0     1 3d2+    1 3d0     1 3d2+    1 3d0     1 3d2+    1 3d0
                                   1 3d2+    1 3d0     1 3d2+    1 3d0     1 3d2+    1 3d0     1 3d2+    1 3d0     1 3d2+    1 5g0
                                   1 5g4+    1 5g2+    1 5g0     1 5g4+    1 5g2+    1 5g0     1 5g4+    1 5g2+    1 5g0     1 5g4+
                                   1 5g2+    1 5g0     1 5g4+    1 5g2+    1 5g0     1 5g4+    1 5g2+

   1.1   2 -2339.7688-5056.3995  0.001174  0.003283  0.009326  0.023782  0.058910  0.137441  0.014877  0.274166  0.517481 -0.099134
                                 0.260947 -0.045227  0.082235 -0.042156  0.545328 -0.567274  0.098971 -0.109750  0.051666 -0.011012
                                 0.005845 -0.003156  0.001219 -0.000569  0.000279 -0.000080  0.000017  0.000000 -0.000000  0.000000
                                -0.000000  0.000000  0.000000  0.000000 -0.000000  0.000000  0.000000  0.000000 -0.000000 -0.000000
                                 0.000000  0.000000 -0.000000 -0.000000  0.000000  0.000000 -0.000000  0.000000  0.000000 -0.000000
                                -0.000000  0.000000  0.000000 -0.000000 -0.000000  0.000000  0.000000 -0.000000 -0.000000 -0.000000
                                 0.000000  0.000000  0.000000 -0.000000 -0.000000 -0.000000  0.000000  0.000000  0.000000 -0.000000
                                -0.000000 -0.000000 -0.000000 -0.000000  0.000000 -0.000000 -0.000000

   2.1   2  -403.7204-1092.5733 -0.000439 -0.001232 -0.003515 -0.009094 -0.022980 -0.057149  0.001446 -0.137398 -0.081676 -0.165154
                                -0.101329  0.535401  0.020215  0.560479 -0.169008  0.247625 -0.134705  0.166817 -0.084334  0.019523
                                -0.010790  0.005946 -0.002326  0.001096 -0.000539  0.000154 -0.000033 -0.000000  0.000000  0.000000
                                -0.000000  0.000000 -0.000000  0.000000 -0.000000  0.000000 -0.000000 -0.000000  0.000000  0.000000
                                -0.000000 -0.000000  0.000000  0.000000 -0.000000 -0.000000  0.000000 -0.000000 -0.000000  0.000000
                                 0.000000  0.000000 -0.000000  0.000000 -0.000000 -0.000000 -0.000000  0.000000  0.000000  0.000000
                                -0.000000 -0.000000  0.000000  0.000000  0.000000 -0.000000 -0.000000 -0.000000 -0.000000  0.000000
                                 0.000000 -0.000000  0.000000  0.000000  0.000000  0.000000  0.000000

   3.1   2   -94.1036 -385.7124  0.000207  0.000581  0.001660  0.004309  0.010905  0.027540 -0.002595  0.069925 -0.007246  0.135527
                                 0.038742 -0.355667 -0.192193 -0.453149  4.518308 -3.729025  1.118019 -0.931531  0.445936 -0.093398
                                 0.051643 -0.028653  0.011282 -0.005360  0.002649 -0.000758  0.000165  0.000000 -0.000000  0.000000
                                -0.000000  0.000000 -0.000000  0.000001 -0.000000  0.000003 -0.000000  0.000005 -0.000000  0.000000
                                 0.000000  0.000003 -0.000000 -0.000000  0.000000  0.000000 -0.000000  0.000000  0.000000 -0.000000
                                -0.000000 -0.000000  0.000000 -0.000000  0.000000  0.000000  0.000000 -0.000000  0.000000 -0.000000
                                -0.000000 -0.000000  0.000000  0.000000  0.000000 -0.000000 -0.000000 -0.000000  0.000000  0.000000
                                 0.000000 -0.000000 -0.000000 -0.000000  0.000000 -0.000000 -0.000000

   4.1   2   -61.3495 -329.9616 -0.000000 -0.000000 -0.000000 -0.000000 -0.000000 -0.000000  0.000000 -0.000001  0.000000 -0.000002
                                -0.000000  0.000004  0.000003  0.000006 -0.000075  0.000063 -0.000017  0.000021 -0.000006  0.000002
                                -0.000002 -0.000001  0.000001 -0.000001  0.000000 -0.000000  0.000000  0.001388 -0.000000  0.011211
                                -0.000000  0.056498 -0.000000  0.184667 -0.000000  0.376890 -0.000000  0.415806 -0.000000  0.003719
                                -0.000000  0.164974 -0.000000 -0.001601  0.000000  0.009707 -0.000000 -0.002125  0.000000  0.001278
                                -0.000000 -0.000588  0.000000  0.000203 -0.000000 -0.000101  0.000000  0.000031 -0.000000  0.000002
                                 0.000000 -0.000000 -0.000001 -0.000000 -0.000000  0.000001  0.000000 -0.000000 -0.000000 -0.000000
                                -0.000000  0.000000  0.000000 -0.000000 -0.000000  0.000000 -0.000000

   5.1   2   -61.3492 -329.9614 -0.000000 -0.000000 -0.000000 -0.000000 -0.000000 -0.000000  0.000000 -0.000000  0.000000 -0.000000
                                 0.000000  0.000000  0.000000 -0.000000  0.000000 -0.000000  0.000000 -0.000000  0.000000 -0.000000
                                 0.000000 -0.000000  0.000000 -0.000000 -0.000000 -0.000000  0.000000  0.000000  0.001388  0.000000
                                 0.011211  0.000000  0.056498  0.000000  0.184667  0.000000  0.376890  0.000000  0.415805  0.000000
                                 0.003719  0.000000  0.164973 -0.000000 -0.001599  0.000000  0.009708 -0.000000 -0.002125  0.000000
                                 0.001278 -0.000000 -0.000588  0.000000  0.000203 -0.000000 -0.000101  0.000000  0.000031  0.000000
                                 0.000000  0.000001 -0.000000 -0.000000 -0.000001  0.000000  0.000000  0.000000 -0.000000 -0.000000
                                -0.000000  0.000000  0.000000  0.000000 -0.000000  0.000000  0.000000

   6.1   2   -20.3089 -165.5486 -0.000101 -0.000283 -0.000808 -0.002098 -0.005311 -0.013476  0.001620 -0.034824  0.012517 -0.076591
                                -0.016841  0.184088  0.137569  0.251067 -3.353096  2.396524 -0.914894  0.883287  0.560979  0.572188
                                -0.077659  0.059815 -0.023647  0.011695 -0.005860  0.001695 -0.000370 -0.000000  0.000000 -0.000000
                                 0.000000 -0.000002  0.000000 -0.000007  0.000000 -0.000013  0.000000 -0.000017  0.000000  0.000012
                                 0.000000 -0.000013 -0.000000  0.000039 -0.000000  0.000038 -0.000000  0.000009 -0.000000  0.000001
                                -0.000000  0.000001 -0.000000 -0.000000 -0.000000 -0.000000 -0.000000  0.000000 -0.000000 -0.000000
                                 0.000000  0.000000 -0.000000  0.000000  0.000000  0.000000 -0.000000 -0.000000 -0.000000  0.000000
                                 0.000000 -0.000000  0.000000  0.000000 -0.000000  0.000000  0.000000

   7.1   2    -8.7743 -133.4542  0.000000  0.000000  0.000000  0.000000  0.000001  0.000001 -0.000000  0.000003 -0.000001  0.000008
                                 0.000002 -0.000018 -0.000014 -0.000024  0.000332 -0.000231  0.000079 -0.000073 -0.000096 -0.000032
                                -0.000047  0.000112 -0.000026  0.000052 -0.000029  0.000008 -0.000001 -0.000674 -0.000000 -0.005547
                                -0.000000 -0.027945 -0.000000 -0.094751 -0.000000 -0.186032 -0.000000 -0.208121 -0.000000  0.144432
                                 0.000000 -0.078324 -0.000000  0.479657  0.000000  0.510529  0.000000  0.160659  0.000000 -0.005240
                                -0.000000  0.006485  0.000000 -0.002169 -0.000000  0.001090  0.000000 -0.000331 -0.000000  0.000003
                                -0.000000  0.000000  0.000011 -0.000000  0.000000  0.000023  0.000000 -0.000000  0.000031 -0.000000
                                -0.000000  0.000010 -0.000000 -0.000000 -0.000001 -0.000000 -0.000000

   8.1   2    -8.7735 -133.4567 -0.000000 -0.000000 -0.000000 -0.000000 -0.000000 -0.000000  0.000000 -0.000000  0.000000 -0.000000
                                -0.000000  0.000000  0.000000  0.000000 -0.000000  0.000000 -0.000000  0.000000  0.000000  0.000000
                                 0.000000 -0.000000  0.000000 -0.000000  0.000000 -0.000000  0.000000  0.000000 -0.000674  0.000000
                                -0.005547  0.000000 -0.027947  0.000000 -0.094755  0.000000 -0.186041  0.000000 -0.208128 -0.000000
                                 0.144434  0.000000 -0.078314 -0.000000  0.479674 -0.000000  0.510546 -0.000000  0.160622  0.000000
                                -0.005278 -0.000000  0.006468  0.000000 -0.002175 -0.000000  0.001087  0.000000 -0.000331 -0.000000
                                -0.000000  0.000002 -0.000000 -0.000000  0.000007 -0.000000 -0.000000  0.000014 -0.000000 -0.000000
                                 0.000022 -0.000000 -0.000000  0.000008  0.000000 -0.000000  0.000001

   9.1   2    -3.3147  -69.2032  0.000039  0.000110  0.000315  0.000818  0.002069  0.005258 -0.000679  0.013662 -0.006109  0.031242
                                 0.006278 -0.072012 -0.059281 -0.099711  1.366198 -0.898219  0.328155 -0.257011 -0.645059 -0.529902
                                 0.353716  0.723134  0.388235 -0.023032  0.015735 -0.004682  0.001039  0.000000 -0.000000  0.000003
                                -0.000000  0.000013 -0.000000  0.000045 -0.000000  0.000086 -0.000000  0.000112 -0.000000 -0.000112
                                 0.000000  0.000090 -0.000000 -0.000305  0.000000 -0.000235  0.000000  0.000055 -0.000000  0.000888
                                -0.000000  0.000779 -0.000000 -0.000053  0.000000  0.000012 -0.000000 -0.000005  0.000000  0.000000
                                -0.000000 -0.000000 -0.000001  0.000000 -0.000000  0.000001 -0.000000 -0.000000 -0.000009  0.000000
                                 0.000000 -0.000036  0.000000  0.000000  0.000012 -0.000000 -0.000000

  10.1   0    -0.4062  -25.6984 -0.000012 -0.000035 -0.000100 -0.000260 -0.000658 -0.001671  0.000219 -0.004347  0.002014 -0.010009
                                -0.001978  0.022861  0.019163  0.031699 -0.432070  0.278096 -0.098732  0.067167  0.241569  0.192398
                                -0.140047 -0.395545 -0.479026  0.413510  0.811565  0.139460 -0.008548  0.000022  0.000000  0.000176
                                 0.000000  0.000899  0.000000  0.003014  0.000000  0.006061  0.000000  0.005692  0.000000 -0.003132
                                -0.000000 -0.001249  0.000000 -0.015037 -0.000000 -0.019943 -0.000000  0.016829  0.000000  0.037905
                                 0.000000  0.081382  0.000000  0.085756  0.000000 -0.010056  0.000000  0.003387 -0.000000 -0.000002
                                 0.000000  0.000000  0.000007 -0.000000 -0.000000 -0.000012  0.000000  0.000000  0.000071 -0.000000
                                -0.000000  0.000091  0.000000 -0.000000  0.002727 -0.000000 -0.000000

  11.1   0    -0.3549  -35.1104 -0.000002 -0.000006 -0.000017 -0.000043 -0.000110 -0.000279  0.000036 -0.000725  0.000318 -0.001653
                                -0.000335  0.003852  0.003143  0.005358 -0.076429  0.051121 -0.018960  0.015758  0.036870  0.034722
                                -0.027307 -0.062251 -0.085648  0.078016  0.123421  0.039758 -0.001179 -0.000135 -0.000000 -0.001103
                                -0.000000 -0.005621 -0.000000 -0.018893 -0.000000 -0.037814 -0.000000 -0.036603 -0.000000  0.022058
                                 0.000000  0.004064  0.000000  0.097393  0.000000  0.122838  0.000000 -0.102503 -0.000000 -0.253741
                                -0.000000 -0.500574 -0.000000 -0.387530 -0.000000  0.036615  0.000000 -0.019165 -0.000000 -0.000003
                                 0.000000 -0.000000  0.000003 -0.000000  0.000000 -0.000033  0.000000 -0.000000 -0.000112 -0.000000
                                 0.000000 -0.002056  0.000000  0.000000 -0.009268 -0.000000 -0.000000

                                   1 2px     1 2px     1 2px     1 2px     1 2px     1 2px     1 2px     1 2px     1 2px     1 2px
                                   1 2px     1 2px     1 2px     1 2px     1 2px     1 2px     1 2px     1 2px     1 2px     1 2px
                                   1 2px     1 2px     1 4f1+    1 4f3+    1 4f1+    1 4f3+    1 4f1+    1 4f3+    1 4f1+    1 4f3+
                                   1 4f1+    1 4f3+    1 4f1+    1 4f3+    1 4f1+    1 4f3+    1 4f1+    1 4f3+    1 4f1+    1 4f3+
                                   1 4f1+    1 4f3+    1 6h1+    1 6h3+    1 6h5+    1 6h1+    1 6h3+    1 6h5+    1 6h1+    1 6h3+
                                   1 6h5+    1 6h1+    1 6h3+    1 6h5+

   1.2   2  -355.9155-1008.5484  0.000490  0.002254  0.009492  0.036996  0.123681  0.294183  0.011900  0.439622  0.298901 -0.055329
                                 0.065010 -0.840909  0.860948 -0.054076  0.006489 -0.004110  0.003101 -0.000881  0.000384 -0.000181
                                 0.000067 -0.000015  0.000000  0.000000  0.000000 -0.000000 -0.000000  0.000000  0.000000  0.000000
                                -0.000000 -0.000000  0.000000 -0.000000 -0.000000 -0.000000  0.000000  0.000000 -0.000000 -0.000000
                                 0.000000 -0.000000  0.000000  0.000000 -0.000000 -0.000000 -0.000000  0.000000  0.000000  0.000000
                                -0.000000 -0.000000 -0.000000  0.000000

   2.2   2   -79.4369 -358.1633 -0.000248 -0.001143 -0.004873 -0.019180 -0.067114 -0.155412 -0.025287 -0.242038 -0.127401  0.325796
                                 0.591551  0.230509  0.038683  0.010632  0.014034 -0.007118  0.005650 -0.001681  0.000750 -0.000358
                                 0.000134 -0.000030  0.000000 -0.000000  0.000001 -0.000000  0.000002 -0.000000  0.000001  0.000000
                                 0.000000 -0.000000  0.000000 -0.000000 -0.000000 -0.000000  0.000000  0.000000 -0.000000  0.000000
                                 0.000000  0.000000 -0.000000  0.000000 -0.000000  0.000000 -0.000000  0.000000 -0.000000  0.000000
                                -0.000000 -0.000000  0.000000 -0.000000

   3.2   2   -15.3912 -151.9093  0.000119  0.000549  0.002348  0.009259  0.032775  0.074901  0.015362  0.117733  0.054393 -0.222229
                                -0.484255  1.420193 -1.692463  0.653162  0.619564  0.205632 -0.061440  0.017420 -0.006648  0.003120
                                -0.001160  0.000260  0.000000  0.000000  0.000001  0.000000  0.000006  0.000000  0.000018  0.000000
                                 0.000023 -0.000000  0.000011 -0.000000  0.000004  0.000000 -0.000000 -0.000000  0.000001  0.000000
                                -0.000000 -0.000000 -0.000000  0.000000 -0.000000 -0.000000 -0.000000  0.000000 -0.000000 -0.000000
                                 0.000000 -0.000000 -0.000000  0.000000

   4.2   2    -2.0387  -59.3803 -0.000042 -0.000193 -0.000825 -0.003257 -0.011540 -0.026547 -0.005304 -0.041738 -0.017007  0.081008
                                 0.195283 -1.090136  1.233740 -0.379906 -0.328753 -0.058374  0.434277  0.587627  0.188847 -0.007711
                                 0.004112 -0.000848  0.000010 -0.000000  0.000065 -0.000000  0.000215 -0.000000  0.000407 -0.000000
                                 0.000471 -0.000000  0.000472 -0.000000  0.000654 -0.000000  0.001209  0.000000  0.000078 -0.000000
                                -0.000060  0.000000  0.000000 -0.000000  0.000000 -0.000000  0.000000 -0.000000 -0.000003 -0.000000
                                 0.000000 -0.000039 -0.000000  0.000000

   5.2   2    -1.4448 -103.7098 -0.000000 -0.000000 -0.000000 -0.000000 -0.000000 -0.000000 -0.000000 -0.000000 -0.000000  0.000000
                                 0.000000 -0.000000  0.000000 -0.000000 -0.000000 -0.000000  0.000000  0.000000  0.000000 -0.000000
                                -0.000000 -0.000000 -0.000000  0.008249 -0.000000  0.054880 -0.000000  0.181764 -0.000000  0.341387
                                -0.000000  0.389320 -0.000000  0.288577 -0.000000  0.130162 -0.000000  0.022914 -0.000000  0.005962
                                 0.000000 -0.001448 -0.000000  0.000002  0.000000 -0.000000  0.000011 -0.000000 -0.000000  0.000052
                                -0.000000 -0.000000  0.000183 -0.000000

   6.2   2    -1.4454 -103.6578  0.000000  0.000000  0.000002  0.000007  0.000024  0.000054  0.000010  0.000085  0.000033 -0.000163
                                -0.000409  0.002672 -0.003003  0.000851  0.000675  0.000128 -0.001086 -0.001372  0.000221  0.000165
                                -0.000024 -0.000014  0.008244  0.000000  0.054846  0.000000  0.181649  0.000000  0.341188  0.000000
                                 0.389132  0.000000  0.288624  0.000000  0.130540  0.000000  0.023714  0.000000  0.006215  0.000000
                                -0.001465 -0.000000  0.000003  0.000000  0.000000  0.000020 -0.000000  0.000000  0.000087 -0.000000
                                -0.000000  0.000302  0.000000 -0.000000

   7.2   +    -0.1350  -12.2770 -0.000000 -0.000000 -0.000000 -0.000000 -0.000000 -0.000000 -0.000000 -0.000000 -0.000000  0.000000
                                 0.000000 -0.000000  0.000001 -0.000000 -0.000000 -0.000000  0.000000  0.000000  0.000000 -0.000001
                                -0.000001 -0.000000  0.000000 -0.000338  0.000000 -0.002234  0.000000 -0.007463  0.000000 -0.013678
                                 0.000000 -0.015550  0.000000 -0.007058  0.000000  0.002070 -0.000000  0.038980 -0.000000  0.278895
                                 0.000000  0.814447  0.000000 -0.000002  0.000000 -0.000000  0.000006 -0.000000  0.000000 -0.000051
                                 0.000000 -0.000000  0.000325 -0.000000

   8.2   0    -0.0205  -11.3364  0.000000  0.000000  0.000001  0.000003  0.000012 -0.000013  0.000057 -0.000010  0.000253 -0.000477
                                 0.000682 -0.046125  0.050167 -0.005791  0.002933 -0.007319  0.010090 -0.012004  0.020278 -0.040442
                                 0.078241 -0.104010 -0.000266 -0.000000 -0.001733 -0.000000 -0.005868 -0.000000 -0.010544 -0.000000
                                -0.012582  0.000000 -0.004407 -0.000000 -0.003673  0.000000  0.038717 -0.000000  0.169369  0.000000
                                 0.890411 -0.000000 -0.000004  0.000000 -0.000000  0.000014 -0.000000  0.000000 -0.000115  0.000000
                                -0.000000  0.000734 -0.000000  0.000000

   9.2   0    -0.2391  -19.6315  0.000011  0.000052  0.000222  0.000875  0.003103  0.007095  0.001487  0.011168  0.004806 -0.022355
                                -0.052136  0.252693 -0.287605  0.099247  0.096026  0.002596 -0.123056 -0.258247 -0.092782  0.495640
                                 0.602755  0.076635 -0.000016 -0.000000 -0.000107 -0.000000 -0.000350 -0.000000 -0.000662 -0.000000
                                -0.000716 -0.000000 -0.000505 -0.000000  0.000156 -0.000000  0.000097  0.000000  0.020864  0.000000
                                 0.003923  0.000002 -0.000000 -0.000000  0.000000  0.000001  0.000000 -0.000000 -0.000011 -0.000000
                                 0.000000  0.000090  0.000000 -0.000000

                                   1 2py     1 2py     1 2py     1 2py     1 2py     1 2py     1 2py     1 2py     1 2py     1 2py
                                   1 2py     1 2py     1 2py     1 2py     1 2py     1 2py     1 2py     1 2py     1 2py     1 2py
                                   1 2py     1 2py     1 4f1-    1 4f3-    1 4f1-    1 4f3-    1 4f1-    1 4f3-    1 4f1-    1 4f3-
                                   1 4f1-    1 4f3-    1 4f1-    1 4f3-    1 4f1-    1 4f3-    1 4f1-    1 4f3-    1 4f1-    1 4f3-
                                   1 4f1-    1 4f3-    1 6h1-    1 6h3-    1 6h5-    1 6h1-    1 6h3-    1 6h5-    1 6h1-    1 6h3-
                                   1 6h5-    1 6h1-    1 6h3-    1 6h5-

   1.3   2  -355.9155-1008.5484  0.000490  0.002254  0.009492  0.036996  0.123681  0.294183  0.011900  0.439622  0.298901 -0.055329
                                 0.065010 -0.840909  0.860948 -0.054076  0.006489 -0.004110  0.003101 -0.000881  0.000384 -0.000181
                                 0.000067 -0.000015  0.000000 -0.000000  0.000000  0.000000 -0.000000  0.000000  0.000000 -0.000000
                                -0.000000  0.000000  0.000000 -0.000000 -0.000000  0.000000  0.000000 -0.000000 -0.000000  0.000000
                                 0.000000 -0.000000  0.000000 -0.000000 -0.000000 -0.000000  0.000000  0.000000  0.000000 -0.000000
                                -0.000000 -0.000000  0.000000  0.000000

   2.3   2   -79.4369 -358.1633 -0.000248 -0.001143 -0.004873 -0.019180 -0.067114 -0.155412 -0.025287 -0.242038 -0.127401  0.325796
                                 0.591551  0.230509  0.038683  0.010632  0.014034 -0.007118  0.005650 -0.001681  0.000750 -0.000358
                                 0.000134 -0.000030  0.000000  0.000000  0.000001  0.000000  0.000002  0.000000  0.000001 -0.000000
                                 0.000000  0.000000  0.000000  0.000000 -0.000000  0.000000  0.000000 -0.000000 -0.000000  0.000000
                                 0.000000 -0.000000 -0.000000 -0.000000 -0.000000  0.000000  0.000000  0.000000 -0.000000 -0.000000
                                -0.000000 -0.000000 -0.000000 -0.000000

   3.3   2   -15.3912 -151.9093  0.000119  0.000549  0.002348  0.009259  0.032775  0.074901  0.015362  0.117733  0.054393 -0.222229
                                -0.484255  1.420193 -1.692462  0.653162  0.619564  0.205632 -0.061440  0.017420 -0.006648  0.003120
                                -0.001160  0.000260  0.000000 -0.000000  0.000001 -0.000000  0.000006 -0.000000  0.000018 -0.000000
                                 0.000023 -0.000000  0.000011 -0.000000  0.000004 -0.000000 -0.000000  0.000000  0.000001 -0.000000
                                -0.000000 -0.000000 -0.000000 -0.000000 -0.000000 -0.000000  0.000000  0.000000 -0.000000  0.000000
                                 0.000000 -0.000000  0.000000  0.000000

   4.3   2    -2.0387  -59.3803 -0.000042 -0.000193 -0.000825 -0.003257 -0.011540 -0.026547 -0.005304 -0.041738 -0.017007  0.081008
                                 0.195283 -1.090136  1.233739 -0.379906 -0.328753 -0.058374  0.434277  0.587627  0.188847 -0.007711
                                 0.004112 -0.000848  0.000010  0.000000  0.000065  0.000000  0.000215  0.000000  0.000407  0.000000
                                 0.000471  0.000000  0.000472  0.000000  0.000654 -0.000000  0.001209 -0.000000  0.000078 -0.000000
                                -0.000060 -0.000000  0.000000  0.000000  0.000000 -0.000000 -0.000000 -0.000000 -0.000003  0.000000
                                 0.000000 -0.000039  0.000000  0.000000

   5.3   2    -1.4448 -103.7098 -0.000000 -0.000000 -0.000000 -0.000000 -0.000000 -0.000000 -0.000000 -0.000000 -0.000000  0.000000
                                 0.000000 -0.000000  0.000000 -0.000000 -0.000000 -0.000000  0.000000  0.000000 -0.000000 -0.000000
                                 0.000000  0.000000 -0.000000  0.008249 -0.000000  0.054880 -0.000000  0.181764 -0.000000  0.341387
                                -0.000000  0.389320 -0.000000  0.288577 -0.000000  0.130162 -0.000000  0.022914 -0.000000  0.005962
                                 0.000000 -0.001448 -0.000000  0.000002  0.000000 -0.000000  0.000011 -0.000000 -0.000000  0.000052
                                -0.000000 -0.000000  0.000183 -0.000000

   6.3   2    -1.4454 -103.6578  0.000000  0.000000  0.000002  0.000007  0.000024  0.000054  0.000010  0.000085  0.000033 -0.000163
                                -0.000409  0.002672 -0.003003  0.000851  0.000675  0.000128 -0.001086 -0.001372  0.000221  0.000165
                                -0.000024 -0.000014  0.008244  0.000000  0.054846  0.000000  0.181649  0.000000  0.341188  0.000000
                                 0.389132  0.000000  0.288624  0.000000  0.130540  0.000000  0.023714  0.000000  0.006215  0.000000
                                -0.001465 -0.000000  0.000003  0.000000  0.000000  0.000020 -0.000000  0.000000  0.000087 -0.000000
                                -0.000000  0.000302 -0.000000 -0.000000

   7.3   +    -0.1350  -12.2770  0.000000  0.000000  0.000000  0.000000  0.000000  0.000000  0.000000  0.000000  0.000000 -0.000000
                                -0.000000  0.000001 -0.000001  0.000000  0.000000  0.000000 -0.000000 -0.000001 -0.000000  0.000001
                                 0.000002  0.000000 -0.000000 -0.000338 -0.000000 -0.002234 -0.000000 -0.007463 -0.000000 -0.013678
                                -0.000000 -0.015550 -0.000000 -0.007058 -0.000000  0.002070  0.000000  0.038980  0.000000  0.278895
                                -0.000000  0.814447 -0.000000 -0.000002  0.000000  0.000000  0.000006 -0.000000 -0.000000 -0.000051
                                 0.000000  0.000000  0.000325 -0.000000

   8.3   0    -0.0205  -11.3364  0.000000  0.000000  0.000001  0.000003  0.000012 -0.000013  0.000057 -0.000010  0.000253 -0.000477
                                 0.000682 -0.046125  0.050167 -0.005791  0.002933 -0.007319  0.010090 -0.012004  0.020278 -0.040442
                                 0.078241 -0.104010 -0.000266  0.000000 -0.001733  0.000000 -0.005868  0.000000 -0.010544  0.000000
                                -0.012582  0.000000 -0.004407  0.000000 -0.003673 -0.000000  0.038717  0.000000  0.169369 -0.000000
                                 0.890411  0.000000 -0.000004 -0.000000 -0.000000  0.000014  0.000000  0.000000 -0.000115 -0.000000
                                -0.000000  0.000734  0.000000  0.000000

   9.3   0    -0.2391  -19.6315  0.000011  0.000052  0.000222  0.000875  0.003103  0.007095  0.001487  0.011168  0.004806 -0.022355
                                -0.052136  0.252693 -0.287605  0.099247  0.096026  0.002596 -0.123056 -0.258247 -0.092782  0.495640
                                 0.602755  0.076635 -0.000016  0.000000 -0.000107  0.000000 -0.000350  0.000000 -0.000662  0.000000
                                -0.000716  0.000000 -0.000505  0.000000  0.000156  0.000000  0.000097 -0.000000  0.020864 -0.000001
                                 0.003923 -0.000002 -0.000000  0.000000  0.000000  0.000001 -0.000000 -0.000000 -0.000011  0.000000
                                 0.000000  0.000090 -0.000000 -0.000000

                                   1 3d2-    1 3d2-    1 3d2-    1 3d2-    1 3d2-    1 3d2-    1 3d2-    1 3d2-    1 3d2-    1 3d2-
                                   1 3d2-    1 3d2-    1 3d2-    1 3d2-    1 3d2-    1 3d2-    1 5g2-    1 5g4-    1 5g2-    1 5g4-
                                   1 5g2-    1 5g4-    1 5g2-    1 5g4-    1 5g2-    1 5g4-    1 5g2-    1 5g4-

   1.4   2   -61.3492 -329.9614  0.001388  0.011211  0.056498  0.184667  0.376890  0.415805  0.003719  0.164973 -0.001599  0.009708
                                -0.002125  0.001278 -0.000588  0.000203 -0.000101  0.000031  0.000001  0.000000 -0.000001 -0.000000
                                 0.000000  0.000000 -0.000000 -0.000000  0.000000  0.000000  0.000000  0.000000

   2.4   2    -8.7735 -133.4567 -0.000674 -0.005547 -0.027947 -0.094755 -0.186041 -0.208128  0.144434 -0.078314  0.479674  0.510546
                                 0.160622 -0.005278  0.006468 -0.002175  0.001087 -0.000331  0.000002 -0.000000  0.000007 -0.000000
                                 0.000014 -0.000000  0.000022 -0.000000  0.000008 -0.000000  0.000001 -0.000000

   3.4   0    -0.3530  -34.9470  0.000135  0.001104  0.005629  0.018922  0.037861  0.036709 -0.022222 -0.003866 -0.097708 -0.122902
                                 0.102463  0.255118  0.497806  0.392656 -0.002034  0.019296  0.000006 -0.000000 -0.000012  0.000000
                                 0.000048 -0.000000 -0.000002  0.000000  0.001622 -0.000000  0.002658  0.000000

   4.4   0    -0.0891  -12.7310 -0.000056 -0.000454 -0.002313 -0.007787 -0.015534 -0.015333  0.009819  0.000662  0.041203  0.050116
                                -0.043576 -0.114750 -0.226906 -0.012199  0.746913  0.334517 -0.000005  0.000000  0.000015 -0.000000
                                -0.000043  0.000000  0.000061 -0.000000 -0.001241  0.000000 -0.000633  0.000000

                                   1 2pz     1 2pz     1 2pz     1 2pz     1 2pz     1 2pz     1 2pz     1 2pz     1 2pz     1 2pz
                                   1 2pz     1 2pz     1 2pz     1 2pz     1 2pz     1 2pz     1 2pz     1 2pz     1 2pz     1 2pz
                                   1 2pz     1 2pz     1 4f0     1 4f2+    1 4f0     1 4f2+    1 4f0     1 4f2+    1 4f0     1 4f2+
                                   1 4f0     1 4f2+    1 4f0     1 4f2+    1 4f0     1 4f2+    1 4f0     1 4f2+    1 4f0     1 4f2+
                                   1 4f0     1 4f2+    1 6h2+    1 6h4+    1 6h0     1 6h2+    1 6h4+    1 6h0     1 6h2+    1 6h4+
                                   1 6h0     1 6h2+    1 6h4+    1 6h0

   1.5   2  -355.9156-1008.5485  0.000490  0.002254  0.009492  0.036996  0.123681  0.294182  0.011899  0.439622  0.298902 -0.055329
                                 0.065011 -0.840914  0.860953 -0.054076  0.006489 -0.004110  0.003101 -0.000881  0.000384 -0.000181
                                 0.000067 -0.000015  0.000000 -0.000000  0.000000 -0.000000 -0.000000  0.000000  0.000000 -0.000000
                                -0.000000  0.000000  0.000000 -0.000000 -0.000000  0.000000  0.000000 -0.000000 -0.000000  0.000000
                                 0.000000 -0.000000 -0.000000 -0.000000  0.000000  0.000000  0.000000  0.000000 -0.000000 -0.000000
                                -0.000000  0.000000  0.000000 -0.000000

   2.5   2   -79.4374 -358.1636 -0.000248 -0.001143 -0.004873 -0.019180 -0.067114 -0.155411 -0.025287 -0.242038 -0.127401  0.325794
                                 0.591550  0.230525  0.038669  0.010634  0.014034 -0.007119  0.005651 -0.001681  0.000750 -0.000358
                                 0.000134 -0.000030  0.000000 -0.000000  0.000001 -0.000000  0.000002  0.000000  0.000001 -0.000000
                                 0.000000  0.000000  0.000000 -0.000000 -0.000000  0.000000  0.000000 -0.000000 -0.000000  0.000000
                                 0.000000  0.000000 -0.000000 -0.000000 -0.000000  0.000000  0.000000  0.000000 -0.000000 -0.000000
                                -0.000000 -0.000000 -0.000000  0.000000

   3.5   2   -15.3921 -151.9088  0.000119  0.000549  0.002348  0.009259  0.032775  0.074899  0.015362  0.117730  0.054392 -0.222222
                                -0.484244  1.420157 -1.692427  0.653136  0.619558  0.205649 -0.061434  0.017434 -0.006650  0.003123
                                -0.001161  0.000260  0.000000 -0.000000  0.000002 -0.000000  0.000007 -0.000000  0.000022 -0.000000
                                 0.000029 -0.000000  0.000013 -0.000000  0.000004 -0.000000 -0.000000 -0.000000  0.000000 -0.000000
                                -0.000000  0.000000 -0.000000 -0.000000 -0.000000  0.000000  0.000000 -0.000000  0.000000  0.000000
                                -0.000000  0.000000  0.000000 -0.000000

   4.5   2    -2.0444  -59.3252 -0.000042 -0.000193 -0.000824 -0.003252 -0.011521 -0.026504 -0.005297 -0.041670 -0.016986  0.080887
                                 0.194939 -1.086935  1.230182 -0.379062 -0.328247 -0.058089  0.432704  0.586129  0.191771 -0.007481
                                 0.003863 -0.000844  0.000011 -0.000000  0.000073 -0.000000  0.000242 -0.000000  0.000458 -0.000000
                                 0.000529 -0.000000  0.000537 -0.000000  0.000752 -0.000000  0.001341 -0.000000  0.000189  0.000000
                                -0.000040  0.000000  0.000000  0.000000  0.000000 -0.000000 -0.000000 -0.000000  0.000000  0.000000
                                -0.000002  0.000000  0.000000 -0.000056

   5.5   2    -1.4450 -103.6717 -0.000000 -0.000000 -0.000000 -0.000000 -0.000000 -0.000000 -0.000000 -0.000000 -0.000000  0.000000
                                 0.000000 -0.000000  0.000000 -0.000000 -0.000000 -0.000000  0.000000  0.000000 -0.000000 -0.000000
                                -0.000000  0.000000 -0.000000  0.008245 -0.000000  0.054855 -0.000000  0.181680 -0.000000  0.341242
                                -0.000000  0.389184 -0.000000  0.288615 -0.000000  0.130433 -0.000000  0.023493 -0.000000  0.006161
                                 0.000000 -0.001447  0.000003  0.000000 -0.000000  0.000017 -0.000000 -0.000000  0.000074 -0.000000
                                -0.000000  0.000261 -0.000000 -0.000000

   6.5   2    -1.4455 -103.6534  0.000000  0.000000  0.000002  0.000007  0.000026  0.000061  0.000012  0.000096  0.000037 -0.000184
                                -0.000460  0.002984 -0.003354  0.000954  0.000761  0.000143 -0.001221 -0.001544  0.000196  0.000223
                                 0.000013 -0.000013  0.008243  0.000000  0.054843  0.000000  0.181639  0.000000  0.341171  0.000000
                                 0.389116  0.000000  0.288628  0.000000  0.130576  0.000000  0.023779  0.000000  0.006223  0.000000
                                -0.001472 -0.000000  0.000000  0.000000  0.000003  0.000000  0.000000  0.000021  0.000000 -0.000000
                                 0.000091  0.000000 -0.000000  0.000314

   7.5   0    -0.0162  -11.3349  0.000000  0.000000  0.000000  0.000000  0.000000  0.000000 -0.000000  0.000000 -0.000000  0.000000
                                -0.000000  0.000000 -0.000000  0.000000 -0.000000  0.000000 -0.000000  0.000000 -0.000000  0.000000
                                -0.000000  0.000000  0.000000 -0.000265  0.000000 -0.001729  0.000000 -0.005864  0.000000 -0.010510
                                 0.000000 -0.012610  0.000000 -0.004231  0.000000 -0.004224 -0.000000  0.040127 -0.000000  0.166275
                                -0.000001  0.894717 -0.000003  0.000000  0.000000  0.000011 -0.000000 -0.000000 -0.000085  0.000000
                                 0.000000  0.000543 -0.000000 -0.000000

   8.5   0    -0.0198  -11.2905 -0.000000 -0.000001 -0.000006 -0.000024 -0.000080 -0.000270  0.000076 -0.000403  0.000396 -0.000296
                                 0.003285 -0.110846  0.120993 -0.016220  0.003219 -0.016300  0.026635 -0.017372  0.049752 -0.123925
                                 0.171558 -0.197886 -0.000264 -0.000000 -0.001722 -0.000000 -0.005827 -0.000000 -0.010478 -0.000000
                                -0.012486 -0.000000 -0.004414 -0.000000 -0.003502 -0.000000  0.038182  0.000000  0.168405  0.000000
                                 0.884978  0.000001 -0.000000 -0.000000 -0.000004  0.000000  0.000000  0.000015 -0.000000 -0.000000
                                -0.000123  0.000000  0.000000  0.000790

                                   1 3d1+    1 3d1+    1 3d1+    1 3d1+    1 3d1+    1 3d1+    1 3d1+    1 3d1+    1 3d1+    1 3d1+
                                   1 3d1+    1 3d1+    1 3d1+    1 3d1+    1 3d1+    1 3d1+    1 5g1+    1 5g3+    1 5g1+    1 5g3+
                                   1 5g1+    1 5g3+    1 5g1+    1 5g3+    1 5g1+    1 5g3+    1 5g1+    1 5g3+

   1.6   2   -61.3494 -329.9616  0.001388  0.011211  0.056498  0.184667  0.376890  0.415806  0.003719  0.164974 -0.001601  0.009707
                                -0.002125  0.001278 -0.000588  0.000203 -0.000101  0.000031  0.000002 -0.000000 -0.000001  0.000000
                                 0.000001 -0.000000 -0.000000  0.000000  0.000000 -0.000000 -0.000000 -0.000000

   2.6   2    -8.7741 -133.4546 -0.000674 -0.005547 -0.027946 -0.094752 -0.186034 -0.208123  0.144433 -0.078323  0.479662  0.510532
                                 0.160651 -0.005247  0.006483 -0.002169  0.001090 -0.000331  0.000003  0.000000  0.000010 -0.000000
                                 0.000021 -0.000000  0.000029 -0.000000  0.000010  0.000000 -0.000001  0.000000

   3.6   0    -0.3532  -35.4786  0.000137  0.001121  0.005717  0.019215  0.038461  0.037212 -0.022396 -0.004195 -0.099008 -0.124969
                                 0.104354  0.258020  0.509259  0.393079 -0.040598  0.019771  0.000003  0.000000 -0.000002 -0.000000
                                 0.000029  0.000000  0.000113 -0.000000  0.001920  0.000000  0.009086 -0.000000

   4.6   0    -0.0773  -11.4002 -0.000046 -0.000376 -0.001915 -0.006444 -0.012869 -0.012619  0.007950  0.000831  0.033882  0.041646
                                -0.036459 -0.094272 -0.191669 -0.002922  0.651895  0.448963 -0.000018  0.000000  0.000063 -0.000000
                                -0.000147  0.000000  0.000400 -0.000000 -0.002769  0.000000  0.012035 -0.000000

                                   1 3d1-    1 3d1-    1 3d1-    1 3d1-    1 3d1-    1 3d1-    1 3d1-    1 3d1-    1 3d1-    1 3d1-
                                   1 3d1-    1 3d1-    1 3d1-    1 3d1-    1 3d1-    1 3d1-    1 5g1-    1 5g3-    1 5g1-    1 5g3-
                                   1 5g1-    1 5g3-    1 5g1-    1 5g3-    1 5g1-    1 5g3-    1 5g1-    1 5g3-

   1.7   2   -61.3494 -329.9616  0.001388  0.011211  0.056498  0.184667  0.376890  0.415806  0.003719  0.164974 -0.001601  0.009707
                                -0.002125  0.001278 -0.000588  0.000203 -0.000101  0.000031  0.000002  0.000000 -0.000001 -0.000000
                                 0.000001  0.000000 -0.000000 -0.000000  0.000000  0.000000 -0.000000  0.000000

   2.7   2    -8.7741 -133.4546 -0.000674 -0.005547 -0.027946 -0.094752 -0.186034 -0.208123  0.144433 -0.078323  0.479662  0.510532
                                 0.160651 -0.005247  0.006483 -0.002169  0.001090 -0.000331  0.000003 -0.000000  0.000010 -0.000000
                                 0.000021 -0.000000  0.000029 -0.000000  0.000010 -0.000000 -0.000001 -0.000000

   3.7   0    -0.3532  -35.4786  0.000137  0.001121  0.005717  0.019215  0.038461  0.037212 -0.022396 -0.004195 -0.099008 -0.124969
                                 0.104354  0.258020  0.509259  0.393079 -0.040598  0.019771  0.000003 -0.000000 -0.000002  0.000000
                                 0.000029 -0.000000  0.000113  0.000000  0.001920 -0.000000  0.009086  0.000000

   4.7   0    -0.0773  -11.4002 -0.000046 -0.000376 -0.001915 -0.006444 -0.012869 -0.012619  0.007950  0.000831  0.033882  0.041646
                                -0.036459 -0.094272 -0.191669 -0.002922  0.651895  0.448963 -0.000018 -0.000000  0.000063  0.000000
                                -0.000147 -0.000000  0.000400  0.000000 -0.002769 -0.000000  0.012035  0.000000

                                   1 4f2-    1 4f2-    1 4f2-    1 4f2-    1 4f2-    1 4f2-    1 4f2-    1 4f2-    1 4f2-    1 4f2-
                                   1 6h4-    1 6h2-    1 6h4-    1 6h2-    1 6h4-    1 6h2-    1 6h4-    1 6h2-

   1.8   2    -1.4450 -103.6717  0.008245  0.054855  0.181680  0.341242  0.389184  0.288615  0.130433  0.023493  0.006161 -0.001447
                                 0.000000  0.000003 -0.000000  0.000017 -0.000000  0.000074 -0.000000  0.000261

   2.8   0    -0.0162  -11.3349 -0.000265 -0.001729 -0.005864 -0.010510 -0.012610 -0.004231 -0.004224  0.040127  0.166275  0.894717
                                 0.000000 -0.000003 -0.000000  0.000011  0.000000 -0.000085 -0.000000  0.000543

   3.8   0     0.1712  -16.6843 -0.000778 -0.005328 -0.017092 -0.033302 -0.032400 -0.027422  0.054140  0.002229  1.138260 -0.763142
                                 0.000000 -0.000010 -0.000000  0.000035  0.000000 -0.000281 -0.000000  0.001909

 HOMO      7.2    -0.134985 =      -3.6731eV
 LUMO     10.1    -0.406176 =     -11.0526eV
 LUMO-HOMO        -0.271191 =      -7.3795eV


 **********************************************************************************************************************************
 DATASETS  * FILE   NREC   LENGTH (MB)   RECORD NAMES
              1      22       21.15       500      610      700      900      950      970     1000      129      960     1700
                                          VAR    BASINP    GEOM    SYMINP    ZMAT    AOBASIS   BASIS     P2S    ABASIS    OPER
                                         1101     1401     1411     1412     1650     1100     1400     1410     1200     1210
                                          SR      EKINR    POTR     PVPR    MOLCAS      S      EKIN      POT      H0       H01
                                         1080     1600
                                         AOSYM     SMH

              2       5        5.89       200      700     1000      520     4202
                                        OPTIONS   GEOM     BASIS   MCVARS     RHF

 PROGRAMS   *        TOTAL       RHF       INT
 CPU TIMES  *        40.44      1.79     38.31
 REAL TIME  *        43.16 SEC
 DISK USED  *         3.21 GB
 SF USED    *         0.07 MB
 GA USED    *         0.00 MB       (max)       0.00 MB       (current)
 **********************************************************************************************************************************
   -->
   <time start="06:32:01" end="06:32:43" cpu="40.44" system="2.45" real="43.16"/>
   <storage units="megabyte" memory="16001.84" sf="0.07" df="148.44" eaf="3057.29" ga="0.0"/>
  </jobstep><!--
  --><jobstep command="POP" commandset="POP">
   <!--


 PROGRAM * POP (Mulliken population analysis)


 Density matrix read from record         4202.2  Type=RHF/CHARGE (state 1.4)

 Population analysis by basis function type

 Unique atom        s        p        d        f        g    Total    Charge
   1  LU     10.00000 23.99999 20.00000 16.00001  0.00000 70.00000  + 1.00000


 **********************************************************************************************************************************
 DATASETS  * FILE   NREC   LENGTH (MB)   RECORD NAMES
              1      22       21.15       500      610      700      900      950      970     1000      129      960     1700
                                          VAR    BASINP    GEOM    SYMINP    ZMAT    AOBASIS   BASIS     P2S    ABASIS    OPER
                                         1101     1401     1411     1412     1650     1100     1400     1410     1200     1210
                                          SR      EKINR    POTR     PVPR    MOLCAS      S      EKIN      POT      H0       H01
                                         1080     1600
                                         AOSYM     SMH

              2       5        5.89       200      700     1000      520     4202
                                        OPTIONS   GEOM     BASIS   MCVARS     RHF

 PROGRAMS   *        TOTAL       POP       RHF       INT
 CPU TIMES  *        40.45      0.00      1.79     38.31
 REAL TIME  *        43.17 SEC
 DISK USED  *         3.21 GB
 SF USED    *         0.07 MB
 GA USED    *         0.00 MB       (max)       0.00 MB       (current)
 **********************************************************************************************************************************
   -->
   <time start="06:32:43" end="06:32:43" cpu="0.01" system="0.0" real="0.01"/>
   <storage units="megabyte" memory="16001.84" sf="0.07" df="148.44" eaf="3057.29" ga="0.0"/>
  </jobstep><!--
  --><jobstep command="RHF-SCF" commandset="SCFPRO">
   <!--


 PROGRAM * RHF-SCF (OPEN SHELL)       Authors: W. Meyer, H.-J. Werner


 NUMBER OF ELECTRONS:      36+   34-    SPACE SYMMETRY=4    SPIN SYMMETRY: Triplet
 CONVERGENCE THRESHOLDS:    1.00E-05 (Density)    1.40E-07 (Energy)
 MAX. NUMBER OF ITERATIONS:        0
 INTERPOLATION TYPE:            DIIS
 INTERPOLATION STEPS:              2 (START)      1 (STEP)
 LEVEL SHIFTS:                 -0.60 (CLOSED) -0.30 (OPEN)

 Number of closed-shell orbitals:   34 (   9   6   6   2   6   2   2   1 )
 Number of open-shell orbitals:      2 (   0   1   1   0   0   0   0   0 )


 Molecular orbitals read from record     4202.2  Type=RHF/CANONICAL (state 1.4)

 Molecular orbital dump at record        2114.2

 ITERATION    DDIFF          GRAD             ENERGY        2-EL.EN.            DIPOLE MOMENTS         DIIS   ORB.
    1      0.000D+00      0.000D+00    -14558.47892618  10795.206614    0.00000    0.00000    0.00000    0    start

 Final alpha occupancy:   9   7   7   2   6   2   2   1
 Final beta  occupancy:   9   6   6   2   6   2   2   1

 !RHF STATE 1.4 Energy               -14558.4789261765
   --><property name="Energy" method="RHF" principal="true" stateSymmetry="4" stateNumber="1"
     value="-14558.4789261765"/><!--
 Nuclear energy                         0.00000000
 One-electron energy               -19956.08223320
 Two-electron energy                 5397.60330702
 Virial quotient                       -0.73507693
 !RHF STATE 1.4 Dipole moment           0.00000000     0.00000000     0.00000000
 Dipole moment /Debye                   0.00000000     0.00000000     0.00000000
   --><property name="Dipole moment" method="RHF" principal="true" stateSymmetry="4"
     stateNumber="1" value="0.0 0.0 0.0"/><!--

 Orbital energies:

         1.1          2.1          3.1          4.1          5.1          6.1          7.1          8.1          9.1         10.1
  -2339.768800  -403.720422   -94.103579   -61.349484   -61.349232   -20.308949    -8.774273    -8.773525    -3.314722    -0.406176

        11.1
     -0.354950

         1.2          2.2          3.2          4.2          5.2          6.2          7.2          8.2          9.2
   -355.915521   -79.436936   -15.391192    -2.038744    -1.444787    -1.445407    -0.134985    -0.020521    -0.239148

         1.3          2.3          3.3          4.3          5.3          6.3          7.3          8.3          9.3
   -355.915521   -79.436936   -15.391192    -2.038744    -1.444787    -1.445407    -0.134985    -0.020521    -0.239148

         1.4          2.4          3.4          4.4
    -61.349232    -8.773525    -0.352975    -0.089079

         1.5          2.5          3.5          4.5          5.5          6.5          7.5          8.5
   -355.915649   -79.437362   -15.392110    -2.044409    -1.445003    -1.445528    -0.016158    -0.019780

         1.6          2.6          3.6          4.6
    -61.349406    -8.774060    -0.353245    -0.077307

         1.7          2.7          3.7          4.7
    -61.349406    -8.774060    -0.353245    -0.077307

         1.8          2.8          3.8
     -1.445003    -0.016158     0.171206

 HOMO      7.2    -0.134985 =      -3.6731eV
 LUMO     10.1    -0.406176 =     -11.0526eV
 LUMO-HOMO        -0.271191 =      -7.3795eV


 **********************************************************************************************************************************
 DATASETS  * FILE   NREC   LENGTH (MB)   RECORD NAMES
              1      22       21.15       500      610      700      900      950      970     1000      129      960     1700
                                          VAR    BASINP    GEOM    SYMINP    ZMAT    AOBASIS   BASIS     P2S    ABASIS    OPER
                                         1101     1401     1411     1412     1650     1100     1400     1410     1200     1210
                                          SR      EKINR    POTR     PVPR    MOLCAS      S      EKIN      POT      H0       H01
                                         1080     1600
                                         AOSYM     SMH

              2       6        9.09       200      700     1000      520     4202     2114
                                        OPTIONS   GEOM     BASIS   MCVARS     RHF      RHF

 PROGRAMS   *        TOTAL       RHF       POP       RHF       INT
 CPU TIMES  *        40.60      0.15      0.00      1.79     38.31
 REAL TIME  *        43.34 SEC
 DISK USED  *         3.21 GB
 SF USED    *         0.07 MB
 GA USED    *         0.00 MB       (max)       0.00 MB       (current)
 **********************************************************************************************************************************
   -->
   <time start="06:32:43" end="06:32:44" cpu="0.15" system="0.02" real="0.17"/>
   <storage units="megabyte" memory="16001.84" sf="0.07" df="148.44" eaf="3057.29" ga="0.0"/>
  </jobstep><!--
 SETTING SCF(17)        =    -14558.47892618  AU
 SETTING _CC_NORM_MAX   =         2.00000000
  --><jobstep command="RCCSD(T)" commandset="CCSD">
   <!--


 PROGRAM * CCSD (Restricted open-shell coupled cluster)     Authors: C. Hampel, H.-J. Werner, 1991, M. Deegan, P.J. Knowles, 1992


 Convergence thresholds:  THRVAR = 1.00D-08  THRDEN = 1.40D-06

 CCSD(T)     terms to be evaluated (factor= 1.000)


 Number of core orbitals:          30 (   8   5   5   2   5   2   2   1 )
 Number of closed-shell orbitals:   4 (   1   1   1   0   1   0   0   0 )
 Number of active  orbitals:        2 (   0   1   1   0   0   0   0   0 )
 Number of external orbitals:     305 (  68  47  47  26  48  26  26  17 )

 Memory could be reduced to 48.62 Mwords without degradation in triples

 Number of N-1 electron functions:              10
 Number of N-2 electron functions:              45
 Number of singly external CSFs:               520
 Number of doubly external CSFs:            417996
 Total number of CSFs:                      418516

 Molecular orbitals read from record     2114.2  Type=RHF/CANONICAL (state 1.4)

 Integral transformation finished. Total CPU:   1.21 sec, npass=  1  Memory used:   9.38 MW

 Starting RMP2 calculation

 Wavefunction is spin-projected

 ITER.      SQ.NORM     CORR.ENERGY   TOTAL ENERGY   ENERGY CHANGE        DEN1      VAR(S)    VAR(P)  DIIS     TIME
   1      3.66734461    -0.23954566-14558.71847183    -0.23954566    -0.13711234  0.28D-08  0.21D+01  1  1     1.36
   2    164.63060605    -0.37665799-14558.85558417    -0.13711234    -8.00085231  0.18D-09  0.12D+03  1  0     1.38

 UNREASONABLE NORM:164.630606 CALCULATION WILL BE STOPPED

 The threshold can be changed using option CC_NORM_MAX (see manual). The current value is CC_NORM_MAX=2.00

 Norm of t1 vector:      0.00030040      S-energy:    -0.00000018      T1 diagnostic:  0.00000250
 Norm of t2 vector:     12.79181793      P-energy:    -0.37665781
                                         Alpha-Beta:  -0.13769842
                                         Alpha-Alpha: -0.20255254
                                         Beta-Beta:   -0.03640685

 Spin contamination <S**2-Sz**2-Sz>     0.00000000


 RESULTS
 =======

  Reference energy                   -14558.4789261764
   --><property name="energy" method="Reference" stateSymmetry="1" stateNumber="1"
     value="-14558.4789261764"/><!--
  RCCSD singles energy                 -0.000000184353
   --><property name="energy" method="RCCSD singles" stateSymmetry="1" stateNumber="1"
     value="-0.184353483034805E-06"/><!--
  RCCSD pair energy                    -0.376657807925
   --><property name="energy" method="RCCSD pair" stateSymmetry="1" stateNumber="1"
     value="-0.376657807924532"/><!--
  RCCSD correlation energy             -0.376657992278
   --><property name="energy" method="RCCSD correlation" stateSymmetry="1" stateNumber="1"
     value="-0.376657992278015"/><!--

 !RHF-RCCSD energy                   -14558.8555841687
   --><property name="energy" method="RHF-RCCSD" principal="true" stateSymmetry="1"
     stateNumber="1" value="-14558.8555841687"/><!--

 Program statistics:

 Available memory in ccsd:              1999999552
 Min. memory needed in ccsd:               1395773
 Max. memory used in ccsd:                 1843453
 Max. memory used in cckext:                     0 ( 0 integral passes)
 Max. memory used in cckint:               9375195 ( 1 integral passes)


 ? Error
 ? No convergence. This error exit can be avoided using the NOCHECK option
 ? The problem occurs in ccsd
   --><error type="Error" location="ccsd"
     message="No convergence. This error exit can be avoided using the NOCHECK option"/><!--
  --></jobstep><!--
  -->
  <input>
  <!--
 --></job><!--
--></molpro>
