<?xml version="1.0"?>
<molpro xmlns="http://www.molpro.net/schema/molpro-output"
  xmlns:xsd="http://www.w3.org/1999/XMLSchema"
  xmlns:cml="http://www.xml-cml.org/schema"
  xmlns:stm="http://www.xml-cml.org/schema"
  xmlns:xhtml="http://www.w3.org/1999/xhtml">
 <!--

 Nodes     nprocs
 nid12814    11
 Number of processes for MPI-2 version of Molpro:   nprocs(total)=   12   nprocs(compute)=   11   nprocs(helper)=    1

 Using customized tuning parameters: mindgm=7; mindgv=16; mindgc=1; mindgr=1; noblas=0; minvec=7
 default implementation of scratch files=sf

 --><job>
  <!--

 Variables initialized (889), CPU time= 0.02 sec
 Commands  initialized (702), CPU time= 0.01 sec, 572 directives.
 Default parameters read. Elapsed time= 0.11 sec

 Checking input...
 Passed
1


                                         ***  PROGRAM SYSTEM MOLPRO  ***
                                       Copyright, TTI GmbH Stuttgart, 2015
                                    Version 2015.1 linked Dec 29 2018 15:55:43


 **********************************************************************************************************************************
 LABEL *   Calculation for Lu atom, singlet and triplet
  64 bit mpp version                                                                     DATE: 17-Apr-23          TIME: 12:16:14
 **********************************************************************************************************************************

 SHA1:             19cd028119e0e09f93f0674bd8af7968d9b3eff6
 **********************************************************************************************************************************
  -->
  <!--

 THRESHOLDS:

 ZERO    =  1.00D-12  ONEINT  =  1.00D-12  TWOINT  =  1.00D-15  PREFAC  =  1.00D-14  LOCALI  =  1.00D-09  EORDER  =  1.00D-04
 ENERGY  =  0.00D+00  ETEST   =  0.00D+00  EDENS   =  0.00D+00  THRDEDEF=  1.00D-06  GRADIENT=  1.00D-02  STEP    =  1.00D-03
 ORBITAL =  1.00D-05  CIVEC   =  1.00D-05  COEFF   =  1.00D-04  PRINTCI =  5.00D-02  PUNCHCI =  9.90D+01  OPTGRAD =  3.00D-04
 OPTENERG=  1.00D-06  OPTSTEP =  3.00D-04  THRGRAD =  1.00D-10  COMPRESS=  1.00D-11  VARMIN  =  1.00D-07  VARMAX  =  1.00D-03
 THRDOUB =  0.00D+00  THRDIV  =  1.00D-05  THRRED  =  1.00D-07  THRPSP  =  1.00D+00  THRDC   =  1.00D-10  THRCS   =  1.00D-10
 THRNRM  =  1.00D-08  THREQ   =  0.00D+00  THRDE   =  1.00D+00  THRREF  =  1.00D-05  SPARFAC =  1.00D+00  THRDLP  =  1.00D-07
 THRDIA  =  1.00D-10  THRDLS  =  1.00D-07  THRGPS  =  0.00D+00  THRKEX  =  0.00D+00  THRDIS  =  2.00D-01  THRVAR  =  1.00D-10
 THRLOC  =  1.00D-06  THRGAP  =  1.00D-06  THRLOCT = -1.00D+00  THRGAPT = -1.00D+00  THRORB  =  1.00D-06  THRMLTP =  0.00D+00
 THRCPQCI=  1.00D-10  KEXTA   =  0.00D+00  THRCOARS=  0.00D+00  SYMTOL  =  1.00D-06  GRADTOL =  1.00D-06  THROVL  =  1.00D-08
 THRORTH =  1.00D-08  GRID    =  1.00D-06  GRIDMAX =  1.00D-03  DTMAX   =  0.00D+00  THROCCDE=  1.00D-01  THROCCDE=  1.00D-01



 THRESHOLDS:

 ZERO    =  1.00D-12  ONEINT  =  1.00D-15  TWOINT  =  1.00D-15  PREFAC  =  1.00D-14  LOCALI  =  1.00D-09  EORDER  =  1.00D-04
 ENERGY  =  0.00D+00  ETEST   =  0.00D+00  EDENS   =  0.00D+00  THRDEDEF=  1.00D-06  GRADIENT=  1.00D-02  STEP    =  1.00D-03
 ORBITAL =  1.00D-05  CIVEC   =  1.00D-05  COEFF   =  1.00D-04  PRINTCI =  5.00D-02  PUNCHCI =  9.90D+01  OPTGRAD =  3.00D-04
 OPTENERG=  1.00D-06  OPTSTEP =  3.00D-04  THRGRAD =  1.00D-10  COMPRESS=  1.00D-11  VARMIN  =  1.00D-07  VARMAX  =  1.00D-03
 THRDOUB =  0.00D+00  THRDIV  =  1.00D-05  THRRED  =  1.00D-07  THRPSP  =  1.00D+00  THRDC   =  1.00D-10  THRCS   =  1.00D-10
 THRNRM  =  1.00D-08  THREQ   =  0.00D+00  THRDE   =  1.00D+00  THRREF  =  1.00D-05  SPARFAC =  1.00D+00  THRDLP  =  1.00D-07
 THRDIA  =  1.00D-10  THRDLS  =  1.00D-07  THRGPS  =  0.00D+00  THRKEX  =  0.00D+00  THRDIS  =  2.00D-01  THRVAR  =  1.00D-10
 THRLOC  =  1.00D-06  THRGAP  =  1.00D-06  THRLOCT = -1.00D+00  THRGAPT = -1.00D+00  THRORB  =  1.00D-06  THRMLTP =  0.00D+00
 THRCPQCI=  1.00D-10  KEXTA   =  0.00D+00  THRCOARS=  0.00D+00  SYMTOL  =  1.00D-06  GRADTOL =  1.00D-06  THROVL  =  1.00D-08
 THRORTH =  1.00D-08  GRID    =  1.00D-06  GRIDMAX =  1.00D-03  DTMAX   =  0.00D+00  THROCCDE=  1.00D-01  THROCCDE=  1.00D-01



Geometry recognized as XYZ


 Variable memory set to 1000000000 words,  buffer space   230000 words

 SETTING BASIS          =    USERDEF

 DO I                   =        10.00000000

 Running procedure=IIIEF1
  --><jobstep command="RHF-SCF" commandset="SCFPRO">
   <!--


 Recomputing integrals since basis changed


 Using spherical harmonics



 PROGRAM * SEWARD (Integral evaluation for generally contracted gaussian basis sets)     Author: Roland Lindh, 1990

 Geometry written to block  1 of record 700

 Orientation using atomic masses
 Molecule type: Atom
 Symmetry elements: X,Y,Z
 Rotational constants:       0.0000000      0.0000000      0.0000000 GHz  (calculated with average atomic masses)

 Point group  D2h


   --><cml:molecule>
    <cml:symmetry pointGroup="D2h"/>
    <cml:atomArray>
     <cml:atom id="a1" elementType="Lu" x3="0.0" y3="0.0" z3="0.0"/>
    </cml:atomArray>
    <cml:bondArray>
    </cml:bondArray>
   </cml:molecule><!--

 ATOMIC COORDINATES

 NR  ATOM    CHARGE       X              Y              Z

   1  LU     25.00    0.000000000    0.000000000    0.000000000

 NUCLEAR CHARGE:                   25
 NUMBER OF PRIMITIVE AOS:         503
 NUMBER OF SYMMETRY AOS:          380
 NUMBER OF CONTRACTIONS:          380   (  85Ag  +  62B3u +  62B2u +  30B1g +  62B1u +  30B2g +  30B3g +  19Au  )
 NUMBER OF CORE ORBITALS:           0   (   0Ag  +   0B3u +   0B2u +   0B1g +   0B1u +   0B2g +   0B3g +   0Au  )
 NUMBER OF VALENCE ORBITALS:       17   (   4Ag  +   3B3u +   3B2u +   1B1g +   3B1u +   1B2g +   1B3g +   1Au  )


 NUCLEAR REPULSION ENERGY    0.00000000

 EXTRA SYMMETRY OF AOS IN SYMMETRY 1:   1 1 1 1 1 1 1 1 1 1   1 1 1 1 1 1 1 1 1 1   1 1 1 1 1 1 1 1 1 1   1 2 3 2 3 2 3 2 3 2
                                        3 2 3 2 3 2 3 2 3 2   3 2 3 2 3 2 3 2 3 2   3 2 3 2 3 2 3 4 5 6   4 5 6 4 5 6 4 5 6 4
                                        5 6 4 5 6
 EXTRA SYMMETRY OF AOS IN SYMMETRY 2:   1 1 1 1 1 1 1 1 1 1   1 1 1 1 1 1 1 1 1 1   1 1 1 1 1 1 1 2 3 2   3 2 3 2 3 2 3 2 3 2
                                        3 2 3 2 3 2 3 2 3 2   3 2 3 4 5 6 4 5 6 4   5 6
 EXTRA SYMMETRY OF AOS IN SYMMETRY 3:   1 1 1 1 1 1 1 1 1 1   1 1 1 1 1 1 1 1 1 1   1 1 1 1 1 1 1 2 3 2   3 2 3 2 3 2 3 2 3 2
                                        3 2 3 2 3 2 3 2 3 2   3 2 3 4 5 6 4 5 6 4   5 6
 EXTRA SYMMETRY OF AOS IN SYMMETRY 4:   1 1 1 1 1 1 1 1 1 1   1 1 1 1 1 1 1 1 2 3   2 3 2 3 2 3 2 3 2 3
 EXTRA SYMMETRY OF AOS IN SYMMETRY 5:   1 1 1 1 1 1 1 1 1 1   1 1 1 1 1 1 1 1 1 1   1 1 1 1 1 1 1 2 3 2   3 2 3 2 3 2 3 2 3 2
                                        3 2 3 2 3 2 3 2 3 2   3 2 3 4 5 6 4 5 6 4   5 6
 EXTRA SYMMETRY OF AOS IN SYMMETRY 6:   1 1 1 1 1 1 1 1 1 1   1 1 1 1 1 1 1 1 2 3   2 3 2 3 2 3 2 3 2 3
 EXTRA SYMMETRY OF AOS IN SYMMETRY 7:   1 1 1 1 1 1 1 1 1 1   1 1 1 1 1 1 1 1 2 3   2 3 2 3 2 3 2 3 2 3
 EXTRA SYMMETRY OF AOS IN SYMMETRY 8:   1 1 1 1 1 1 1 1 1 1   1 1 1 2 3 2 3 2 3

 Eigenvalues of metric

         1 0.433E-04 0.526E-04 0.113E-03 0.205E-03 0.387E-03 0.579E-03 0.702E-03 0.702E-03
         2 0.122E-04 0.207E-04 0.110E-03 0.494E-03 0.158E-02 0.385E-02 0.728E-02 0.144E-01
         3 0.122E-04 0.207E-04 0.110E-03 0.494E-03 0.158E-02 0.385E-02 0.728E-02 0.144E-01
         4 0.702E-03 0.220E-02 0.838E-02 0.215E-01 0.345E-01 0.566E-01 0.104E+00 0.174E+00
         5 0.122E-04 0.207E-04 0.110E-03 0.494E-03 0.158E-02 0.385E-02 0.728E-02 0.144E-01
         6 0.702E-03 0.220E-02 0.838E-02 0.215E-01 0.345E-01 0.566E-01 0.104E+00 0.174E+00
         7 0.702E-03 0.220E-02 0.838E-02 0.215E-01 0.345E-01 0.566E-01 0.104E+00 0.174E+00
         8 0.144E-01 0.330E-01 0.524E-01 0.114E+00 0.217E+00 0.268E+00 0.268E+00 0.366E+00


 Contracted 2-electron integrals neglected if value below      1.0D-15
 AO integral compression algorithm  1   Integral accuracy      1.0D-15

     1959.002 MB (compressed) written to integral file ( 43.0%)

     Node minimum: 94.896 MB, node maximum: 233.570 MB


 NUMBER OF SORTED TWO-ELECTRON INTEGRALS:   30461001.     BUFFER LENGTH:  32768
 NUMBER OF SEGMENTS:   1  SEGMENT LENGTH:   30461001      RECORD LENGTH: 524288

 Memory used in sort:      31.02 MW

 SORT1 READ   568811974. AND WROTE    17301157. INTEGRALS IN     50 RECORDS. CPU TIME:    16.56 SEC, REAL TIME:    19.57 SEC
 SORT2 READ   190908661. AND WROTE   335703620. INTEGRALS IN   5335 RECORDS. CPU TIME:     0.60 SEC, REAL TIME:     3.37 SEC

 Node minimum:    30394465.  Node maximum:    30635607. integrals

 OPERATOR DM      FOR CENTER  0  COORDINATES:    0.000000    0.000000    0.000000


 **********************************************************************************************************************************
 DATASETS  * FILE   NREC   LENGTH (MB)   RECORD NAMES
              1      19       20.90       500      610      700      900      950      970     1000      129      960     1100
                                          VAR    BASINP    GEOM    SYMINP    ZMAT    AOBASIS   BASIS     P2S    ABASIS      S
                                         1400     1410     1420     1200     1210     1080     1600     1650     1700
                                           T        V       ECP      H0       H01     AOSYM     SMH    MOLCAS    OPER

 PROGRAMS   *        TOTAL       INT
 CPU TIMES  *        69.20     68.80
 REAL TIME  *        77.29 SEC
 DISK USED  *         4.27 GB
 GA USED    *         0.00 MB       (max)       0.00 MB       (current)
 **********************************************************************************************************************************


 PROGRAM * RHF-SCF (CLOSED SHELL)       Authors: W. Meyer, H.-J. Werner


 NUMBER OF ELECTRONS:      11+   11-    SPACE SYMMETRY=1    SPIN SYMMETRY: Singlet
 CONVERGENCE THRESHOLDS:    1.00E-05 (Density)    1.00E-07 (Energy)
 MAX. NUMBER OF ITERATIONS:      150
 INTERPOLATION TYPE:            DIIS
 INTERPOLATION STEPS:              2 (START)      1 (STEP)
 LEVEL SHIFTS:                  0.00 (CLOSED)  0.00 (OPEN)

 Number of closed-shell orbitals:   11 (   1   3   3   0   3   0   0   1 )



 Extra symmetries of mos in symmetry 2:   3   2   1   3   2
 Extra symmetries of mos in symmetry 3:   3   2   1   3   2
 Extra symmetries of mos in symmetry 5:   3   2   1   3   2
 Guess basis ATOMIC-GUESS,LU=ECP46_GUESS not found. No density guess!


 Molecular orbital dump at record        4202.2

 ITERATION    DDIFF          GRAD             ENERGY        2-EL.EN.            DIPOLE MOMENTS         DIIS   ORB.
    1      0.000D+00      0.000D+00      -171.41043136    496.305517    0.00000    0.00000    0.00000    0    start
    2      0.000D+00      0.454D+00      -130.81744617     95.882606    0.00000    0.00000    0.00000    0    diag
    3      0.155D+00      0.256D+00      -176.95865812    484.237359    0.00000    0.00000    0.00000    1    diag
    4      0.113D+00      0.423D+00      -195.44437710    434.669946    0.00000    0.00000    0.00000    2    diag
    5      0.635D-01      0.255D+00      -204.83950332    391.846919    0.00000    0.00000    0.00000    3    diag
    6      0.432D-01      0.135D+00      -208.85202325    344.949234    0.00000    0.00000    0.00000    4    diag
    7      0.280D-01      0.154D-01      -208.93562362    335.965448    0.00000    0.00000    0.00000    5    diag
    8      0.383D-02      0.346D-02      -208.93766820    336.642770    0.00000    0.00000    0.00000    6    diag
    9      0.834D-03      0.998D-03      -208.93784972    336.953255    0.00000    0.00000    0.00000    7    diag
   10      0.194D-03      0.708D-04      -208.93785063    336.986932    0.00000    0.00000    0.00000    8    orth
   11      0.112D-04      0.176D-04      -208.93785070    336.980020    0.00000    0.00000    0.00000    9    diag
   12      0.252D-05      0.142D-06      -208.93785070    336.979961    0.00000    0.00000    0.00000    0    orth

 Final occupancy:   1   3   3   0   3   0   0   1

 !RHF STATE 1.1 Energy               -208.937850698017
   --><property name="Energy" method="RHF" principal="true" stateSymmetry="1" stateNumber="1"
     value="-208.937850698017"/><!--
 Nuclear energy                         0.00000000
 One-electron energy                 -377.42783099
 Two-electron energy                  168.48998029
 Virial quotient                       -1.20792555
 !RHF STATE 1.1 Dipole moment           0.00000000     0.00000000     0.00000000
 Dipole moment /Debye                   0.00000000     0.00000000     0.00000000
   --><property name="Dipole moment" method="RHF" principal="true" stateSymmetry="1"
     stateNumber="1" value="0.0 0.0 0.0"/><!--

 ELECTRON ORBITALS
 =================


   Orb  Occ    Energy  Couls-En    Coefficients

                                   1 1s      1 1s      1 1s      1 1s      1 1s      1 1s      1 1s      1 1s      1 1s      1 1s
                                   1 1s      1 1s      1 1s      1 1s      1 1s      1 1s      1 1s      1 1s      1 1s      1 1s
                                   1 1s      1 1s      1 1s      1 1s      1 1s      1 1s      1 1s      1 1s      1 1s      1 1s
                                   1 1s      1 3d0     1 3d2+    1 3d0     1 3d2+    1 3d0     1 3d2+    1 3d0     1 3d2+    1 3d0
                                   1 3d2+    1 3d0     1 3d2+    1 3d0     1 3d2+    1 3d0     1 3d2+    1 3d0     1 3d2+    1 3d0
                                   1 3d2+    1 3d0     1 3d2+    1 3d0     1 3d2+    1 3d0     1 3d2+    1 3d0     1 3d2+    1 3d0
                                   1 3d2+    1 3d0     1 3d2+    1 3d0     1 3d2+    1 3d0     1 3d2+    1 5g0     1 5g4+    1 5g2+
                                   1 5g0     1 5g4+    1 5g2+    1 5g0     1 5g4+    1 5g2+    1 5g0     1 5g4+    1 5g2+    1 5g0
                                   1 5g4+    1 5g2+    1 5g0     1 5g4+    1 5g2+

   1.1   2    -3.7453  -21.7686 -0.000000  0.000000 -0.000000  0.000000 -0.000000  0.000000 -0.000000  0.000000 -0.000000  0.000001
                                -0.000001  0.000003 -0.000008  0.000017 -0.000033  0.000053 -0.000045 -0.000094  0.000470 -0.007509
                                -0.019057  0.399817 -1.014305  0.037303  1.017729  0.341984  0.034637 -0.023082  0.020866 -0.017437
                                 0.005828 -0.000000 -0.000000  0.000000  0.000000 -0.000000 -0.000000  0.000000  0.000000 -0.000000
                                -0.000000  0.000000  0.000000 -0.000000 -0.000000  0.000000  0.000000 -0.000000 -0.000000  0.000000
                                 0.000000 -0.000000 -0.000000  0.000000  0.000000 -0.000000 -0.000000 -0.000000  0.000000 -0.000000
                                -0.000000  0.000000  0.000000 -0.000000 -0.000000  0.000000  0.000000  0.000000 -0.000000 -0.000000
                                -0.000000  0.000000  0.000000  0.000000 -0.000000  0.000000 -0.000000 -0.000000 -0.000000  0.000000
                                 0.000000  0.000000 -0.000000 -0.000000 -0.000000

   2.1   0    -0.9050  -13.1036 -0.000000 -0.000000  0.000000 -0.000000  0.000000 -0.000000  0.000000 -0.000000  0.000000 -0.000000
                                 0.000000 -0.000000  0.000000 -0.000000  0.000000 -0.000000  0.000000 -0.000000  0.000000 -0.000000
                                 0.000000 -0.000000  0.000000 -0.000000  0.000000 -0.000000  0.000000 -0.000000  0.000000 -0.000000
                                 0.000000 -0.000000 -0.000000  0.000000  0.000001 -0.000001 -0.000008  0.000002  0.000034 -0.000008
                                -0.000119  0.000024  0.000356 -0.000064 -0.000935  0.000150  0.002179 -0.000310 -0.004519  0.000548
                                 0.007988 -0.000699 -0.010189 -0.004891 -0.071244  0.027115  0.394976  0.038680  0.563438  0.018340
                                 0.267163 -0.009494 -0.138291  0.010756  0.156686 -0.003380 -0.049236  0.000000 -0.000000  0.000000
                                -0.000000  0.000000 -0.000000  0.000000 -0.000000  0.000000 -0.000000  0.000000 -0.000000  0.000000
                                -0.000000  0.000000 -0.000000  0.000000  0.000000

   3.1   0    -0.9050  -13.1036  0.000000 -0.000000  0.000000 -0.000000  0.000000 -0.000000  0.000000 -0.000000  0.000000 -0.000000
                                 0.000000 -0.000000  0.000000 -0.000000  0.000000 -0.000000  0.000000 -0.000000  0.000000 -0.000000
                                 0.000000 -0.000000  0.000000 -0.000000  0.000000 -0.000000  0.000000 -0.000000  0.000000 -0.000000
                                 0.000000 -0.000000  0.000000  0.000001 -0.000000 -0.000008  0.000001  0.000034 -0.000002 -0.000119
                                 0.000008  0.000356 -0.000024 -0.000935  0.000064  0.002179 -0.000150 -0.004519  0.000310  0.007988
                                -0.000548 -0.010189  0.000699 -0.071244  0.004891  0.394976 -0.027115  0.563438 -0.038680  0.267163
                                -0.018340 -0.138291  0.009494  0.156686 -0.010756 -0.049236  0.003380  0.000000  0.000000 -0.000000
                                -0.000000 -0.000000  0.000000  0.000000  0.000000 -0.000000 -0.000000 -0.000000 -0.000000  0.000000
                                -0.000000 -0.000000 -0.000000  0.000000  0.000000

                                   1 2px     1 2px     1 2px     1 2px     1 2px     1 2px     1 2px     1 2px     1 2px     1 2px
                                   1 2px     1 2px     1 2px     1 2px     1 2px     1 2px     1 2px     1 2px     1 2px     1 2px
                                   1 2px     1 2px     1 2px     1 2px     1 2px     1 2px     1 2px     1 4f1+    1 4f3+    1 4f1+
                                   1 4f3+    1 4f1+    1 4f3+    1 4f1+    1 4f3+    1 4f1+    1 4f3+    1 4f1+    1 4f3+    1 4f1+
                                   1 4f3+    1 4f1+    1 4f3+    1 4f1+    1 4f3+    1 4f1+    1 4f3+    1 4f1+    1 4f3+    1 4f1+
                                   1 4f3+    1 4f1+    1 4f3+    1 6h1+    1 6h3+    1 6h5+    1 6h1+    1 6h3+    1 6h5+    1 6h1+
                                   1 6h3+    1 6h5+

   1.2   2    -1.2302  -18.6966 -0.000000  0.000000 -0.000000  0.000000 -0.000000  0.000000 -0.000000  0.000000 -0.000000  0.000000
                                -0.000000  0.000000 -0.000000  0.000000 -0.000000  0.000000 -0.000000  0.000000 -0.000000  0.000000
                                -0.000000  0.000000 -0.000000  0.000000  0.000000 -0.000000 -0.000000  0.000006  0.000027 -0.000041
                                -0.000179  0.000187  0.000820 -0.000655 -0.002870  0.013957  0.061174  0.052287  0.229184  0.057575
                                 0.252362  0.080217  0.351607  0.067728  0.296863  0.033882  0.148511  0.004288  0.018796 -0.000707
                                -0.003098  0.000131  0.000573 -0.000000 -0.000000 -0.000000 -0.000000 -0.000000 -0.000000  0.000000
                                 0.000000  0.000000

   2.2   2    -1.2302  -18.6966  0.000000 -0.000000  0.000000 -0.000000  0.000000 -0.000000  0.000000 -0.000000  0.000000 -0.000000
                                 0.000000 -0.000000  0.000000 -0.000000  0.000000 -0.000000  0.000000 -0.000000  0.000000 -0.000000
                                 0.000000 -0.000000  0.000000 -0.000000 -0.000000  0.000000  0.000000 -0.000027  0.000006  0.000179
                                -0.000041 -0.000820  0.000187  0.002870 -0.000655 -0.061174  0.013957 -0.229184  0.052287 -0.252362
                                 0.057575 -0.351607  0.080217 -0.296863  0.067728 -0.148511  0.033882 -0.018796  0.004288  0.003098
                                -0.000707 -0.000573  0.000131  0.000000  0.000000 -0.000000  0.000000 -0.000000  0.000000 -0.000000
                                 0.000000 -0.000000

   3.2   2    -2.6224  -18.7644 -0.000000  0.000000 -0.000000  0.000000 -0.000000  0.000001 -0.000003  0.000009 -0.000031  0.000098
                                -0.000284  0.000781 -0.002095  0.006002 -0.019749  0.128828 -0.260230  0.283108 -0.391337  0.059893
                                 0.801937 -0.131205  0.442711 -0.065258  0.012173  0.005194  0.062730 -0.000000 -0.000000  0.000000
                                 0.000000 -0.000000 -0.000000  0.000000  0.000000 -0.000000 -0.000000 -0.000000 -0.000000  0.000000
                                -0.000000  0.000000  0.000000 -0.000000 -0.000000 -0.000000 -0.000000  0.000000  0.000000 -0.000000
                                 0.000000 -0.000000 -0.000000 -0.000000  0.000000  0.000000 -0.000000 -0.000000  0.000000  0.000000
                                -0.000000 -0.000000

   4.2   0    -0.2777   -4.6459  0.000000 -0.000000  0.000000 -0.000000  0.000000 -0.000000  0.000000 -0.000000  0.000000 -0.000000
                                 0.000000 -0.000000  0.000000 -0.000000  0.000000 -0.000000  0.000000 -0.000000  0.000000 -0.000000
                                -0.000000 -0.000000 -0.000000 -0.000000 -0.000000 -0.000000  0.000000 -0.000001 -0.000004  0.000007
                                 0.000029 -0.000034 -0.000131  0.000119  0.000457 -0.002050 -0.007889 -0.007142 -0.027484 -0.008452
                                -0.032524 -0.009949 -0.038284 -0.007326 -0.028191  0.010462  0.040260  0.066674  0.256574  0.104662
                                 0.402761  0.106878  0.411292 -0.000000 -0.000000 -0.000000  0.000000  0.000000  0.000000 -0.000000
                                -0.000000 -0.000000

   5.2   0    -0.2777   -4.6459 -0.000000  0.000000 -0.000000  0.000000 -0.000000  0.000000 -0.000000  0.000000 -0.000000  0.000000
                                -0.000000  0.000000 -0.000000  0.000000 -0.000000  0.000000 -0.000000  0.000000 -0.000000  0.000000
                                -0.000000  0.000000 -0.000000  0.000000  0.000000 -0.000000 -0.000000 -0.000004  0.000001  0.000029
                                -0.000007 -0.000131  0.000034  0.000457 -0.000119 -0.007889  0.002050 -0.027484  0.007142 -0.032524
                                 0.008452 -0.038284  0.009949 -0.028191  0.007326  0.040260 -0.010462  0.256574 -0.066674  0.402761
                                -0.104662  0.411292 -0.106878  0.000000 -0.000000 -0.000000 -0.000000  0.000000  0.000000  0.000000
                                -0.000000  0.000000

                                   1 2py     1 2py     1 2py     1 2py     1 2py     1 2py     1 2py     1 2py     1 2py     1 2py
                                   1 2py     1 2py     1 2py     1 2py     1 2py     1 2py     1 2py     1 2py     1 2py     1 2py
                                   1 2py     1 2py     1 2py     1 2py     1 2py     1 2py     1 2py     1 4f1-    1 4f3-    1 4f1-
                                   1 4f3-    1 4f1-    1 4f3-    1 4f1-    1 4f3-    1 4f1-    1 4f3-    1 4f1-    1 4f3-    1 4f1-
                                   1 4f3-    1 4f1-    1 4f3-    1 4f1-    1 4f3-    1 4f1-    1 4f3-    1 4f1-    1 4f3-    1 4f1-
                                   1 4f3-    1 4f1-    1 4f3-    1 6h1-    1 6h3-    1 6h5-    1 6h1-    1 6h3-    1 6h5-    1 6h1-
                                   1 6h3-    1 6h5-

   1.3   2    -1.2302  -18.6966 -0.000000  0.000000 -0.000000  0.000000 -0.000000  0.000000 -0.000000  0.000000 -0.000000  0.000000
                                -0.000000  0.000000 -0.000000  0.000000 -0.000000  0.000000 -0.000000  0.000000 -0.000000  0.000000
                                -0.000000  0.000000 -0.000000  0.000000  0.000000 -0.000000 -0.000000  0.000015 -0.000023 -0.000100
                                 0.000154  0.000456 -0.000706 -0.001597  0.002473  0.034044 -0.052707  0.127545 -0.197463  0.140444
                                -0.217433  0.195675 -0.302942  0.165209 -0.255775  0.082649 -0.127956  0.010460 -0.016194 -0.001724
                                 0.002669  0.000319 -0.000494  0.000000 -0.000000  0.000000 -0.000000  0.000000 -0.000000  0.000000
                                -0.000000 -0.000000

   2.3   2    -1.2302  -18.6966 -0.000000  0.000000  0.000000 -0.000000  0.000000 -0.000000  0.000000 -0.000000  0.000000 -0.000000
                                 0.000000 -0.000000  0.000000 -0.000000  0.000000 -0.000000  0.000000 -0.000000  0.000000 -0.000000
                                 0.000000 -0.000000  0.000000 -0.000000 -0.000000  0.000000  0.000000  0.000023  0.000015 -0.000154
                                -0.000100  0.000706  0.000456 -0.002473 -0.001597  0.052707  0.034044  0.197463  0.127545  0.217433
                                 0.140444  0.302942  0.195675  0.255775  0.165209  0.127956  0.082649  0.016194  0.010460 -0.002669
                                -0.001724  0.000494  0.000319 -0.000000 -0.000000  0.000000 -0.000000 -0.000000  0.000000 -0.000000
                                 0.000000  0.000000

   3.3   2    -2.6224  -18.7644 -0.000000  0.000000 -0.000000  0.000000 -0.000000  0.000001 -0.000003  0.000009 -0.000031  0.000098
                                -0.000284  0.000781 -0.002095  0.006002 -0.019749  0.128828 -0.260230  0.283108 -0.391337  0.059893
                                 0.801937 -0.131205  0.442711 -0.065258  0.012173  0.005194  0.062730 -0.000000  0.000000  0.000000
                                -0.000000 -0.000000  0.000000  0.000000 -0.000000 -0.000000  0.000000 -0.000000  0.000000 -0.000000
                                 0.000000  0.000000 -0.000000 -0.000000  0.000000 -0.000000  0.000000  0.000000 -0.000000 -0.000000
                                -0.000000  0.000000 -0.000000 -0.000000 -0.000000  0.000000  0.000000  0.000000 -0.000000 -0.000000
                                -0.000000 -0.000000

   4.3   0    -0.2777   -4.6459 -0.000000  0.000000 -0.000000  0.000000 -0.000000  0.000000 -0.000000  0.000000 -0.000000  0.000000
                                -0.000000  0.000000 -0.000000  0.000000 -0.000000  0.000000 -0.000000  0.000000 -0.000000  0.000000
                                 0.000000 -0.000000  0.000000  0.000000  0.000000  0.000000 -0.000000  0.000002 -0.000004 -0.000013
                                 0.000027  0.000060 -0.000121 -0.000211  0.000423  0.003634 -0.007296  0.012661 -0.025419  0.014982
                                -0.030079  0.017635 -0.035407  0.012986 -0.026073 -0.018545  0.037234 -0.118189  0.237291 -0.185530
                                 0.372491 -0.189459  0.380380  0.000000 -0.000000 -0.000000 -0.000000 -0.000000  0.000000 -0.000000
                                 0.000000 -0.000000

   5.3   0    -0.2777   -4.6459 -0.000000  0.000000 -0.000000 -0.000000  0.000000 -0.000000  0.000000 -0.000000  0.000000 -0.000000
                                 0.000000 -0.000000  0.000000 -0.000000  0.000000 -0.000000  0.000000 -0.000000  0.000000 -0.000000
                                 0.000000 -0.000000  0.000000  0.000000 -0.000000 -0.000000 -0.000000 -0.000004 -0.000002  0.000027
                                 0.000013 -0.000121 -0.000060  0.000423  0.000211 -0.007296 -0.003634 -0.025419 -0.012661 -0.030079
                                -0.014982 -0.035407 -0.017635 -0.026073 -0.012986  0.037234  0.018545  0.237291  0.118189  0.372491
                                 0.185530  0.380380  0.189459 -0.000000  0.000000 -0.000000  0.000000  0.000000  0.000000 -0.000000
                                -0.000000 -0.000000

                                   1 3d2-    1 3d2-    1 3d2-    1 3d2-    1 3d2-    1 3d2-    1 3d2-    1 3d2-    1 3d2-    1 3d2-
                                   1 3d2-    1 3d2-    1 3d2-    1 3d2-    1 3d2-    1 3d2-    1 3d2-    1 3d2-    1 5g2-    1 5g4-
                                   1 5g2-    1 5g4-    1 5g2-    1 5g4-    1 5g2-    1 5g4-    1 5g2-    1 5g4-    1 5g2-    1 5g4-


   1.4   0    -0.9050  -13.1036 -0.000000  0.000001 -0.000008  0.000034 -0.000120  0.000357 -0.000937  0.002184 -0.004529  0.008006
                                -0.010213 -0.071412  0.395906  0.564764  0.267791 -0.138617  0.157054 -0.049352 -0.000000  0.000000
                                -0.000000 -0.000000  0.000000  0.000000  0.000000 -0.000000  0.000000 -0.000000 -0.000000 -0.000000

   2.4   0    -0.3590   -5.3547  0.000000 -0.000001  0.000004 -0.000015  0.000051 -0.000153  0.000401 -0.000935  0.001942 -0.003522
                                 0.005081  0.023874 -0.146722 -0.247599  0.032594  0.959922 -0.445605  0.525051  0.000000 -0.000000
                                 0.000000  0.000000 -0.000000 -0.000000 -0.000000 -0.000000 -0.000000 -0.000000 -0.000000  0.000000

                                   1 2pz     1 2pz     1 2pz     1 2pz     1 2pz     1 2pz     1 2pz     1 2pz     1 2pz     1 2pz
                                   1 2pz     1 2pz     1 2pz     1 2pz     1 2pz     1 2pz     1 2pz     1 2pz     1 2pz     1 2pz
                                   1 2pz     1 2pz     1 2pz     1 2pz     1 2pz     1 2pz     1 2pz     1 4f0     1 4f2+    1 4f0
                                   1 4f2+    1 4f0     1 4f2+    1 4f0     1 4f2+    1 4f0     1 4f2+    1 4f0     1 4f2+    1 4f0
                                   1 4f2+    1 4f0     1 4f2+    1 4f0     1 4f2+    1 4f0     1 4f2+    1 4f0     1 4f2+    1 4f0
                                   1 4f2+    1 4f0     1 4f2+    1 6h2+    1 6h4+    1 6h0     1 6h2+    1 6h4+    1 6h0     1 6h2+
                                   1 6h4+    1 6h0

   1.5   2    -1.2302  -18.6966 -0.000000  0.000000 -0.000000  0.000000 -0.000000  0.000000 -0.000000  0.000000 -0.000000  0.000000
                                -0.000000  0.000000 -0.000000  0.000000 -0.000000  0.000000 -0.000000  0.000000 -0.000000  0.000000
                                -0.000000  0.000000 -0.000000  0.000000  0.000000 -0.000000 -0.000000  0.000015  0.000023 -0.000101
                                -0.000153  0.000465  0.000701 -0.001627 -0.002453  0.034685  0.052288  0.129944  0.195893  0.143085
                                 0.215704  0.199356  0.300533  0.168316  0.253741  0.084203  0.126938  0.010657  0.016066 -0.001756
                                -0.002648  0.000325  0.000490  0.000000 -0.000000 -0.000000 -0.000000  0.000000 -0.000000  0.000000
                                -0.000000 -0.000000

   2.5   2    -1.2302  -18.6966 -0.000000 -0.000000  0.000000 -0.000000  0.000000 -0.000000  0.000000 -0.000000  0.000000 -0.000000
                                 0.000000 -0.000000  0.000000 -0.000000  0.000000 -0.000000  0.000000 -0.000000  0.000000 -0.000000
                                 0.000000 -0.000000  0.000000 -0.000000 -0.000000  0.000000  0.000000  0.000023 -0.000015 -0.000153
                                 0.000101  0.000701 -0.000465 -0.002453  0.001627  0.052288 -0.034685  0.195893 -0.129944  0.215704
                                -0.143085  0.300533 -0.199356  0.253741 -0.168316  0.126938 -0.084203  0.016066 -0.010657 -0.002648
                                 0.001756  0.000490 -0.000325 -0.000000  0.000000 -0.000000  0.000000  0.000000 -0.000000 -0.000000
                                 0.000000  0.000000

   3.5   2    -2.6224  -18.7644 -0.000000  0.000000 -0.000000  0.000000 -0.000000  0.000001 -0.000003  0.000009 -0.000031  0.000098
                                -0.000284  0.000781 -0.002095  0.006002 -0.019749  0.128828 -0.260230  0.283108 -0.391337  0.059893
                                 0.801937 -0.131205  0.442711 -0.065258  0.012173  0.005194  0.062730 -0.000000 -0.000000  0.000000
                                 0.000000 -0.000000 -0.000000  0.000000  0.000000 -0.000000  0.000000  0.000000 -0.000000 -0.000000
                                 0.000000  0.000000  0.000000 -0.000000 -0.000000 -0.000000 -0.000000  0.000000  0.000000  0.000000
                                 0.000000 -0.000000 -0.000000 -0.000000 -0.000000  0.000000  0.000000  0.000000 -0.000000 -0.000000
                                -0.000000  0.000000

   4.5   0    -0.2777   -4.6459 -0.000000 -0.000000  0.000000 -0.000000  0.000000 -0.000000  0.000000 -0.000000  0.000000 -0.000000
                                 0.000000 -0.000000  0.000000 -0.000000  0.000000 -0.000000  0.000000 -0.000000  0.000000 -0.000000
                                -0.000000 -0.000000 -0.000000 -0.000000 -0.000000 -0.000000  0.000000 -0.000002 -0.000004  0.000013
                                 0.000027 -0.000060 -0.000121  0.000209  0.000424 -0.003601 -0.007312 -0.012545 -0.025476 -0.014845
                                -0.030147 -0.017474 -0.035487 -0.012868 -0.026131  0.018376  0.037318  0.117111  0.237825  0.183837
                                 0.373329  0.187731  0.381236 -0.000000 -0.000000 -0.000000  0.000000  0.000000  0.000000 -0.000000
                                -0.000000 -0.000000

   5.5   0    -0.2777   -4.6459  0.000000 -0.000000 -0.000000  0.000000 -0.000000  0.000000 -0.000000  0.000000 -0.000000  0.000000
                                -0.000000  0.000000 -0.000000  0.000000 -0.000000  0.000000 -0.000000  0.000000 -0.000000  0.000000
                                -0.000000  0.000000 -0.000000  0.000000 -0.000000 -0.000000 -0.000000 -0.000004  0.000002  0.000027
                                -0.000013 -0.000121  0.000060  0.000424 -0.000209 -0.007312  0.003601 -0.025476  0.012545 -0.030147
                                 0.014845 -0.035487  0.017474 -0.026131  0.012868  0.037318 -0.018376  0.237825 -0.117111  0.373329
                                -0.183837  0.381236 -0.187731  0.000000 -0.000000  0.000000 -0.000000  0.000000 -0.000000  0.000000
                                -0.000000  0.000000

                                   1 3d1+    1 3d1+    1 3d1+    1 3d1+    1 3d1+    1 3d1+    1 3d1+    1 3d1+    1 3d1+    1 3d1+
                                   1 3d1+    1 3d1+    1 3d1+    1 3d1+    1 3d1+    1 3d1+    1 3d1+    1 3d1+    1 5g1+    1 5g3+
                                   1 5g1+    1 5g3+    1 5g1+    1 5g3+    1 5g1+    1 5g3+    1 5g1+    1 5g3+    1 5g1+    1 5g3+


   1.6   0    -0.9050  -13.1036 -0.000000  0.000001 -0.000008  0.000034 -0.000120  0.000357 -0.000937  0.002184 -0.004529  0.008006
                                -0.010213 -0.071412  0.395906  0.564764  0.267791 -0.138617  0.157054 -0.049352 -0.000000 -0.000000
                                 0.000000  0.000000  0.000000  0.000000 -0.000000 -0.000000  0.000000  0.000000  0.000000  0.000000

   2.6   0    -0.3590   -5.3547  0.000000 -0.000001  0.000004 -0.000015  0.000051 -0.000153  0.000401 -0.000935  0.001942 -0.003522
                                 0.005081  0.023874 -0.146722 -0.247599  0.032594  0.959922 -0.445605  0.525051 -0.000000  0.000000
                                -0.000000 -0.000000 -0.000000 -0.000000 -0.000000  0.000000 -0.000000 -0.000000 -0.000000 -0.000000

                                   1 3d1-    1 3d1-    1 3d1-    1 3d1-    1 3d1-    1 3d1-    1 3d1-    1 3d1-    1 3d1-    1 3d1-
                                   1 3d1-    1 3d1-    1 3d1-    1 3d1-    1 3d1-    1 3d1-    1 3d1-    1 3d1-    1 5g1-    1 5g3-
                                   1 5g1-    1 5g3-    1 5g1-    1 5g3-    1 5g1-    1 5g3-    1 5g1-    1 5g3-    1 5g1-    1 5g3-


   1.7   0    -0.9050  -13.1036 -0.000000  0.000001 -0.000008  0.000034 -0.000120  0.000357 -0.000937  0.002184 -0.004529  0.008006
                                -0.010213 -0.071412  0.395906  0.564764  0.267791 -0.138617  0.157054 -0.049352 -0.000000  0.000000
                                 0.000000 -0.000000  0.000000  0.000000  0.000000  0.000000  0.000000  0.000000 -0.000000 -0.000000

   2.7   0    -0.3590   -5.3547  0.000000 -0.000001  0.000004 -0.000015  0.000051 -0.000153  0.000401 -0.000935  0.001942 -0.003522
                                 0.005081  0.023874 -0.146722 -0.247599  0.032594  0.959922 -0.445605  0.525051  0.000000 -0.000000
                                -0.000000  0.000000 -0.000000 -0.000000 -0.000000 -0.000000 -0.000000 -0.000000  0.000000 -0.000000

                                   1 4f2-    1 4f2-    1 4f2-    1 4f2-    1 4f2-    1 4f2-    1 4f2-    1 4f2-    1 4f2-    1 4f2-
                                   1 4f2-    1 4f2-    1 4f2-    1 6h4-    1 6h2-    1 6h4-    1 6h2-    1 6h4-    1 6h2-

   1.8   2    -1.2302  -18.6966  0.000027 -0.000183  0.000841 -0.002944  0.062746  0.235073  0.258847  0.360642  0.304491  0.152327
                                 0.019279 -0.003177  0.000588 -0.000000 -0.000000 -0.000000 -0.000000  0.000000  0.000000

   2.8   0    -0.2777   -4.6459 -0.000004  0.000030 -0.000135  0.000472 -0.008151 -0.028397 -0.033604 -0.039556 -0.029128  0.041597
                                 0.265096  0.416138  0.424951 -0.000000 -0.000000  0.000000  0.000000 -0.000000 -0.000000

   3.8   0    -0.1599   -3.7330  0.000007 -0.000044  0.000198 -0.000687  0.009389  0.029808  0.039214  0.037172  0.042033 -0.094166
                                -0.172480 -1.065605  1.406607  0.000000  0.000000 -0.000000 -0.000000  0.000000 -0.000000

 HOMO      1.8    -1.230186 =     -33.4751eV
 LUMO      2.1    -0.904963 =     -24.6253eV
 LUMO-HOMO         0.325223 =       8.8498eV


 **********************************************************************************************************************************
 DATASETS  * FILE   NREC   LENGTH (MB)   RECORD NAMES
              1      19       20.94       500      610      700      900      950      970     1000      129      960     1100
                                          VAR    BASINP    GEOM    SYMINP    ZMAT    AOBASIS   BASIS     P2S    ABASIS      S
                                         1400     1410     1420     1200     1210     1080     1600     1650     1700
                                           T        V       ECP      H0       H01     AOSYM     SMH    MOLCAS    OPER

              2       5        5.84       200      700     1000      520     4202
                                        OPTIONS   GEOM     BASIS   MCVARS     RHF

 PROGRAMS   *        TOTAL       RHF       INT
 CPU TIMES  *        70.80      1.60     68.80
 REAL TIME  *        79.21 SEC
 DISK USED  *         4.58 GB
 SF USED    *         0.09 MB
 GA USED    *         0.00 MB       (max)       0.00 MB       (current)
 **********************************************************************************************************************************
   -->
   <time start="12:16:15" end="12:17:33" cpu="70.8" system="4.89" real="79.21"/>
   <storage units="megabyte" memory="8001.84" sf="0.09" df="313.28" eaf="4265.7" ga="0.0"/>
  </jobstep><!--
  --><jobstep command="RHF-SCF" commandset="SCFPRO">
   <!--


 PROGRAM * RHF-SCF (OPEN SHELL)       Authors: W. Meyer, H.-J. Werner


 NUMBER OF ELECTRONS:      12+   11-    SPACE SYMMETRY=2    SPIN SYMMETRY: Doublet
 CONVERGENCE THRESHOLDS:    1.00E-05 (Density)    1.00E-07 (Energy)
 MAX. NUMBER OF ITERATIONS:       60
 INTERPOLATION TYPE:            DIIS
 INTERPOLATION STEPS:              2 (START)      1 (STEP)
 LEVEL SHIFTS:                 -0.60 (CLOSED) -0.30 (OPEN)

 Number of closed-shell orbitals:   11 (   1   3   3   0   3   0   0   1 )
 Number of open-shell orbitals:      1 (   0   1   0   0   0   0   0   0 )


 Molecular orbitals read from record     4202.2  Type=RHF/CANONICAL (state 1.1)

 Molecular orbital dump at record        2122.2

 ITERATION    DDIFF          GRAD             ENERGY        2-EL.EN.            DIPOLE MOMENTS         DIIS   ORB.
    1      0.000D+00      0.000D+00      -209.21557947    345.160795    0.00000    0.00000    0.00000    0    start
    2      0.000D+00      0.404D-03      -209.21563805    344.919161    0.00000    0.00000    0.00000    1    diag,B
    3      0.994D-04      0.320D-03      -209.21566146    345.030884    0.00000    0.00000    0.00000    2    fixocc
    4      0.445D-04      0.788D-04      -209.21566903    345.012669    0.00000    0.00000    0.00000    3    diag,B
    5      0.339D-04      0.284D-04      -209.21567280    345.011633    0.00000    0.00000    0.00000    4    diag,B
    6      0.307D-04      0.184D-04      -209.21567988    345.012352    0.00000    0.00000    0.00000    5    diag,B
    7      0.229D-04      0.317D-04      -209.21567074    345.012778    0.00000    0.00000    0.00000    6    diag,B
    8      0.402D-04      0.569D-05      -209.21567083    345.013911    0.00000    0.00000    0.00000    7    orth
    9      0.109D-04      0.189D-05      -209.21567085    345.014488    0.00000    0.00000    0.00000    8    diag,B
   10      0.398D-05      0.764D-06      -209.21567086    345.014571    0.00000    0.00000    0.00000    0    orth

 Final alpha occupancy:   1   4   3   0   3   0   0   1
 Final beta  occupancy:   1   3   3   0   3   0   0   1

 !RHF STATE 1.2 Energy               -209.215670858541
   --><property name="Energy" method="RHF" principal="true" stateSymmetry="2" stateNumber="1"
     value="-209.215670858541"/><!--
 Nuclear energy                         0.00000000
 One-electron energy                 -381.72295646
 Two-electron energy                  172.50728560
 Virial quotient                       -1.20742459
 !RHF STATE 1.2 Dipole moment           0.00000000     0.00000000     0.00000000
 Dipole moment /Debye                   0.00000000     0.00000000     0.00000000
   --><property name="Dipole moment" method="RHF" principal="true" stateSymmetry="2"
     stateNumber="1" value="0.0 0.0 0.0"/><!--

 ELECTRON ORBITALS
 =================


   Orb  Occ    Energy  Couls-En    Coefficients

                                   1 1s      1 1s      1 1s      1 1s      1 1s      1 1s      1 1s      1 1s      1 1s      1 1s
                                   1 1s      1 1s      1 1s      1 1s      1 1s      1 1s      1 1s      1 1s      1 1s      1 1s
                                   1 1s      1 1s      1 1s      1 1s      1 1s      1 1s      1 1s      1 1s      1 1s      1 1s
                                   1 1s      1 3d0     1 3d2+    1 3d0     1 3d2+    1 3d0     1 3d2+    1 3d0     1 3d2+    1 3d0
                                   1 3d2+    1 3d0     1 3d2+    1 3d0     1 3d2+    1 3d0     1 3d2+    1 3d0     1 3d2+    1 3d0
                                   1 3d2+    1 3d0     1 3d2+    1 3d0     1 3d2+    1 3d0     1 3d2+    1 3d0     1 3d2+    1 3d0
                                   1 3d2+    1 3d0     1 3d2+    1 3d0     1 3d2+    1 3d0     1 3d2+    1 5g0     1 5g4+    1 5g2+
                                   1 5g0     1 5g4+    1 5g2+    1 5g0     1 5g4+    1 5g2+    1 5g0     1 5g4+    1 5g2+    1 5g0
                                   1 5g4+    1 5g2+    1 5g0     1 5g4+    1 5g2+

   1.1   2    -3.5627  -21.5852 -0.000000  0.000000 -0.000000  0.000000 -0.000000  0.000000 -0.000000  0.000000 -0.000000  0.000001
                                -0.000001  0.000003 -0.000008  0.000017 -0.000033  0.000053 -0.000046 -0.000093  0.000469 -0.007504
                                -0.019069  0.399771 -1.014088  0.037104  1.017678  0.341776  0.035052 -0.023239  0.021139 -0.017685
                                 0.005920 -0.000000 -0.000000  0.000000  0.000000 -0.000000 -0.000000  0.000000  0.000000 -0.000000
                                -0.000000  0.000001  0.000000 -0.000001 -0.000000  0.000003  0.000001 -0.000007 -0.000001  0.000017
                                 0.000003 -0.000039 -0.000007 -0.000048 -0.000009  0.000477  0.000092  0.000646  0.000124 -0.000032
                                -0.000007  0.000085  0.000017 -0.000103 -0.000021  0.000034  0.000007 -0.000000  0.000000 -0.000000
                                 0.000002 -0.000001  0.000002 -0.000010  0.000008 -0.000010 -0.000022  0.000017 -0.000022  0.000015
                                -0.000011  0.000014 -0.000006  0.000005 -0.000006

   2.1   0    -0.7271  -12.8860 -0.000000  0.000000 -0.000000  0.000000 -0.000000  0.000000 -0.000000  0.000000 -0.000000  0.000000
                                -0.000000  0.000000 -0.000000  0.000001 -0.000002  0.000005 -0.000010  0.000017 -0.000021  0.000125
                                -0.000060 -0.003382  0.009990 -0.001301 -0.011273 -0.012420  0.003990  0.021009  0.003918 -0.001808
                                 0.000248 -0.000000  0.000000  0.000001 -0.000000 -0.000008  0.000000  0.000034 -0.000002 -0.000119
                                 0.000006  0.000354 -0.000019 -0.000929  0.000050  0.002165 -0.000117 -0.004490  0.000243  0.007936
                                -0.000429 -0.010109  0.000549 -0.070969  0.003787  0.393054 -0.021002  0.560016 -0.030120  0.271524
                                -0.014465 -0.129704  0.009207  0.153754 -0.009480 -0.048534  0.003416  0.000007 -0.000000  0.000001
                                -0.000024  0.000003 -0.000002  0.000262 -0.000014  0.000021  0.002458  0.000118  0.000178  0.000415
                                 0.000984  0.000050 -0.000198  0.000254 -0.000005

   3.1   0    -0.7233  -12.8766 -0.000000  0.000000 -0.000000  0.000000 -0.000000  0.000000 -0.000000  0.000000 -0.000000  0.000000
                                -0.000000  0.000000 -0.000000  0.000000 -0.000001  0.000001 -0.000002  0.000004 -0.000005  0.000032
                                -0.000015 -0.000854  0.002522 -0.000330 -0.002845 -0.003138  0.001037  0.005203  0.001118 -0.000482
                                 0.000067 -0.000000 -0.000000  0.000000  0.000001 -0.000000 -0.000008  0.000002  0.000034 -0.000006
                                -0.000118  0.000018  0.000352 -0.000048 -0.000925  0.000112  0.002156 -0.000231 -0.004473  0.000409
                                 0.007903 -0.000517 -0.010049 -0.003727 -0.071092  0.020598  0.393501  0.029092  0.559614  0.014090
                                 0.268350 -0.004015 -0.121061  0.006470  0.148359 -0.001505 -0.044837  0.000001  0.000001  0.000005
                                -0.000005  0.000007 -0.000016  0.000034  0.000036  0.000182  0.000110  0.002054  0.001830 -0.000817
                                 0.005649  0.000480 -0.000242  0.001181 -0.000126

                                   1 2px     1 2px     1 2px     1 2px     1 2px     1 2px     1 2px     1 2px     1 2px     1 2px
                                   1 2px     1 2px     1 2px     1 2px     1 2px     1 2px     1 2px     1 2px     1 2px     1 2px
                                   1 2px     1 2px     1 2px     1 2px     1 2px     1 2px     1 2px     1 4f1+    1 4f3+    1 4f1+
                                   1 4f3+    1 4f1+    1 4f3+    1 4f1+    1 4f3+    1 4f1+    1 4f3+    1 4f1+    1 4f3+    1 4f1+
                                   1 4f3+    1 4f1+    1 4f3+    1 4f1+    1 4f3+    1 4f1+    1 4f3+    1 4f1+    1 4f3+    1 4f1+
                                   1 4f3+    1 4f1+    1 4f3+    1 6h1+    1 6h3+    1 6h5+    1 6h1+    1 6h3+    1 6h5+    1 6h1+
                                   1 6h3+    1 6h5+

   1.2   2    -2.4392  -18.5805 -0.000000  0.000000 -0.000000  0.000000 -0.000000  0.000001 -0.000003  0.000009 -0.000031  0.000098
                                -0.000284  0.000781 -0.002095  0.006001 -0.019747  0.128816 -0.260206  0.283076 -0.391264  0.059796
                                 0.801915 -0.131064  0.442403 -0.067226  0.012412  0.005435  0.064635  0.000000  0.000000 -0.000000
                                -0.000000  0.000001  0.000000 -0.000002 -0.000000  0.000030  0.000007  0.000106  0.000022  0.000126
                                 0.000027  0.000218  0.000048  0.000409  0.000110  0.000512  0.000167 -0.000031 -0.000020  0.000025
                                 0.000021 -0.000006  0.000012 -0.000000  0.000000  0.000007  0.000000 -0.000000 -0.000007 -0.000014
                                -0.000029  0.000015

   2.2   2    -1.0489  -18.5246  0.000000 -0.000000  0.000000 -0.000000  0.000000 -0.000000  0.000000 -0.000000  0.000000 -0.000000
                                 0.000000 -0.000001  0.000003 -0.000009  0.000030 -0.000195  0.000399 -0.000448  0.000618 -0.000044
                                -0.001364 -0.000015 -0.000795 -0.001460  0.001782  0.000240  0.001368  0.000016  0.000022 -0.000106
                                -0.000150  0.000487  0.000688 -0.001704 -0.002407  0.036315  0.051273  0.136060  0.192034  0.149815
                                 0.211474  0.208750  0.294416  0.176204  0.248062  0.088288  0.122610  0.011722  0.015289 -0.001826
                                -0.001972  0.000388  0.000474  0.000033  0.000030  0.000008  0.000004  0.000001  0.000001  0.000275
                                 0.000281  0.000089

   3.2   2    -1.0478  -18.5077 -0.000000  0.000000 -0.000000  0.000000 -0.000000  0.000000 -0.000000  0.000000 -0.000000  0.000000
                                -0.000000  0.000001 -0.000002  0.000007 -0.000024  0.000155 -0.000317  0.000356 -0.000482  0.000005
                                 0.001105 -0.000060  0.000718  0.001263 -0.001313 -0.000339 -0.001201 -0.000022  0.000016  0.000149
                                -0.000106 -0.000684  0.000487  0.002396 -0.001706 -0.051084  0.036361 -0.191425  0.136208 -0.210762
                                 0.149986 -0.293811  0.208908 -0.248253  0.176193 -0.125134  0.087608 -0.017121  0.011256  0.002796
                                -0.001598 -0.000578  0.000317 -0.000045  0.000012  0.000011 -0.000009 -0.000000 -0.000002 -0.000339
                                 0.000131  0.000074

   4.2   +    -0.2779   -4.6502  0.000000 -0.000000  0.000000 -0.000000  0.000000 -0.000000  0.000000 -0.000000  0.000000 -0.000000
                                 0.000000 -0.000000  0.000000 -0.000001  0.000003 -0.000017  0.000034 -0.000036  0.000050 -0.000016
                                -0.000082 -0.000015 -0.000023  0.001883 -0.000069  0.000106 -0.001664 -0.000001 -0.000004  0.000008
                                 0.000029 -0.000034 -0.000131  0.000119  0.000459 -0.002059 -0.007910 -0.007173 -0.027546 -0.008486
                                -0.032607 -0.009986 -0.038321 -0.007328 -0.028120  0.010511  0.040793  0.066620  0.257633  0.104345
                                 0.402731  0.106479  0.410329 -0.000001 -0.000002 -0.000001  0.000004  0.000010  0.000003 -0.000010
                                -0.000023 -0.000008

   5.2   0    -0.3921   -6.9953  0.000000 -0.000000  0.000000 -0.000000  0.000000 -0.000000  0.000000 -0.000002  0.000005 -0.000016
                                 0.000048 -0.000132  0.000359 -0.001052  0.003623 -0.025634  0.055110 -0.068811  0.117017 -0.015181
                                -0.365076  0.204164 -0.392071 -0.009157  0.383788  0.747791  0.099921 -0.000000 -0.000000  0.000001
                                 0.000000 -0.000004 -0.000000  0.000015  0.000001 -0.000263 -0.000021 -0.000921 -0.000069 -0.001092
                                -0.000087 -0.001325 -0.000098 -0.001261 -0.000145  0.000424 -0.000016  0.009027  0.000765  0.003417
                                -0.002708  0.000205 -0.001309  0.000001  0.000005  0.000023 -0.000013 -0.000065 -0.000297  0.000030
                                 0.000157  0.000708

   6.2   0    -0.1741   -3.7251  0.000000 -0.000000  0.000000 -0.000000  0.000000 -0.000000  0.000000 -0.000000  0.000001 -0.000004
                                 0.000012 -0.000032  0.000080 -0.000189  0.000364  0.000812 -0.006750  0.020011 -0.053617 -0.018614
                                 0.347168 -0.372247  0.461327-18.127785 -0.486804 -0.429390 19.225100 -0.000000  0.000000  0.000000
                                -0.000001 -0.000001  0.000003  0.000005 -0.000010 -0.000144  0.000175 -0.000576  0.000607 -0.000580
                                 0.000724 -0.000899  0.000846 -0.000221  0.000675 -0.000091 -0.000785  0.001743 -0.006217  0.007877
                                -0.008020  0.062107 -0.003685  0.000001  0.000002  0.000001 -0.000011 -0.000011  0.000028  0.000026
                                 0.000027 -0.000071

                                   1 2py     1 2py     1 2py     1 2py     1 2py     1 2py     1 2py     1 2py     1 2py     1 2py
                                   1 2py     1 2py     1 2py     1 2py     1 2py     1 2py     1 2py     1 2py     1 2py     1 2py
                                   1 2py     1 2py     1 2py     1 2py     1 2py     1 2py     1 2py     1 4f1-    1 4f3-    1 4f1-
                                   1 4f3-    1 4f1-    1 4f3-    1 4f1-    1 4f3-    1 4f1-    1 4f3-    1 4f1-    1 4f3-    1 4f1-
                                   1 4f3-    1 4f1-    1 4f3-    1 4f1-    1 4f3-    1 4f1-    1 4f3-    1 4f1-    1 4f3-    1 4f1-
                                   1 4f3-    1 4f1-    1 4f3-    1 6h1-    1 6h3-    1 6h5-    1 6h1-    1 6h3-    1 6h5-    1 6h1-
                                   1 6h3-    1 6h5-

   1.3   2    -2.4385  -18.5805 -0.000000  0.000000 -0.000000  0.000000 -0.000000  0.000001 -0.000003  0.000009 -0.000031  0.000098
                                -0.000284  0.000781 -0.002095  0.006003 -0.019752  0.128845 -0.260262  0.283130 -0.391335  0.059833
                                 0.801950 -0.130707  0.442060 -0.067496  0.012289  0.005481  0.064895  0.000000  0.000000 -0.000000
                                -0.000000  0.000001  0.000000 -0.000002 -0.000000  0.000033  0.000007  0.000116  0.000025  0.000140
                                 0.000029  0.000244  0.000049  0.000484  0.000083  0.000644  0.000087 -0.000072  0.000006  0.000023
                                 0.000005 -0.000016 -0.000001 -0.000001 -0.000002 -0.000005  0.000001  0.000002  0.000006 -0.000036
                                -0.000018  0.000033

   2.3   2    -1.0478  -18.5044  0.000000 -0.000000  0.000000 -0.000000  0.000000 -0.000000  0.000000 -0.000000  0.000000 -0.000000
                                 0.000001 -0.000002  0.000005 -0.000013  0.000044 -0.000287  0.000587 -0.000659  0.000912 -0.000074
                                -0.002008 -0.000034 -0.001156 -0.002265  0.002662  0.000329  0.002120  0.000027 -0.000002 -0.000183
                                 0.000012  0.000838 -0.000056 -0.002933  0.000195  0.062539 -0.004161  0.234337 -0.015590  0.258013
                                -0.017165  0.359631 -0.023925  0.303773 -0.020206  0.152764 -0.010158  0.020696 -0.001381 -0.003309
                                 0.000215  0.000681 -0.000046  0.000063  0.000003  0.000004  0.000007  0.000005  0.000002  0.000510
                                 0.000010 -0.000035

   3.3   2    -1.0456  -18.5112 -0.000000  0.000000 -0.000000  0.000000 -0.000000  0.000000 -0.000000  0.000000 -0.000000  0.000000
                                -0.000000  0.000000 -0.000001  0.000003 -0.000010  0.000064 -0.000132  0.000148 -0.000198 -0.000003
                                 0.000457 -0.000030  0.000304  0.000468 -0.000516 -0.000161 -0.000448 -0.000002 -0.000027  0.000012
                                 0.000183 -0.000056 -0.000839  0.000195  0.002937 -0.004164 -0.062599 -0.015600 -0.234521 -0.017176
                                -0.258225 -0.023938 -0.359854 -0.020222 -0.303945 -0.010100 -0.151766 -0.001298 -0.019569  0.000204
                                 0.002992 -0.000037 -0.000559 -0.000006 -0.000037 -0.000013  0.000001 -0.000000  0.000000 -0.000050
                                -0.000298 -0.000114

   4.3   0    -0.3910   -6.9893  0.000000 -0.000000  0.000000 -0.000000  0.000000 -0.000000  0.000000 -0.000002  0.000005 -0.000017
                                 0.000048 -0.000133  0.000360 -0.001057  0.003637 -0.025711  0.055239 -0.068886  0.117012 -0.015406
                                -0.363568  0.201526 -0.389526  0.019507  0.382821  0.745020  0.074899 -0.000000 -0.000000  0.000001
                                 0.000000 -0.000004 -0.000001  0.000014  0.000005 -0.000233 -0.000080 -0.000810 -0.000282 -0.000966
                                -0.000333 -0.001167 -0.000405 -0.001192 -0.000360  0.000264  0.000180  0.008011  0.002750 -0.001504
                                 0.002710 -0.001820  0.000835  0.000002 -0.000005 -0.000023 -0.000028  0.000059  0.000312  0.000068
                                -0.000139 -0.000746

   5.3   0    -0.1729   -3.7217  0.000000 -0.000000  0.000000 -0.000000  0.000000 -0.000000  0.000000 -0.000000  0.000001 -0.000004
                                 0.000012 -0.000033  0.000081 -0.000194  0.000377  0.000742 -0.006635  0.019949 -0.053649 -0.018779
                                 0.348390 -0.373762  0.462737-18.485786 -0.489384 -0.421207 19.576903  0.000000 -0.000000 -0.000000
                                 0.000000  0.000002 -0.000001 -0.000006  0.000003  0.000048 -0.000072  0.000102 -0.000271  0.000213
                                -0.000293  0.000063 -0.000405  0.000498 -0.000188 -0.000761  0.000095 -0.004212  0.001646 -0.002005
                                 0.003785  0.050845  0.016911  0.000002  0.000001 -0.000003 -0.000016 -0.000014 -0.000006  0.000038
                                 0.000034  0.000016

                                   1 3d2-    1 3d2-    1 3d2-    1 3d2-    1 3d2-    1 3d2-    1 3d2-    1 3d2-    1 3d2-    1 3d2-
                                   1 3d2-    1 3d2-    1 3d2-    1 3d2-    1 3d2-    1 3d2-    1 3d2-    1 3d2-    1 5g2-    1 5g4-
                                   1 5g2-    1 5g4-    1 5g2-    1 5g4-    1 5g2-    1 5g4-    1 5g2-    1 5g4-    1 5g2-    1 5g4-


   1.4   0    -0.7236  -12.8681 -0.000000  0.000001 -0.000008  0.000034 -0.000118  0.000352 -0.000925  0.002156 -0.004472  0.007900
                                -0.010042 -0.071129  0.393669  0.559578  0.268742 -0.117531  0.146489 -0.043560  0.000005  0.000002
                                -0.000021 -0.000018  0.000193  0.000074  0.001266 -0.001142 -0.001862 -0.006102 -0.000674 -0.001441

   2.4   0    -0.2301   -4.8853  0.000000 -0.000001  0.000003 -0.000012  0.000042 -0.000125  0.000328 -0.000766  0.001594 -0.002877
                                 0.004014  0.022674 -0.134838 -0.214794 -0.019141  0.981633 -0.828234  0.927040 -0.000002 -0.000005
                                 0.000014  0.000030 -0.000081 -0.000199 -0.002343 -0.006909 -0.007984 -0.042784 -0.013814 -0.061397

                                   1 2pz     1 2pz     1 2pz     1 2pz     1 2pz     1 2pz     1 2pz     1 2pz     1 2pz     1 2pz
                                   1 2pz     1 2pz     1 2pz     1 2pz     1 2pz     1 2pz     1 2pz     1 2pz     1 2pz     1 2pz
                                   1 2pz     1 2pz     1 2pz     1 2pz     1 2pz     1 2pz     1 2pz     1 4f0     1 4f2+    1 4f0
                                   1 4f2+    1 4f0     1 4f2+    1 4f0     1 4f2+    1 4f0     1 4f2+    1 4f0     1 4f2+    1 4f0
                                   1 4f2+    1 4f0     1 4f2+    1 4f0     1 4f2+    1 4f0     1 4f2+    1 4f0     1 4f2+    1 4f0
                                   1 4f2+    1 4f0     1 4f2+    1 6h2+    1 6h4+    1 6h0     1 6h2+    1 6h4+    1 6h0     1 6h2+
                                   1 6h4+    1 6h0

   1.5   2    -2.4423  -18.5804 -0.000000  0.000000 -0.000000  0.000000 -0.000000  0.000001 -0.000003  0.000009 -0.000031  0.000098
                                -0.000284  0.000780 -0.002093  0.005995 -0.019728  0.128697 -0.259980  0.282858 -0.390980  0.059645
                                 0.801785 -0.132502  0.443771 -0.066126  0.012912  0.005246  0.063574  0.000000  0.000000 -0.000000
                                -0.000000  0.000001  0.000000 -0.000002 -0.000000  0.000038  0.000005  0.000138  0.000021  0.000162
                                 0.000024  0.000281  0.000040  0.000510  0.000059  0.000614  0.000050 -0.000019  0.000015  0.000026
                                 0.000004 -0.000010  0.000001 -0.000002  0.000002 -0.000002  0.000001 -0.000002  0.000002 -0.000028
                                 0.000013 -0.000031

   2.5   2    -1.0481  -18.5031  0.000000 -0.000000  0.000000 -0.000000  0.000000 -0.000000  0.000000 -0.000000  0.000000 -0.000000
                                 0.000001 -0.000002  0.000004 -0.000013  0.000042 -0.000279  0.000571 -0.000643  0.000875 -0.000014
                                -0.002020  0.000134 -0.001322 -0.002393  0.002432  0.000603  0.002272  0.000026 -0.000006 -0.000178
                                 0.000042  0.000817 -0.000194 -0.002859  0.000680  0.060966 -0.014493  0.228448 -0.054308  0.251528
                                -0.059796  0.350610 -0.083348  0.296192 -0.070404  0.149150 -0.035446  0.020284 -0.004835 -0.003311
                                 0.000777  0.000674 -0.000162 -0.000005 -0.000005  0.000059  0.000000  0.000003  0.000011 -0.000041
                                -0.000035  0.000467

   3.5   2    -1.0472  -18.5064  0.000000 -0.000000  0.000000 -0.000000  0.000000 -0.000000  0.000000 -0.000000  0.000000 -0.000000
                                 0.000000 -0.000001  0.000002 -0.000004  0.000015 -0.000097  0.000199 -0.000224  0.000298  0.000016
                                -0.000711  0.000087 -0.000508 -0.000801  0.000761  0.000306  0.000771  0.000006  0.000026 -0.000042
                                -0.000178  0.000194  0.000817 -0.000680 -0.002861  0.014499  0.060996  0.054326  0.228546  0.059816
                                 0.251641  0.083370  0.350722  0.070420  0.296212  0.035346  0.148650  0.004728  0.019942 -0.000747
                                -0.003101  0.000150  0.000639  0.000052  0.000013  0.000018  0.000006  0.000003 -0.000001  0.000408
                                 0.000047  0.000160

   4.5   0    -0.3963   -7.0199  0.000000 -0.000000  0.000000 -0.000000  0.000000 -0.000000  0.000000 -0.000002  0.000005 -0.000016
                                 0.000047 -0.000129  0.000351 -0.001032  0.003562 -0.025312  0.054573 -0.068493  0.117027 -0.014248
                                -0.371278  0.215011 -0.402484 -0.132021  0.387690  0.759268  0.207762 -0.000000 -0.000000  0.000001
                                 0.000000 -0.000006 -0.000001  0.000022  0.000005 -0.000382 -0.000084 -0.001339 -0.000297 -0.001582
                                -0.000349 -0.001930 -0.000427 -0.001783 -0.000361  0.000653  0.000204  0.013025  0.002869  0.007736
                                 0.003786  0.001507  0.001256 -0.000001  0.000005 -0.000003  0.000014 -0.000061  0.000027 -0.000032
                                 0.000145 -0.000064

   5.5   0    -0.1793   -3.7323  0.000000 -0.000000  0.000000 -0.000000  0.000000 -0.000000  0.000000 -0.000000  0.000001 -0.000004
                                 0.000011 -0.000030  0.000074 -0.000173  0.000317  0.001055 -0.007140  0.020192 -0.053400 -0.018003
                                 0.342240 -0.366348  0.455606-16.776004 -0.476033 -0.462037 17.899866 -0.000000 -0.000000  0.000001
                                 0.000000 -0.000003 -0.000002  0.000011  0.000007 -0.000266 -0.000130 -0.001018 -0.000473 -0.001078
                                -0.000532 -0.001541 -0.000689 -0.000604 -0.000413  0.000241  0.000323  0.003966  0.003340  0.016342
                                 0.007161  0.082324  0.019201  0.000002 -0.000000  0.000002 -0.000018  0.000006 -0.000023  0.000043
                                -0.000015  0.000055

                                   1 3d1+    1 3d1+    1 3d1+    1 3d1+    1 3d1+    1 3d1+    1 3d1+    1 3d1+    1 3d1+    1 3d1+
                                   1 3d1+    1 3d1+    1 3d1+    1 3d1+    1 3d1+    1 3d1+    1 3d1+    1 3d1+    1 5g1+    1 5g3+
                                   1 5g1+    1 5g3+    1 5g1+    1 5g3+    1 5g1+    1 5g3+    1 5g1+    1 5g3+    1 5g1+    1 5g3+


   1.6   0    -0.7263  -12.8896 -0.000000  0.000001 -0.000008  0.000034 -0.000119  0.000355 -0.000930  0.002169 -0.004498  0.007949
                                -0.010125 -0.071132  0.393941  0.561242  0.271273 -0.130115  0.154038 -0.048569  0.000006  0.000001
                                -0.000019 -0.000001  0.000226  0.000032  0.002297  0.000636  0.000922  0.001164 -0.000053  0.000209

   2.6   0    -0.2190   -4.8329  0.000000 -0.000001  0.000003 -0.000012  0.000040 -0.000121  0.000317 -0.000740  0.001541 -0.002782
                                 0.003884  0.021976 -0.130457 -0.208599 -0.021508  1.003300 -0.882922  0.968974  0.000000  0.000001
                                 0.000002 -0.000005  0.000012  0.000039  0.001027  0.001400  0.014394  0.010227  0.019792  0.015102

                                   1 3d1-    1 3d1-    1 3d1-    1 3d1-    1 3d1-    1 3d1-    1 3d1-    1 3d1-    1 3d1-    1 3d1-
                                   1 3d1-    1 3d1-    1 3d1-    1 3d1-    1 3d1-    1 3d1-    1 3d1-    1 3d1-    1 5g1-    1 5g3-
                                   1 5g1-    1 5g3-    1 5g1-    1 5g3-    1 5g1-    1 5g3-    1 5g1-    1 5g3-    1 5g1-    1 5g3-


   1.7   0    -0.7254  -12.8950 -0.000000  0.000001 -0.000008  0.000034 -0.000119  0.000355 -0.000931  0.002170 -0.004501  0.007955
                                -0.010131 -0.071201  0.394306  0.561814  0.270772 -0.131762  0.154866 -0.049027  0.000007  0.000001
                                -0.000023 -0.000003  0.000262  0.000026  0.002595  0.000163  0.000623  0.000003 -0.000177  0.000003

   2.7   0    -0.2154   -4.8165  0.000000 -0.000001  0.000003 -0.000011  0.000040 -0.000119  0.000313 -0.000731  0.001523 -0.002750
                                 0.003833  0.021877 -0.129720 -0.207128 -0.021221  1.012967 -0.913539  0.991216 -0.000000 -0.000000
                                 0.000004  0.000001  0.000001 -0.000004  0.000655  0.000045  0.013568  0.000442  0.018432  0.000784

                                   1 4f2-    1 4f2-    1 4f2-    1 4f2-    1 4f2-    1 4f2-    1 4f2-    1 4f2-    1 4f2-    1 4f2-
                                   1 4f2-    1 4f2-    1 4f2-    1 6h4-    1 6h2-    1 6h4-    1 6h2-    1 6h4-    1 6h2-

   1.8   2    -1.0471  -18.5066  0.000027 -0.000183  0.000840 -0.002941  0.062697  0.234915  0.258653  0.360498  0.304499  0.152783
                                 0.020380 -0.003207  0.000643  0.000004  0.000051  0.000004  0.000003  0.000072  0.000427

   2.8   0    -0.1414   -3.9566 -0.000003  0.000019 -0.000088  0.000308 -0.005951 -0.021483 -0.024409 -0.031039 -0.019182  0.019033
                                 0.221404  0.178827  0.716537 -0.000006  0.000005  0.000066 -0.000078 -0.000159  0.000186

   3.8   0    -0.0365   -3.8297  0.000007 -0.000049  0.000221 -0.000767  0.009557  0.029059  0.040217  0.034444  0.049763 -0.106536
                                 0.007119 -1.436653  1.412927  0.000004 -0.000010 -0.000048  0.000146  0.000117 -0.000366

 HOMO      4.2    -0.277913 =      -7.5624eV
 LUMO      2.1    -0.727094 =     -19.7852eV
 LUMO-HOMO        -0.449182 =     -12.2229eV


 **********************************************************************************************************************************
 DATASETS  * FILE   NREC   LENGTH (MB)   RECORD NAMES
              1      19       20.94       500      610      700      900      950      970     1000      129      960     1100
                                          VAR    BASINP    GEOM    SYMINP    ZMAT    AOBASIS   BASIS     P2S    ABASIS      S
                                         1400     1410     1420     1200     1210     1080     1600     1650     1700
                                           T        V       ECP      H0       H01     AOSYM     SMH    MOLCAS    OPER

              2       6        9.40       200      700     1000      520     4202     2122
                                        OPTIONS   GEOM     BASIS   MCVARS     RHF      RHF

 PROGRAMS   *        TOTAL       RHF       RHF       INT
 CPU TIMES  *        72.25      1.38      1.60     68.80
 REAL TIME  *        80.84 SEC
 DISK USED  *         4.63 GB
 SF USED    *         0.09 MB
 GA USED    *         0.00 MB       (max)       0.00 MB       (current)
 **********************************************************************************************************************************
   -->
   <time start="12:17:33" end="12:17:35" cpu="1.45" system="0.14" real="1.63"/>
   <storage units="megabyte" memory="8001.84" sf="0.09" df="368.04" eaf="4265.7" ga="0.0"/>
  </jobstep><!--
 SETTING SCF(10)        =      -209.21567086  AU
 SETTING _CC_NORM_MAX   =         2.00000000
  --><jobstep command="RCCSD(T)" commandset="CCSD">
   <!--


 PROGRAM * CCSD (Restricted open-shell coupled cluster)     Authors: C. Hampel, H.-J. Werner, 1991, M. Deegan, P.J. Knowles, 1992


 Convergence thresholds:  THRVAR = 1.00D-08  THRDEN = 1.00D-06

 CCSD(T)     terms to be evaluated (factor= 1.000)


 Number of closed-shell orbitals:  11 (   1   3   3   0   3   0   0   1 )
 Number of active  orbitals:        1 (   0   1   0   0   0   0   0   0 )
 Number of external orbitals:     368 (  84  58  59  30  59  30  30  18 )

 Memory could be reduced to 130.86 Mwords without degradation in triples

 Number of N-1 electron functions:              23
 Number of N-2 electron functions:             253
 Number of singly external CSFs:              1325
 Number of doubly external CSFs:           3311568
 Total number of CSFs:                     3312893

 Molecular orbitals read from record     2122.2  Type=RHF/CANONICAL (state 1.2)

 Integral transformation finished. Total CPU:   5.09 sec, npass=  1  Memory used:  24.90 MW

 Starting RMP2 calculation

 Wavefunction is spin-projected

 ITER.      SQ.NORM     CORR.ENERGY   TOTAL ENERGY   ENERGY CHANGE        DEN1      VAR(S)    VAR(P)  DIIS     TIME
   1      1.82293837    -2.57184274  -211.78751360    -2.57184274    -0.06267238  0.11D-06  0.45D-01  1  1     6.17
   2      2.01265921    -2.65030931  -211.86598017    -0.07846656    -0.00660135  0.30D-08  0.11D-01  2  2     6.85
   3      2.14991694    -2.66907214  -211.88474300    -0.01876283    -0.00603383  0.64D-09  0.16D-01  3  3     7.66
   4      2.02012598    -2.66389467  -211.87956552     0.00517747    -0.00079041  0.20D-08  0.14D-02  4  4     8.80
   5      2.05096821    -2.66387982  -211.87955068     0.00001484    -0.00003685  0.72D-09  0.58D-04  5  5    10.67
   6      2.05254225    -2.66397646  -211.87964731    -0.00009664    -0.00002346  0.31D-09  0.49D-04  6  6    13.22
   7      2.05280989    -2.66400082  -211.87967168    -0.00002436    -0.00002631  0.23D-09  0.60D-04  6  1    15.15
   8      2.05287005    -2.66399464  -211.87966549     0.00000618    -0.00001409  0.26D-09  0.26D-04  6  2    20.22
   9      2.05377149    -2.66405392  -211.87972478    -0.00005928    -0.00000836  0.65D-10  0.15D-04  6  3    23.00
  10      2.05580648    -2.66418076  -211.87985162    -0.00012684    -0.00000184  0.68D-10  0.34D-05  6  4    26.02
  11      2.05611267    -2.66419193  -211.87986279    -0.00001117    -0.00000173  0.84D-10  0.43D-05  6  5    27.18
  12      2.05667020    -2.66420265  -211.87987350    -0.00001072    -0.00000085  0.15D-09  0.18D-05  6  1    29.28
  13      2.05751467    -2.66414933  -211.87982018     0.00005332    -0.00000007  0.17D-09  0.10D-06  6  6    30.94
  14      2.05744427    -2.66412124  -211.87979210     0.00002808    -0.00000004  0.92D-10  0.77D-07  6  2    32.12
  15      2.05739349    -2.66412020  -211.87979105     0.00000105    -0.00000004  0.62D-10  0.90D-07  6  3    34.39
  16      2.05749748    -2.66411048  -211.87978134     0.00000971    -0.00000003  0.80D-10  0.57D-07  6  4    36.11
  17      2.05760015    -2.66411159  -211.87978245    -0.00000111    -0.00000002  0.32D-10  0.42D-07  6  5    38.72
  18      2.05759652    -2.66411204  -211.87978290    -0.00000045    -0.00000002  0.26D-10  0.45D-07  6  1    39.84
  19      2.05762318    -2.66411293  -211.87978379    -0.00000089    -0.00000002  0.24D-10  0.38D-07  6  6    44.80
  20      2.05761268    -2.66411231  -211.87978317     0.00000062    -0.00000002  0.87D-11  0.34D-07  6  2    45.92
  21      2.05758468    -2.66411204  -211.87978290     0.00000027    -0.00000002  0.48D-11  0.37D-07  6  3    48.78
  22      2.05760897    -2.66411135  -211.87978221     0.00000069    -0.00000001  0.29D-11  0.31D-07  6  2    50.52
  23      2.05762894    -2.66410720  -211.87977806     0.00000415    -0.00000001  0.10D-10  0.15D-07  6  4    52.84
  24      2.05761350    -2.66411100  -211.87978186    -0.00000381    -0.00000001  0.58D-11  0.15D-07  6  5    56.31
  25      2.05763575    -2.66410996  -211.87978081     0.00000105    -0.00000001  0.86D-11  0.13D-07  6  6    58.04
  26      2.05764777    -2.66411074  -211.87978160    -0.00000079    -0.00000001  0.59D-11  0.12D-07  6  1    61.19
  27      2.05764846    -2.66411081  -211.87978167    -0.00000007    -0.00000001  0.63D-11  0.12D-07  6  2    62.60
  28      2.05759751    -2.66411106  -211.87978192    -0.00000025    -0.00000000  0.58D-11  0.68D-08  6  3    65.92

 Norm of t1 vector:      0.00172950      S-energy:    -0.00000519      T1 diagnostic:  0.00003794
 Norm of t2 vector:      1.02839415      P-energy:    -2.66410587
                                         Alpha-Beta:  -1.76337224
                                         Alpha-Alpha: -0.45342563
                                         Beta-Beta:   -0.44730800

 Spin contamination <S**2-Sz**2-Sz>     0.00000000
  Reference energy                   -209.215670858540
   --><property name="energy" method="Reference" stateSymmetry="1" stateNumber="1"
     value="-209.21567085854"/><!--
  RHF-RMP2 correlation energy          -2.664111059016
   --><property name="energy" method="RHF-RMP2 correlation" stateSymmetry="1" stateNumber="1"
     value="-2.66411105901597"/><!--
 !RHF-RMP2 energy                    -211.879781917556
   --><property name="energy" method="RHF-RMP2" principal="true" stateSymmetry="2"
     stateNumber="1" value="-211.879781917556"/><!--
 (NB above energy spin projected)

 Starting RCCSD calculation

 ITER.      SQ.NORM     CORR.ENERGY   TOTAL ENERGY   ENERGY CHANGE        DEN1      VAR(S)    VAR(P)  DIIS     TIME
   1      1.26339271    -1.58394116  -210.79961202    -1.58394116    -0.33073709  0.20D-02  0.84D-01  0  0    70.64
   2      1.47233920    -1.91409492  -211.12976578    -0.33015376    -0.07060731  0.11D-02  0.43D-01  0  0    73.85
   3      1.64095260    -1.79350035  -211.00917120     0.12059457    -0.04221625  0.87D-03  0.75D-01  1  1    77.89
   4      2.01742842    -1.82626218  -211.04193304    -0.03276183    -0.06845874  0.59D-03  0.16D+00  2  2    83.33
   5      1.39080773    -1.82445053  -211.04012139     0.00181164    -0.00273124  0.91D-04  0.27D-02  3  3    87.88
   6      1.41763673    -1.82815215  -211.04382301    -0.00370162    -0.00303489  0.55D-04  0.49D-02  4  4    91.02
   7      1.41015453    -1.82774756  -211.04341842     0.00040459    -0.00250752  0.58D-04  0.34D-02  5  5    94.00
   8      1.43879649    -1.83273660  -211.04840746    -0.00498904    -0.00134103  0.34D-04  0.18D-02  6  6    97.08
   9      1.44252396    -1.83298623  -211.04865709    -0.00024963    -0.00146631  0.32D-04  0.21D-02  7  7    99.75
  10      1.45078344    -1.83424878  -211.04991964    -0.00126255    -0.00102282  0.22D-04  0.14D-02  8  8   102.47
  11      1.45616782    -1.83451108  -211.05018193    -0.00026230    -0.00115865  0.20D-04  0.18D-02  9  9   105.22
  12      1.46517975    -1.83560511  -211.05127596    -0.00109403    -0.00043012  0.14D-04  0.52D-03 10 10   108.13
  13      1.48931238    -1.83823161  -211.05390247    -0.00262650    -0.00038152  0.53D-05  0.81D-03 11 11   112.85
  14      1.49012524    -1.83836910  -211.05403996    -0.00013749    -0.00017647  0.56D-05  0.28D-03 12 12   118.44
  15      1.49715196    -1.83941879  -211.05508964    -0.00104969    -0.00009970  0.29D-05  0.16D-03 13 13   124.01
  16      1.49683757    -1.83943848  -211.05510934    -0.00001969    -0.00008243  0.32D-05  0.11D-03 14 14   131.14
  17      1.49942112    -1.83960157  -211.05527243    -0.00016309    -0.00006606  0.18D-05  0.97D-04 15 15   137.86
  18      1.49864440    -1.83959509  -211.05526595     0.00000648    -0.00004425  0.22D-05  0.50D-04 15  4   149.03
  19      1.50089781    -1.83977538  -211.05544624    -0.00018029    -0.00004035  0.11D-05  0.58D-04 15  9   155.57
  20      1.50054961    -1.83978935  -211.05546021    -0.00001397    -0.00003256  0.13D-05  0.39D-04 15  1   163.51
  21      1.50121772    -1.83979524  -211.05546609    -0.00000588    -0.00003027  0.79D-06  0.38D-04 15  2   171.57
  22      1.50077850    -1.83978003  -211.05545089     0.00001521    -0.00002568  0.88D-06  0.30D-04 15  3   180.06
  23      1.50118490    -1.83981282  -211.05548367    -0.00003279    -0.00002599  0.68D-06  0.34D-04 15 11   189.05
  24      1.50085546    -1.83982043  -211.05549129    -0.00000761    -0.00001888  0.80D-06  0.21D-04 15 10   199.27
  25      1.50173952    -1.83981480  -211.05548565     0.00000563    -0.00001395  0.62D-06  0.22D-04 15  5   207.38
  26      1.50167142    -1.83979555  -211.05546641     0.00001924    -0.00000997  0.54D-06  0.13D-04 15  6   215.33
  27      1.50205474    -1.83988506  -211.05555592    -0.00008950    -0.00000867  0.48D-06  0.13D-04 15  7   226.39
  28      1.50203362    -1.83990790  -211.05557876    -0.00002285    -0.00000664  0.45D-06  0.78D-05 15  8   234.13
  29      1.50233729    -1.83988422  -211.05555507     0.00002369    -0.00000567  0.36D-06  0.65D-05 15 12   243.55
  30      1.50244890    -1.83988918  -211.05556004    -0.00000497    -0.00000576  0.47D-06  0.69D-05 15  6   252.21
  31      1.50240901    -1.83989336  -211.05556422    -0.00000417    -0.00000571  0.41D-06  0.68D-05 15 13   259.97
  32      1.50238505    -1.83989131  -211.05556217     0.00000204    -0.00000559  0.39D-06  0.65D-05 15  8   268.39
  33      1.50228214    -1.83985253  -211.05552339     0.00003879    -0.00000535  0.26D-06  0.61D-05 15 14   275.78
  34      1.50228454    -1.83984988  -211.05552074     0.00000265    -0.00000540  0.26D-06  0.63D-05 15  7   284.69
  35      1.50217963    -1.83981602  -211.05548688     0.00003386    -0.00000503  0.19D-06  0.56D-05 15 10   294.23
  36      1.50225644    -1.83983493  -211.05550579    -0.00001891    -0.00000510  0.19D-06  0.59D-05 15 15   304.63
  37      1.50217891    -1.83982661  -211.05549746     0.00000833    -0.00000497  0.19D-06  0.55D-05 15  6   312.22
  38      1.50232865    -1.83982466  -211.05549551     0.00000195    -0.00000509  0.17D-06  0.59D-05 15  4   319.13
  39      1.50223844    -1.83980966  -211.05548051     0.00001500    -0.00000500  0.17D-06  0.57D-05 15  9   331.15
  40      1.50229176    -1.83981518  -211.05548604    -0.00000553    -0.00000502  0.17D-06  0.57D-05 15  1   342.29
  41      1.50225468    -1.83981258  -211.05548344     0.00000260    -0.00000500  0.17D-06  0.57D-05 15  2   350.40
  42      1.50219241    -1.83980789  -211.05547875     0.00000469    -0.00000495  0.17D-06  0.56D-05 15  3   359.43
  43      1.50225778    -1.83981296  -211.05548382    -0.00000507    -0.00000496  0.17D-06  0.56D-05 15  5   369.56
  44      1.50222284    -1.83981135  -211.05548221     0.00000160    -0.00000495  0.17D-06  0.56D-05 15 11   375.92
  45      1.50229942    -1.83981416  -211.05548502    -0.00000281    -0.00000495  0.17D-06  0.56D-05 15  9   384.82
  46      1.50231149    -1.83981572  -211.05548658    -0.00000156    -0.00000496  0.17D-06  0.56D-05 15  8   393.73
  47      1.50238865    -1.83982272  -211.05549358    -0.00000700    -0.00000494  0.17D-06  0.56D-05 15  2   402.34
  48      1.50242939    -1.83982133  -211.05549219     0.00000139    -0.00000494  0.16D-06  0.56D-05 15  6   410.40
  49      1.50239189    -1.83981691  -211.05548777     0.00000442    -0.00000494  0.16D-06  0.56D-05 15 13   418.20
  50      1.50238457    -1.83981641  -211.05548727     0.00000050    -0.00000493  0.16D-06  0.56D-05 15  4   425.15
  51      1.50235143    -1.83981405  -211.05548491     0.00000236    -0.00000517  0.15D-06  0.62D-05 15 12   433.86
  52      1.50233706    -1.83981833  -211.05548919    -0.00000428    -0.00000478  0.16D-06  0.53D-05 15 13   442.68
  53      1.50268104    -1.83981070  -211.05548156     0.00000763    -0.00000474  0.11D-06  0.56D-05 15 14   451.42
  54      1.50270793    -1.83980617  -211.05547703     0.00000452    -0.00000473  0.12D-06  0.56D-05 15 15   462.43
  55      1.50266523    -1.83979505  -211.05546591     0.00001112    -0.00000487  0.13D-06  0.59D-05 15 10   468.30
  56      1.50270737    -1.83980150  -211.05547236    -0.00000645    -0.00000465  0.11D-06  0.55D-05 15 15   477.63
  57      1.50270738    -1.83978962  -211.05546048     0.00001188    -0.00000468  0.79D-07  0.57D-05 15  7   487.62
  58      1.50283607    -1.83980001  -211.05547086    -0.00001038    -0.00000460  0.86D-07  0.55D-05 15  3   494.78
  59      1.50279105    -1.83979705  -211.05546791     0.00000295    -0.00000460  0.85D-07  0.55D-05 15 15   501.31
  60      1.50273758    -1.83979036  -211.05546122     0.00000669    -0.00000469  0.79D-07  0.57D-05 15  3   510.67
  61      1.50275017    -1.83979052  -211.05546138    -0.00000017    -0.00000457  0.80D-07  0.55D-05 15 15   520.79
  62      1.50278084    -1.83979816  -211.05546902    -0.00000764    -0.00000459  0.83D-07  0.55D-05 15  5   531.14
  63      1.50266465    -1.83978506  -211.05545592     0.00001309    -0.00000461  0.94D-07  0.55D-05 15  1   538.79
  64      1.50276492    -1.83977361  -211.05544447     0.00001145    -0.00000452  0.53D-07  0.54D-05 15 15   547.76
  65      1.50270725    -1.83975987  -211.05543073     0.00001374    -0.00000454  0.47D-07  0.55D-05 15  7   558.66
  66      1.50267267    -1.83973349  -211.05540435     0.00002638    -0.00000440  0.36D-07  0.52D-05 15  3   565.41
  67      1.50263836    -1.83973020  -211.05540106     0.00000329    -0.00000443  0.32D-07  0.53D-05 15  6   575.66
  68      1.50277362    -1.83974490  -211.05541576    -0.00001470    -0.00000434  0.45D-07  0.51D-05 15 11   582.14
  69      1.50275952    -1.83973731  -211.05540817     0.00000758    -0.00000435  0.54D-07  0.52D-05 15  9   593.51
  70      1.50283145    -1.83974111  -211.05541197    -0.00000379    -0.00000431  0.52D-07  0.51D-05 15 15   603.53
  71      1.50283369    -1.83974150  -211.05541236    -0.00000040    -0.00000430  0.45D-07  0.51D-05 15  1   613.19
  72      1.50287117    -1.83974989  -211.05542075    -0.00000838    -0.00000431  0.41D-07  0.51D-05 15  5   621.92
  73      1.50290302    -1.83975059  -211.05542144    -0.00000070    -0.00000427  0.35D-07  0.50D-05 15  2   630.45
  74      1.50305359    -1.83975569  -211.05542655    -0.00000510    -0.00000429  0.36D-07  0.52D-05 15  7   638.81
  75      1.50309625    -1.83975634  -211.05542720    -0.00000066    -0.00000425  0.23D-07  0.51D-05 15  2   646.72
  76      1.50311913    -1.83975494  -211.05542580     0.00000140    -0.00000429  0.19D-07  0.52D-05 15  3   655.10
  77      1.50313213    -1.83976090  -211.05543176    -0.00000596    -0.00000423  0.24D-07  0.50D-05 15 11   664.16
  78      1.50320665    -1.83977242  -211.05544328    -0.00001152    -0.00000426  0.49D-08  0.51D-05 15  8   672.72
  79      1.50339356    -1.83981541  -211.05548627    -0.00004299    -0.00000442  0.42D-07  0.55D-05 15 10   682.95
  80      1.50325365    -1.83981019  -211.05548105     0.00000522    -0.00000441  0.72D-08  0.55D-05 15 13   692.40
  81      1.50311463    -1.83979873  -211.05546959     0.00001146    -0.00000415  0.10D-07  0.48D-05 15 10   702.62
  82      1.50342141    -1.83981342  -211.05548428    -0.00001469    -0.00000459  0.14D-07  0.60D-05 15 13   709.88
  83      1.50323153    -1.83979352  -211.05546438     0.00001990    -0.00000400  0.15D-07  0.45D-05 15  4   719.27
  84      1.50350926    -1.83981925  -211.05549011    -0.00002573    -0.00000412  0.17D-07  0.49D-05 15 10   728.74
  85      1.50335056    -1.83979532  -211.05546618     0.00002393    -0.00000396  0.20D-07  0.45D-05 15 13   734.67
  86      1.50376067    -1.83983294  -211.05550379    -0.00003762    -0.00000410  0.57D-07  0.49D-05 15  4   743.24
  87      1.50367932    -1.83981880  -211.05548966     0.00001414    -0.00000384  0.35D-07  0.43D-05 15 13   754.06
  88      1.50375599    -1.83982262  -211.05549348    -0.00000382    -0.00000386  0.41D-07  0.44D-05 15  5   763.27
  89      1.50391619    -1.83980857  -211.05547943     0.00001405    -0.00000381  0.33D-07  0.43D-05 15  1   768.88
  90      1.50426992    -1.83984011  -211.05551097    -0.00003154    -0.00000388  0.62D-07  0.45D-05 15 12   778.33
  91      1.50488646    -1.83988821  -211.05555907    -0.00004810    -0.00000373  0.55D-08  0.44D-05 15 14   784.47
  92      1.50496253    -1.83988576  -211.05555662     0.00000245    -0.00000377  0.62D-08  0.45D-05 15  6   793.49
  93      1.50498716    -1.83989622  -211.05556708    -0.00001045    -0.00000370  0.24D-07  0.43D-05 15  8   799.12
  94      1.50501075    -1.83990856  -211.05557942    -0.00001234    -0.00000362  0.18D-07  0.42D-05 15  1   807.02
  95      1.50506237    -1.83991238  -211.05558324    -0.00000382    -0.00000360  0.16D-07  0.41D-05 15 15   817.13
  96      1.50565159    -1.83994430  -211.05561515    -0.00003192    -0.00000357  0.44D-07  0.42D-05 15 13   824.33
  97      1.50553621    -1.83993535  -211.05560620     0.00000895    -0.00000361  0.28D-07  0.42D-05 15  2   831.47
  98      1.50586014    -1.83995860  -211.05562946    -0.00002325    -0.00000348  0.56D-07  0.39D-05 15  4   839.20
  99      1.50589460    -1.83995886  -211.05562972    -0.00000026    -0.00000349  0.63D-07  0.39D-05 15  2   844.85

 Norm of t1 vector:      0.08028883      S-energy:    -0.00000485      T1 diagnostic:  0.01183604
                                                                       D1 diagnostic:  0.05274082
 Norm of t2 vector:      0.70671656      P-energy:    -1.83995401
                                         Alpha-Beta:  -1.34594449
                                         Alpha-Alpha: -0.24965171
                                         Beta-Beta:   -0.24435782

 Singles amplitudes (print threshold =  0.500E-01):

         I         SYM. A    A   T(IA) [Alpha-Alpha]

         5         2         6     -0.06497422

 Doubles amplitudes (print threshold =  0.500E-01):

         I         J         SYM. A    SYM. B    A         B      T(IJ, AB) [Alpha-Beta]

         3         3         4         4         1         1     -0.08097807
         4         4         1         1         1         1     -0.05585233
         4         4         1         1         2         2     -0.05737270
         4         4         6         6         1         1     -0.05501509
         7         7         1         1         1         1     -0.06692966
         7         7         7         7         1         1     -0.09007089
         8         8         1         1         2         2     -0.08314738
         8         8         4         4         1         1     -0.07584629
        10        10         1         1         1         1     -0.10049082
        11        11         1         1         2         2     -0.06375444
        11        11         7         7         1         1     -0.08116378
        12        12         4         4         1         1     -0.06530279
        12        12         6         6         1         1     -0.06641604
        12        12         7         7         1         1     -0.06630414

 ?CONVERGENCE NOT REACHED AFTER MAX. ITERATIONS

 ?ERROR: NO CONVERGENCE. TRIPLES WILL NOT BE DONE. THIS CAN BE AVOIDED USING THE NOCHECK OPTION.

 Spin contamination <S**2-Sz**2-Sz>     0.00000000


 RESULTS
 =======

  Reference energy                   -209.215670858540
   --><property name="energy" method="Reference" stateSymmetry="1" stateNumber="1"
     value="-209.21567085854"/><!--
  RCCSD singles energy                 -0.000004851707
   --><property name="energy" method="RCCSD singles" stateSymmetry="1" stateNumber="1"
     value="-0.485170660735612E-05"/><!--
  RCCSD pair energy                    -1.839954010531
   --><property name="energy" method="RCCSD pair" stateSymmetry="1" stateNumber="1"
     value="-1.8399540105306"/><!--
  RCCSD correlation energy             -1.839958862237
   --><property name="energy" method="RCCSD correlation" stateSymmetry="1" stateNumber="1"
     value="-1.83995886223721"/><!--

 !RHF-RCCSD energy                   -211.055629720778
   --><property name="energy" method="RHF-RCCSD" principal="true" stateSymmetry="1"
     stateNumber="1" value="-211.055629720778"/><!--

 Program statistics:

 Available memory in ccsd:               999998628
 Min. memory needed in ccsd:               9510401
 Max. memory used in ccsd:                13626284
 Max. memory used in cckext:              10420977 (99 integral passes)
 Max. memory used in cckint:              24899404 ( 1 integral passes)


 ? Error
 ? No convergence. This error exit can be avoided using the NOCHECK option
 ? The problem occurs in ccsd
   --><error type="Error" location="ccsd"
     message="No convergence. This error exit can be avoided using the NOCHECK option"/><!--
  --></jobstep><!--
  -->
  <input>
  <!--
 --></job><!--
--></molpro>
