
 Primary working directories    : /global/cscratch1/sd/haihan
 Secondary working directories  : /global/cscratch1/sd/haihan
 Wavefunction directory         : /global/homes/h/haihan/wfu/
 Main file repository           : /global/cscratch1/sd/haihan/

 SHA1      : 19cd028119e0e09f93f0674bd8af7968d9b3eff6
 NAME      : 2015.1.36
 ARCHNAME  : linux/x86_64
 FC        : /opt/cray/pe/craype/2.5.14/bin/ftn
 BLASLIB   : -L/opt/intel/compilers_and_libraries_2018.1.163/linux/mkl/lib/intel64 -Wl,-_start-group -lmkl_intel_ilp64 -lmkl_intel_thread -lmkl_core -Wl,-_end-group -liomp5
 id        : lbl

 Nodes     nprocs
 nid00087    11
 Number of processes for MPI-2 version of Molpro:   nprocs(total)=   12   nprocs(compute)=   11   nprocs(helper)=    1

 Using customized tuning parameters: mindgm=7; mindgv=16; mindgc=1; mindgr=1; noblas=0; minvec=7
 default implementation of scratch files=sf  

 ***,Calculation for Re atom, singlet and triplet
 memory,1,g
 
 gthresh,twoint=1.e-15
 gthresh,oneint=1.e-15
 
 
 geometry={
 1
 Re
 Re  0.0 0.0 0.0
 }
 
 basis={
 Including file /global/u2/h/haihan/Research/ECP/f_group_element_ecps/Re/Molpro/atom/AE/nr/test_contraction/new_contracted.basis
 }
 {rhf
  start,atden
  print,orbitals=2
  wf,75,1,5
  occ,12,6,6,3,6,3,3,1
  closed,10,6,6,2,6,2,2,1
  sym,1,1,1,1,3,2,1,3,2,1,1,3,2
  restrict,1,1,10.1
  orbital,4202.2
 }
 {multi
  start,4202.2
  occ,12,6,6,3,6,3,3,1
  closed,9,6,6,2,6,2,2,1
  wf,75,1,5;state,2
  restrict,1,1,10.1
  wf,75,4,5;state,1
  restrict,1,1,10.1
  wf,75,6,5;state,1
  restrict,1,1,10.1
  wf,75,7,5;state,1
  restrict,1,1,10.1
  natorb,ci,print
  orbital,5202.2
 }
 pop
 basis={
 Including file /global/u2/h/haihan/Research/ECP/f_group_element_ecps/Re/Molpro/atom/AE/nr/test_contraction/aug-cc-pwCVTZ.basis
 }
 {multi
  start,5202.2
  occ,12,6,6,3,6,3,3,1
  closed,9,6,6,2,6,2,2,1
  wf,75,1,5;state,2
  restrict,1,1,10.1
  wf,75,4,5;state,1
  restrict,1,1,10.1
  wf,75,6,5;state,1
  restrict,1,1,10.1
  wf,75,7,5;state,1
  restrict,1,1,10.1
  natorb,ci,print
  orbital,6202.2
 }
 {rhf,nitord=1,maxit=0
  start,6202.2
  wf,75,1,5
  occ,12,6,6,3,6,3,3,1
  closed,10,6,6,2,6,2,2,1
  restrict,1,1,10.1
 }
 {ci;maxit,100;core,9,5,5,2,5,2,2,1
  natorb,ci,print=15
 }
 
 

 Variables initialized (889), CPU time= 0.01 sec
 Commands  initialized (702), CPU time= 0.01 sec, 572 directives.
 Default parameters read. Elapsed time= 0.11 sec

 Checking input...
 Passed
1


                                         ***  PROGRAM SYSTEM MOLPRO  ***
                                       Copyright, TTI GmbH Stuttgart, 2015
                                    Version 2015.1 linked Dec 29 2018 15:55:43


 **********************************************************************************************************************************
 LABEL *   Calculation for Re atom, singlet and triplet                                  
  64 bit mpp version                                                                     DATE: 14-Oct-22          TIME: 21:22:22  
 **********************************************************************************************************************************

 SHA1:             19cd028119e0e09f93f0674bd8af7968d9b3eff6
 **********************************************************************************************************************************

 THRESHOLDS:

 ZERO    =  1.00D-12  ONEINT  =  1.00D-12  TWOINT  =  1.00D-15  PREFAC  =  1.00D-14  LOCALI  =  1.00D-09  EORDER  =  1.00D-04
 ENERGY  =  0.00D+00  ETEST   =  0.00D+00  EDENS   =  0.00D+00  THRDEDEF=  1.00D-06  GRADIENT=  1.00D-02  STEP    =  1.00D-03
 ORBITAL =  1.00D-05  CIVEC   =  1.00D-05  COEFF   =  1.00D-04  PRINTCI =  5.00D-02  PUNCHCI =  9.90D+01  OPTGRAD =  3.00D-04
 OPTENERG=  1.00D-06  OPTSTEP =  3.00D-04  THRGRAD =  1.00D-10  COMPRESS=  1.00D-11  VARMIN  =  1.00D-07  VARMAX  =  1.00D-03
 THRDOUB =  0.00D+00  THRDIV  =  1.00D-05  THRRED  =  1.00D-07  THRPSP  =  1.00D+00  THRDC   =  1.00D-10  THRCS   =  1.00D-10
 THRNRM  =  1.00D-08  THREQ   =  0.00D+00  THRDE   =  1.00D+00  THRREF  =  1.00D-05  SPARFAC =  1.00D+00  THRDLP  =  1.00D-07
 THRDIA  =  1.00D-10  THRDLS  =  1.00D-07  THRGPS  =  0.00D+00  THRKEX  =  0.00D+00  THRDIS  =  2.00D-01  THRVAR  =  1.00D-10
 THRLOC  =  1.00D-06  THRGAP  =  1.00D-06  THRLOCT = -1.00D+00  THRGAPT = -1.00D+00  THRORB  =  1.00D-06  THRMLTP =  0.00D+00
 THRCPQCI=  1.00D-10  KEXTA   =  0.00D+00  THRCOARS=  0.00D+00  SYMTOL  =  1.00D-06  GRADTOL =  1.00D-06  THROVL  =  1.00D-08
 THRORTH =  1.00D-08  GRID    =  1.00D-06  GRIDMAX =  1.00D-03  DTMAX   =  0.00D+00  THROCCDE=  1.00D-01  THROCCDE=  1.00D-01



 THRESHOLDS:

 ZERO    =  1.00D-12  ONEINT  =  1.00D-15  TWOINT  =  1.00D-15  PREFAC  =  1.00D-14  LOCALI  =  1.00D-09  EORDER  =  1.00D-04
 ENERGY  =  0.00D+00  ETEST   =  0.00D+00  EDENS   =  0.00D+00  THRDEDEF=  1.00D-06  GRADIENT=  1.00D-02  STEP    =  1.00D-03
 ORBITAL =  1.00D-05  CIVEC   =  1.00D-05  COEFF   =  1.00D-04  PRINTCI =  5.00D-02  PUNCHCI =  9.90D+01  OPTGRAD =  3.00D-04
 OPTENERG=  1.00D-06  OPTSTEP =  3.00D-04  THRGRAD =  1.00D-10  COMPRESS=  1.00D-11  VARMIN  =  1.00D-07  VARMAX  =  1.00D-03
 THRDOUB =  0.00D+00  THRDIV  =  1.00D-05  THRRED  =  1.00D-07  THRPSP  =  1.00D+00  THRDC   =  1.00D-10  THRCS   =  1.00D-10
 THRNRM  =  1.00D-08  THREQ   =  0.00D+00  THRDE   =  1.00D+00  THRREF  =  1.00D-05  SPARFAC =  1.00D+00  THRDLP  =  1.00D-07
 THRDIA  =  1.00D-10  THRDLS  =  1.00D-07  THRGPS  =  0.00D+00  THRKEX  =  0.00D+00  THRDIS  =  2.00D-01  THRVAR  =  1.00D-10
 THRLOC  =  1.00D-06  THRGAP  =  1.00D-06  THRLOCT = -1.00D+00  THRGAPT = -1.00D+00  THRORB  =  1.00D-06  THRMLTP =  0.00D+00
 THRCPQCI=  1.00D-10  KEXTA   =  0.00D+00  THRCOARS=  0.00D+00  SYMTOL  =  1.00D-06  GRADTOL =  1.00D-06  THROVL  =  1.00D-08
 THRORTH =  1.00D-08  GRID    =  1.00D-06  GRIDMAX =  1.00D-03  DTMAX   =  0.00D+00  THROCCDE=  1.00D-01  THROCCDE=  1.00D-01



Geometry recognized as XYZ


 Variable memory set to 1000000000 words,  buffer space   230000 words

 SETTING BASIS          =    USERDEF


 Recomputing integrals since basis changed


 Using spherical harmonics



 PROGRAM * SEWARD (Integral evaluation for generally contracted gaussian basis sets)     Author: Roland Lindh, 1990

 Geometry written to block  1 of record 700

 Orientation using atomic masses  
 Molecule type: Atom
 Symmetry elements: X,Y,Z
 Rotational constants:       0.0000000      0.0000000      0.0000000 GHz  (calculated with average atomic masses)

 Point group  D2h 



 ATOMIC COORDINATES

 NR  ATOM    CHARGE       X              Y              Z

   1  RE     75.00    0.000000000    0.000000000    0.000000000

 NUCLEAR CHARGE:                   75
 NUMBER OF PRIMITIVE AOS:         496
 NUMBER OF SYMMETRY AOS:          401
 NUMBER OF CONTRACTIONS:          137   (  39Ag  +  16B3u +  16B2u +  16B1g +  16B1u +  16B2g +  16B3g +   2Au  )
 NUMBER OF CORE ORBITALS:          34   (   9Ag  +   6B3u +   6B2u +   2B1g +   6B1u +   2B2g +   2B3g +   1Au  )
 NUMBER OF VALENCE ORBITALS:        6   (   3Ag  +   0B3u +   0B2u +   1B1g +   0B1u +   1B2g +   1B3g +   0Au  )


 NUCLEAR REPULSION ENERGY    0.00000000

 EXTRA SYMMETRY OF AOS IN SYMMETRY 1:   1 1 1 1 1 1 1 1 1 1   1 2 3 2 3 2 3 2 3 2   3 2 3 2 3 2 3 4 5 6   4 5 6 4 5 6 4 5 6
 EXTRA SYMMETRY OF AOS IN SYMMETRY 2:   1 1 1 1 1 1 1 1 1 1   1 1 2 3 2 3
 EXTRA SYMMETRY OF AOS IN SYMMETRY 3:   1 1 1 1 1 1 1 1 1 1   1 1 2 3 2 3
 EXTRA SYMMETRY OF AOS IN SYMMETRY 4:   1 1 1 1 1 1 1 1 2 3   2 3 2 3 2 3
 EXTRA SYMMETRY OF AOS IN SYMMETRY 5:   1 1 1 1 1 1 1 1 1 1   1 1 2 3 2 3
 EXTRA SYMMETRY OF AOS IN SYMMETRY 6:   1 1 1 1 1 1 1 1 2 3   2 3 2 3 2 3
 EXTRA SYMMETRY OF AOS IN SYMMETRY 7:   1 1 1 1 1 1 1 1 2 3   2 3 2 3 2 3

 Eigenvalues of metric

         1 0.170E-05 0.612E-03 0.612E-03 0.253E-02 0.268E+00 0.268E+00 0.268E+00 0.401E+00
         2 0.176E-04 0.278E+00 0.630E+00 0.872E+00 0.997E+00 0.997E+00 0.100E+01 0.100E+01
         3 0.176E-04 0.278E+00 0.630E+00 0.872E+00 0.997E+00 0.997E+00 0.100E+01 0.100E+01
         4 0.612E-03 0.268E+00 0.268E+00 0.777E+00 0.777E+00 0.854E+00 0.100E+01 0.100E+01
         5 0.176E-04 0.278E+00 0.630E+00 0.872E+00 0.997E+00 0.997E+00 0.100E+01 0.100E+01
         6 0.612E-03 0.268E+00 0.268E+00 0.777E+00 0.777E+00 0.854E+00 0.100E+01 0.100E+01
         7 0.612E-03 0.268E+00 0.268E+00 0.777E+00 0.777E+00 0.854E+00 0.100E+01 0.100E+01
         8 0.997E+00 0.100E+01


 Contracted 2-electron integrals neglected if value below      1.0D-15
 AO integral compression algorithm  1   Integral accuracy      1.0D-15

     54.002 MB (compressed) written to integral file ( 56.9%)

     Node minimum: 2.621 MB, node maximum: 7.864 MB


 NUMBER OF SORTED TWO-ELECTRON INTEGRALS:     535475.     BUFFER LENGTH:  32768
 NUMBER OF SEGMENTS:   1  SEGMENT LENGTH:     535475      RECORD LENGTH: 524288

 Memory used in sort:       1.09 MW

 SORT1 READ    11957565. AND WROTE      311946. INTEGRALS IN      1 RECORDS. CPU TIME:     0.23 SEC, REAL TIME:     0.24 SEC
 SORT2 READ     3490121. AND WROTE     5901384. INTEGRALS IN    242 RECORDS. CPU TIME:     0.02 SEC, REAL TIME:     0.03 SEC

 Node minimum:      517633.  Node maximum:      560723. integrals

 OPERATOR DM      FOR CENTER  0  COORDINATES:    0.000000    0.000000    0.000000


 **********************************************************************************************************************************
 DATASETS  * FILE   NREC   LENGTH (MB)   RECORD NAMES
              1      18       20.15       500      610      700      900      950      970     1000      129      960     1100   
                                          VAR    BASINP    GEOM    SYMINP    ZMAT    AOBASIS   BASIS     P2S    ABASIS      S 
                                         1400     1410     1200     1210     1080     1600     1650     1700   
                                           T        V       H0       H01     AOSYM     SMH    MOLCAS    OPER   

 PROGRAMS   *        TOTAL       INT
 CPU TIMES  *        18.82     18.44
 REAL TIME  *        20.02 SEC
 DISK USED  *        76.08 MB      
 GA USED    *         0.00 MB       (max)       0.00 MB       (current)
 **********************************************************************************************************************************


 PROGRAM * RHF-SCF (OPEN SHELL)       Authors: W. Meyer, H.-J. Werner


 NUMBER OF ELECTRONS:      40+   35-    SPACE SYMMETRY=1    SPIN SYMMETRY: Sextet  
 CONVERGENCE THRESHOLDS:    1.00E-05 (Density)    1.50E-07 (Energy)
 MAX. NUMBER OF ITERATIONS:       60
 INTERPOLATION TYPE:            DIIS
 INTERPOLATION STEPS:              2 (START)      1 (STEP)
 LEVEL SHIFTS:                 -0.60 (CLOSED) -0.30 (OPEN) 

 Number of closed-shell orbitals:   35 (  10   6   6   2   6   2   2   1 )
 Number of open-shell orbitals:      5 (   2   0   0   1   0   1   1   0 )


 
 Extra symmetries of mos in symmetry 1:   1   1   1   3   2   1   3   2   1   1   3   2
     Symmetry restrictions:    1             1
 Orbital guess generated from atomic densities. Full valence occupancy:   12   6   6   3   6   3   3   1


 Molecular orbital dump at record        4202.2

 ITERATION    DDIFF          GRAD             ENERGY        2-EL.EN.            DIPOLE MOMENTS         DIIS   ORB.
    1      0.000D+00      0.000D+00    -15776.89404763  11670.797801    0.00000    0.00000    0.00000    0    start
    2      0.000D+00      0.567D-01    -15783.12645845  12241.934494    0.00000    0.00000    0.00000    1    diag,B
    3      0.316D+03      0.456D-01    -15784.21792197  12129.934015    0.00000    0.00000    0.00000    2    diag,B
    4      0.181D+02      0.157D-01    -15784.44772670  12095.892704    0.00000    0.00000    0.00000    3    diag,B
    5      0.455D+02      0.662D-02    -15784.51442649  12062.521612    0.00000    0.00000    0.00000    4    diag,B
    6      0.706D+00      0.297D-02    -15784.52431391  12067.276746    0.00000    0.00000    0.00000    5    diag,B
    7      0.333D+02      0.138D-02    -15784.53148599  12065.899585    0.00000    0.00000    0.00000    6    fixocc
    8      0.284D+02      0.563D-03    -15784.53249395  12065.124571    0.00000    0.00000    0.00000    7    diag,B
    9      0.415D+01      0.198D-03    -15784.53254415  12064.550241    0.00000    0.00000    0.00000    8    diag,B
   10      0.721D-01      0.572D-04    -15784.53255065  12064.381487    0.00000    0.00000    0.00000    9    orth
   11      0.368D-02      0.238D-04    -15784.53255420  12064.310583    0.00000    0.00000    0.00000    9    diag,B
   12      0.672D-02      0.107D-04    -15784.53255496  12064.308481    0.00000    0.00000    0.00000    9    diag,B
   13      0.828D-02      0.324D-05    -15784.53255501  12064.300962    0.00000    0.00000    0.00000    9    diag,B
   14      0.918D-03      0.846D-06    -15784.53255501  12064.302116    0.00000    0.00000    0.00000    9    diag,B
   15      0.503D-03      0.573D-06    -15784.53255502  12064.301360    0.00000    0.00000    0.00000    9    diag,B
   16      0.168D-03      0.491D-06    -15784.53255502  12064.301690    0.00000    0.00000    0.00000    9    diag,B
   17      0.801D-04      0.364D-06    -15784.53255503  12064.301597    0.00000    0.00000    0.00000    9    diag,B
   18      0.406D-04      0.235D-06    -15784.53255503  12064.301554    0.00000    0.00000    0.00000    9    diag,B
   19      0.356D-04      0.152D-06    -15784.53255503  12064.301604    0.00000    0.00000    0.00000    9    diag,B
   20      0.319D-04      0.807D-07    -15784.53255504  12064.301663    0.00000    0.00000    0.00000    9    orth
   21      0.289D-04      0.324D-07    -15784.53255504  12064.301665    0.00000    0.00000    0.00000    9    diag,B
   22      0.630D-05      0.167D-07    -15784.53255504  12064.301666    0.00000    0.00000    0.00000    0    orth

 Final alpha occupancy:  12   6   6   3   6   3   3   1
 Final beta  occupancy:  10   6   6   2   6   2   2   1

 !RHF STATE 1.1 Energy               -15784.5325550351    
 Nuclear energy                         0.00000000
 One-electron energy               -21816.68338782
 Two-electron energy                 6032.15083279
 Virial quotient                       -1.00000419
 !RHF STATE 1.1 Dipole moment           0.00000000     0.00000000     0.00000000
 Dipole moment /Debye                   0.00000000     0.00000000     0.00000000

 ELECTRON ORBITALS
 =================


   Orb  Occ    Energy  Couls-En    Coefficients

                                   1 1s      1 1s      1 1s      1 1s      1 1s      1 1s      1 1s      1 1s      1 1s      1 1s   
                                   1 1s      1 3d0     1 3d2+    1 3d0     1 3d2+    1 3d0     1 3d2+    1 3d0     1 3d2+    1 3d0  
                                   1 3d2+    1 3d0     1 3d2+    1 3d0     1 3d2+    1 3d0     1 3d2+    1 5g0     1 5g4+    1 5g2+ 
                                   1 5g0     1 5g4+    1 5g2+    1 5g0     1 5g4+    1 5g2+    1 5g0     1 5g4+    1 5g2+ 

   1.1   2 -2429.7541-5242.0583  1.000000 -0.000001  0.000000 -0.000000 -0.000000 -0.000045  0.000044 -0.000004 -0.000003  0.000000
                                -0.000000 -0.000000 -0.000000  0.000000  0.000000 -0.000000  0.000000 -0.000000  0.000000  0.000000
                                -0.000000 -0.000000  0.000000 -0.000000 -0.000000 -0.000000  0.000000 -0.000000 -0.000000 -0.000000
                                -0.000000  0.000000  0.000000  0.000000 -0.000000 -0.000000 -0.000000  0.000000  0.000000

   2.1   2  -405.8269-1106.0933 -0.000000  1.000000 -0.000002 -0.000001 -0.000001  0.000121 -0.000120  0.000006  0.000003 -0.000000
                                 0.000000 -0.000000 -0.000000  0.000000 -0.000000  0.000000  0.000000  0.000000  0.000000 -0.000000
                                 0.000000  0.000000 -0.000000 -0.000000  0.000000  0.000000 -0.000000  0.000000  0.000000  0.000000
                                -0.000000  0.000000 -0.000000  0.000000 -0.000000  0.000000 -0.000000 -0.000000 -0.000000

   3.1   2   -95.2756 -397.7946  0.000000  0.000000  1.000000 -0.000010  0.000002 -0.000902  0.000898 -0.000028 -0.000013  0.000007
                                -0.000001 -0.000000 -0.000000 -0.000000  0.000000 -0.000000  0.000000 -0.000000  0.000000  0.000000
                                -0.000000 -0.000000  0.000000  0.000000 -0.000000 -0.000000  0.000000 -0.000000 -0.000000 -0.000000
                                 0.000000 -0.000000  0.000000 -0.000000  0.000000 -0.000000  0.000000  0.000000  0.000000

   4.1   2   -72.5057 -370.8527  0.000000  0.000000  0.000000 -0.000000 -0.000000  0.000000 -0.000000  0.000000  0.000000 -0.000000
                                 0.000000  0.000009  1.000000 -0.000000 -0.000001  0.000000  0.000003  0.000000  0.000001 -0.000000
                                -0.000028  0.000000  0.000027 -0.000000 -0.000001  0.000000  0.000000 -0.000000 -0.000000 -0.000000
                                -0.000000  0.000000  0.000000  0.000000 -0.000000 -0.000000 -0.000000  0.000000  0.000000

   5.1   2   -72.5057 -370.8527  0.000000  0.000000  0.000000 -0.000000  0.000000  0.000000 -0.000000  0.000000  0.000000  0.000000
                                 0.000000  1.000000 -0.000009 -0.000001  0.000000  0.000003 -0.000000  0.000001 -0.000000 -0.000028
                                 0.000000  0.000027 -0.000000 -0.000001  0.000000  0.000000 -0.000000 -0.000000 -0.000000  0.000000
                                 0.000000  0.000000 -0.000000 -0.000000 -0.000000  0.000000  0.000000 -0.000000 -0.000000

   6.1   2   -20.5302 -173.5378 -0.000000 -0.000001  0.000009  1.000001 -0.000039 -0.016922  0.016861 -0.001417 -0.001095  0.000038
                                -0.000021  0.000000 -0.000000 -0.000000  0.000000 -0.000000 -0.000000  0.000000 -0.000000 -0.000000
                                 0.000000  0.000000 -0.000000 -0.000000  0.000000  0.000000  0.000000  0.000000 -0.000000 -0.000000
                                 0.000000  0.000000  0.000000 -0.000000  0.000000 -0.000000  0.000000 -0.000000  0.000000

   7.1   2   -10.8628 -152.3659 -0.000000  0.000000 -0.000000 -0.000000 -0.000000  0.000000 -0.000000  0.000000  0.000000 -0.000000
                                 0.000000 -0.000000  0.000001 -0.000003  1.000000  0.000000 -0.000195 -0.000000  0.000071 -0.000000
                                 0.000063 -0.000000  0.000020 -0.000000  0.000033 -0.000000  0.000000  0.000000  0.000000 -0.000000
                                -0.000000  0.000000  0.000000  0.000000 -0.000000  0.000000 -0.000000  0.000000 -0.000000

   8.1   2   -10.8628 -152.3659 -0.000000 -0.000000  0.000000  0.000000 -0.000000 -0.000000  0.000000 -0.000000 -0.000000 -0.000000
                                -0.000000  0.000001  0.000000  1.000000  0.000003 -0.000195 -0.000000  0.000071  0.000000  0.000063
                                 0.000000  0.000020  0.000000  0.000033  0.000000  0.000000  0.000000 -0.000000  0.000000 -0.000000
                                 0.000000  0.000000  0.000000  0.000000 -0.000000 -0.000000 -0.000000  0.000000  0.000000

   9.1   2    -3.1206  -74.6653  0.000001  0.000000 -0.000003  0.000038  0.999976  0.107717 -0.105413  0.006449 -0.000013 -0.000700
                                 0.000114 -0.000000  0.000000  0.000000  0.000000  0.000000  0.000000  0.000000  0.000000  0.000000
                                -0.000000 -0.000000  0.000000 -0.000000 -0.000000 -0.000000  0.000000  0.000000  0.000000  0.000000
                                -0.000000  0.000000  0.000000 -0.000000 -0.000000 -0.000000  0.000000 -0.000000 -0.000000

  10.1   2    -0.2308  -24.1289  0.000001 -0.000001  0.000004  0.000062 -0.002135  1.012084 -0.012162  0.008667  0.006345 -0.001056
                                -0.000105 -0.000000  0.000000 -0.000000  0.000000 -0.000003 -0.000000  0.000000 -0.000000 -0.000001
                                 0.000000  0.000001 -0.000000  0.000000 -0.000000  0.000001 -0.000000  0.000000  0.000000  0.000000
                                 0.000000 -0.000000  0.000000 -0.000000  0.000000  0.000000 -0.000000 -0.000000  0.000000

  11.1   +    -0.5148  -49.4475  0.000000  0.000000  0.000000  0.000000 -0.000000 -0.000000  0.000000 -0.000000 -0.000000  0.000000
                                -0.000000 -0.000000 -0.000002  0.000000  0.000192  0.000030  0.999004  0.000002  0.064107 -0.000003
                                -0.104424  0.000002  0.076559  0.000000  0.006984 -0.000000 -0.001432  0.000000 -0.000000  0.000000
                                -0.000000  0.000000 -0.000000  0.000000 -0.000000  0.000000  0.000000 -0.000000  0.000000

  12.1   +    -0.5148  -49.4475 -0.000000 -0.000000 -0.000000  0.000000 -0.000000  0.000000  0.000003 -0.000000  0.000000  0.000000
                                 0.000000 -0.000002  0.000000  0.000192 -0.000000  0.999004 -0.000030  0.064107 -0.000002 -0.104424
                                 0.000003  0.076558 -0.000002  0.006984 -0.000000 -0.001432  0.000000  0.000000  0.000000  0.000000
                                -0.000000 -0.000000  0.000000  0.000000  0.000000 -0.000000  0.000000  0.000000 -0.000000

  13.1   0     0.0192   -7.4084 -0.000497 -0.003400 -0.011749 -0.036893 -0.141376 30.805903-30.055699  0.604529  0.169570 -0.087658
                                 1.361627  0.000000 -0.000000  0.000000 -0.000000 -0.000000  0.000000  0.000000  0.000000 -0.000000
                                -0.000000  0.000000  0.000000  0.000000  0.000000 -0.000000  0.000000  0.000000 -0.000000 -0.000000
                                -0.000000 -0.000000 -0.000000 -0.000000  0.000000  0.000000 -0.000000  0.000000 -0.000000

  14.1   0     0.0337   -6.2475 -0.000000 -0.000000 -0.000000 -0.000000 -0.000000  0.000028 -0.000028  0.000000  0.000000 -0.000000
                                 0.000001 -0.000010 -0.000000 -0.000298 -0.000000 -0.028327 -0.000001  0.001563  0.000000 -0.051984
                                -0.000002  0.049521  0.000002  0.001059  0.000000  1.001604  0.000034 -0.000000 -0.000000 -0.000000
                                 0.000000 -0.000000 -0.000000 -0.000000 -0.000000 -0.000000  0.000000 -0.000000  0.000000

                                   1 2px     1 2px     1 2px     1 2px     1 2px     1 2px     1 2px     1 2px     1 2px     1 2px  
                                   1 2px     1 2px     1 4f1+    1 4f3+    1 4f1+    1 4f3+ 

   1.2   2  -388.6533-1088.3506  1.000000 -0.000000  0.000001 -0.000000 -0.000044 -0.000044 -0.000001 -0.000000 -0.000000  0.000000
                                 0.000000  0.000000 -0.000000 -0.000000  0.000000 -0.000000

   2.2   2   -87.2581 -387.8671  0.000001  1.000000 -0.000007  0.000004  0.000012  0.000012 -0.000001  0.000001  0.000000 -0.000000
                                -0.000000 -0.000000  0.000000 -0.000000  0.000000  0.000000

   3.2   2   -17.0989 -166.3619 -0.000001  0.000008  1.000000 -0.000022  0.000772  0.000812  0.000012  0.000002  0.000000 -0.000000
                                 0.000000 -0.000000 -0.000000  0.000000  0.000000 -0.000000

   4.2   2    -2.6127 -128.0478 -0.000000  0.000000 -0.000000  0.000000  0.000000  0.000000 -0.000000  0.000000  0.000000  0.000000
                                -0.000000 -0.000000 -0.060404  0.998174  0.000008 -0.000139

   5.2   2    -2.6127 -128.0478  0.000000 -0.000000  0.000000 -0.000000 -0.000000 -0.000000  0.000000  0.000000  0.000000 -0.000000
                                 0.000000  0.000000  0.998174  0.060404 -0.000139 -0.000008

   6.2   2    -2.0013  -67.4897  0.000000 -0.000003  0.000031  0.998570 -0.138751 -0.130881 -0.001846 -0.000025  0.000000 -0.000000
                                 0.000000 -0.000000  0.000000 -0.000000 -0.000000 -0.000000

   7.2   0     0.0105   -6.4331 -0.000018 -0.000184 -0.001418 -0.037347 -1.978510 -2.063875 -0.060727  0.980634  0.000000 -0.000000
                                 0.000000  0.000000  0.000000 -0.000000 -0.000000  0.000000

   8.2   0     0.1561  -24.2036 -0.000014 -0.000031 -0.000402  0.329471 32.129566 33.036797  0.807852  0.278197 -0.000000  0.000000
                                -0.000000  0.000000 -0.000000 -0.000000  0.000000 -0.000000

                                   1 2py     1 2py     1 2py     1 2py     1 2py     1 2py     1 2py     1 2py     1 2py     1 2py  
                                   1 2py     1 2py     1 4f1-    1 4f3-    1 4f1-    1 4f3- 

   1.3   2  -388.6533-1088.3506  1.000000 -0.000000  0.000001 -0.000000 -0.000044 -0.000044 -0.000001 -0.000000 -0.000000  0.000000
                                 0.000000  0.000000 -0.000000  0.000000  0.000000  0.000000

   2.3   2   -87.2581 -387.8671  0.000001  1.000000 -0.000007  0.000004  0.000012  0.000012 -0.000001  0.000001  0.000000 -0.000000
                                -0.000000 -0.000000 -0.000000 -0.000000  0.000000  0.000000

   3.3   2   -17.0989 -166.3619 -0.000001  0.000008  1.000000 -0.000022  0.000772  0.000812  0.000012  0.000002  0.000000 -0.000000
                                 0.000000 -0.000000 -0.000000  0.000000  0.000000 -0.000000

   4.3   2    -2.6127 -128.0478  0.000000  0.000000  0.000000  0.000000 -0.000000 -0.000000  0.000000  0.000000  0.000000  0.000000
                                -0.000000 -0.000000  0.999809  0.019580 -0.000139 -0.000003

   5.3   2    -2.6127 -128.0478 -0.000000  0.000000 -0.000000  0.000000 -0.000000 -0.000000 -0.000000 -0.000000 -0.000000  0.000000
                                -0.000000 -0.000000 -0.019580  0.999809  0.000003 -0.000139

   6.3   2    -2.0013  -67.4897  0.000000 -0.000003  0.000031  0.998570 -0.138751 -0.130881 -0.001846 -0.000025  0.000000 -0.000000
                                 0.000000 -0.000000 -0.000000 -0.000000 -0.000000  0.000000

   7.3   0     0.0105   -6.4331 -0.000018 -0.000184 -0.001418 -0.037347 -1.978510 -2.063875 -0.060727  0.980634  0.000000 -0.000000
                                 0.000000  0.000000  0.000000  0.000000 -0.000000 -0.000000

   8.3   0     0.1561  -24.2036 -0.000014 -0.000031 -0.000402  0.329471 32.129566 33.036797  0.807852  0.278197 -0.000000  0.000000
                                -0.000000  0.000000 -0.000000  0.000000  0.000000  0.000000

                                   1 3d2-    1 3d2-    1 3d2-    1 3d2-    1 3d2-    1 3d2-    1 3d2-    1 3d2-    1 5g2-    1 5g4- 
                                   1 5g2-    1 5g4-    1 5g2-    1 5g4-    1 5g2-    1 5g4- 

   1.4   2   -72.5057 -370.8527  1.000000 -0.000001  0.000003  0.000001 -0.000028  0.000027 -0.000001  0.000000 -0.000000  0.000000
                                 0.000000  0.000000 -0.000000 -0.000000  0.000000  0.000000

   2.4   2   -10.8628 -152.3659  0.000001  1.000000 -0.000195  0.000071  0.000063  0.000020  0.000033  0.000000 -0.000000  0.000000
                                 0.000000  0.000000  0.000000 -0.000000 -0.000000  0.000000

   3.4   +    -0.5148  -49.4475 -0.000002  0.000192  0.999004  0.064107 -0.104424  0.076559  0.006984 -0.001432  0.000000 -0.000000
                                -0.000000  0.000000  0.000000 -0.000000  0.000000 -0.000000

   4.4   0     0.0337   -6.2475 -0.000010 -0.000298 -0.028327  0.001563 -0.051984  0.049521  0.001059  1.001604 -0.000000  0.000000
                                 0.000000  0.000000 -0.000000  0.000000  0.000000  0.000000

   5.4   0     0.3591  -20.9429  0.000004 -0.000098 -0.014124  0.889108 -4.540649  3.961361  0.198284  0.179566  0.000000 -0.000000
                                -0.000000 -0.000000  0.000000 -0.000000 -0.000000  0.000000

                                   1 2pz     1 2pz     1 2pz     1 2pz     1 2pz     1 2pz     1 2pz     1 2pz     1 2pz     1 2pz  
                                   1 2pz     1 2pz     1 4f0     1 4f2+    1 4f0     1 4f2+ 

   1.5   2  -388.6533-1088.3506  1.000000 -0.000000  0.000001 -0.000000 -0.000044 -0.000044 -0.000001 -0.000000 -0.000000  0.000000
                                 0.000000  0.000000 -0.000000  0.000000  0.000000  0.000000

   2.5   2   -87.2581 -387.8671  0.000001  1.000000 -0.000007  0.000004  0.000012  0.000012 -0.000001  0.000001  0.000000 -0.000000
                                -0.000000 -0.000000 -0.000000  0.000000 -0.000000 -0.000000

   3.5   2   -17.0989 -166.3619 -0.000001  0.000008  1.000000 -0.000022  0.000772  0.000812  0.000012  0.000002  0.000000 -0.000000
                                 0.000000 -0.000000 -0.000000  0.000000  0.000000 -0.000000

   4.5   2    -2.6127 -128.0478  0.000000  0.000000  0.000000 -0.000000 -0.000000 -0.000000  0.000000  0.000000  0.000000  0.000000
                                -0.000000  0.000000  0.999995  0.003307 -0.000139 -0.000000

   5.5   2    -2.6127 -128.0478 -0.000000 -0.000000 -0.000000  0.000000 -0.000000 -0.000000 -0.000000 -0.000000 -0.000000 -0.000000
                                 0.000000 -0.000000 -0.003307  0.999995  0.000000 -0.000139

   6.5   2    -2.0013  -67.4897  0.000000 -0.000003  0.000031  0.998570 -0.138751 -0.130881 -0.001846 -0.000025  0.000000 -0.000000
                                 0.000000 -0.000000  0.000000 -0.000000  0.000000  0.000000

   7.5   0     0.0105   -6.4331 -0.000018 -0.000184 -0.001418 -0.037347 -1.978508 -2.063873 -0.060727  0.980634  0.000000 -0.000000
                                 0.000000  0.000000  0.000000  0.000000 -0.000000  0.000000

   8.5   0     0.1561  -24.2036 -0.000014 -0.000031 -0.000402  0.329471 32.129563 33.036794  0.807852  0.278197 -0.000000  0.000000
                                -0.000000  0.000000 -0.000000 -0.000000 -0.000000  0.000000

                                   1 3d1+    1 3d1+    1 3d1+    1 3d1+    1 3d1+    1 3d1+    1 3d1+    1 3d1+    1 5g1+    1 5g3+ 
                                   1 5g1+    1 5g3+    1 5g1+    1 5g3+    1 5g1+    1 5g3+ 

   1.6   2   -72.5057 -370.8527  1.000000 -0.000001  0.000003  0.000001 -0.000028  0.000027 -0.000001  0.000000 -0.000000 -0.000000
                                 0.000000 -0.000000 -0.000000 -0.000000  0.000000  0.000000

   2.6   2   -10.8628 -152.3659  0.000001  1.000000 -0.000195  0.000071  0.000063  0.000020  0.000033  0.000000 -0.000000 -0.000000
                                 0.000000  0.000000  0.000000  0.000000 -0.000000 -0.000000

   3.6   +    -0.5148  -49.4475 -0.000002  0.000192  0.999004  0.064107 -0.104424  0.076559  0.006984 -0.001432  0.000000  0.000000
                                -0.000000  0.000000  0.000000 -0.000000  0.000000 -0.000000

   4.6   0     0.0337   -6.2475 -0.000010 -0.000298 -0.028327  0.001563 -0.051984  0.049521  0.001059  1.001604 -0.000000  0.000000
                                 0.000000  0.000000 -0.000000  0.000000  0.000000  0.000000

   5.6   0     0.3591  -20.9429  0.000004 -0.000098 -0.014124  0.889108 -4.540649  3.961360  0.198284  0.179566  0.000000  0.000000
                                -0.000000  0.000000  0.000000  0.000000 -0.000000  0.000000

                                   1 3d1-    1 3d1-    1 3d1-    1 3d1-    1 3d1-    1 3d1-    1 3d1-    1 3d1-    1 5g1-    1 5g3- 
                                   1 5g1-    1 5g3-    1 5g1-    1 5g3-    1 5g1-    1 5g3- 

   1.7   2   -72.5057 -370.8527  1.000000 -0.000001  0.000003  0.000001 -0.000028  0.000027 -0.000001  0.000000 -0.000000  0.000000
                                 0.000000  0.000000 -0.000000 -0.000000  0.000000 -0.000000

   2.7   2   -10.8628 -152.3659  0.000001  1.000000 -0.000195  0.000071  0.000063  0.000020  0.000033  0.000000 -0.000000  0.000000
                                 0.000000  0.000000  0.000000 -0.000000 -0.000000  0.000000

   3.7   +    -0.5148  -49.4475 -0.000002  0.000192  0.999004  0.064107 -0.104424  0.076559  0.006984 -0.001432  0.000000 -0.000000
                                -0.000000 -0.000000  0.000000 -0.000000  0.000000  0.000000

   4.7   0     0.0337   -6.2475 -0.000010 -0.000298 -0.028327  0.001563 -0.051984  0.049521  0.001059  1.001604 -0.000000 -0.000000
                                 0.000000 -0.000000 -0.000000  0.000000  0.000000 -0.000000

   5.7   0     0.3591  -20.9429  0.000004 -0.000098 -0.014124  0.889108 -4.540649  3.961360  0.198284  0.179566  0.000000 -0.000000
                                -0.000000 -0.000000  0.000000 -0.000000 -0.000000 -0.000000

                                   1 4f2-    1 4f2- 

   1.8   2    -2.6127 -128.0478  1.000000 -0.000139

   2.8   0     0.1945  -11.3335 -0.003342  1.000006

 HOMO     12.1    -0.514773 =     -14.0077eV
 LUMO      7.3     0.010500 =       0.2857eV
 LUMO-HOMO         0.525273 =      14.2934eV


 **********************************************************************************************************************************
 DATASETS  * FILE   NREC   LENGTH (MB)   RECORD NAMES
              1      18       20.16       500      610      700      900      950      970     1000      129      960     1100   
                                          VAR    BASINP    GEOM    SYMINP    ZMAT    AOBASIS   BASIS     P2S    ABASIS      S 
                                         1400     1410     1200     1210     1080     1600     1650     1700   
                                           T        V       H0       H01     AOSYM     SMH    MOLCAS    OPER   

              2       4        2.89       700     1000      520     4202   
                                         GEOM     BASIS   MCVARS     RHF  

 PROGRAMS   *        TOTAL       RHF       INT
 CPU TIMES  *        18.96      0.14     18.44
 REAL TIME  *        20.31 SEC
 DISK USED  *       335.74 MB      
 SF USED    *         0.01 MB      
 GA USED    *         0.00 MB       (max)       0.00 MB       (current)
 **********************************************************************************************************************************


 PROGRAM * MULTI (Direct Multiconfiguration SCF)       Authors: P.J. Knowles, H.-J. Werner (1984)     S.T. Elbert (1988)


 Number of closed-shell orbitals:  34 (   9   6   6   2   6   2   2   1 )
 Number of active  orbitals:        6 (   3   0   0   1   0   1   1   0 )
 Number of external orbitals:      97 (  27  10  10  13  10  13  13   1 )

 State symmetry 1

 Orbital occupancy restrictions for symmetry 1
  1      1       200000                          

 Number of electrons:     7    Spin symmetry=Sextet    Space symmetry=1
 Number of states:        2
 Number of CSFs:          2

 State symmetry 2

 Orbital occupancy restrictions for symmetry 4
  1      1       200000                          

 Number of electrons:     7    Spin symmetry=Sextet    Space symmetry=4
 Number of states:        1
 Number of CSFs:          1

 State symmetry 3

 Orbital occupancy restrictions for symmetry 6
  1      1       200000                          

 Number of electrons:     7    Spin symmetry=Sextet    Space symmetry=6
 Number of states:        1
 Number of CSFs:          1

 State symmetry 4

 Orbital occupancy restrictions for symmetry 7
  1      1       200000                          

 Number of electrons:     7    Spin symmetry=Sextet    Space symmetry=7
 Number of states:        1
 Number of CSFs:          1
 
 Maximum number of shells:             2
 Maximum number of spin couplings:     6

 Storage for configuration lists      93, coupling coefficients    299, address lists    409

 Molecular orbitals read from record     4202.2  Type=RHF/CANONICAL (state 1.1)
 *** IN SYMMETRY 1 ORBITAL 11 SYMMETRY CONTAMINATION OF 0.299D-04 HAS BEEN REMOVED
 *** IN SYMMETRY 1 ORBITAL 12 SYMMETRY CONTAMINATION OF 0.320D-04 HAS BEEN REMOVED

 EXTRA SYMMETRY OF MOS IN SYMMETRY 1:   1 1 1 3 2 1 3 2 1 1   3 2 1 2 3 1 2 3 1 4   6 5 2 3 4 6 5 1 2 3   6 4 5 1 3 2 5 6 4
 *** IN SYMMETRY 2 ORBITAL  4 SYMMETRY CONTAMINATION OF 0.571D-01 HAS BEEN REMOVED
 *** IN SYMMETRY 2 ORBITAL  5 SYMMETRY CONTAMINATION OF 0.571D-01 HAS BEEN REMOVED
 EXTRA SYMMETRY OF MOS IN SYMMETRY 2:   1 1 1 3 2 1 1 1 2 3   1 1 1 1 1 1
 *** IN SYMMETRY 3 ORBITAL  4 SYMMETRY CONTAMINATION OF 0.192D-01 HAS BEEN REMOVED
 *** IN SYMMETRY 3 ORBITAL  5 SYMMETRY CONTAMINATION OF 0.192D-01 HAS BEEN REMOVED
 EXTRA SYMMETRY OF MOS IN SYMMETRY 3:   1 1 1 2 3 1 1 1 2 3   1 1 1 1 1 1
 EXTRA SYMMETRY OF MOS IN SYMMETRY 4:   1 1 1 1 1 2 3 1 2 3   1 2 3 1 3 2
 *** IN SYMMETRY 5 ORBITAL  4 SYMMETRY CONTAMINATION OF 0.330D-02 HAS BEEN REMOVED
 *** IN SYMMETRY 5 ORBITAL  5 SYMMETRY CONTAMINATION OF 0.330D-02 HAS BEEN REMOVED
 EXTRA SYMMETRY OF MOS IN SYMMETRY 5:   1 1 1 2 3 1 1 1 2 3   1 1 1 1 1 1
 EXTRA SYMMETRY OF MOS IN SYMMETRY 6:   1 1 1 1 1 2 3 1 2 3   1 2 3 1 3 2
 EXTRA SYMMETRY OF MOS IN SYMMETRY 7:   1 1 1 1 1 2 3 1 2 3   1 2 3 1 3 2

 Wavefunction dump at record             5202.2

 Convergence thresholds  0.10E-01 (gradient)  0.15E-05 (energy)  0.10E-02 (step length)

 Weight factors for state symmetry  1:    0.20000   0.20000
 Weight factors for state symmetry  2:    0.20000
 Weight factors for state symmetry  3:    0.20000
 Weight factors for state symmetry  4:    0.20000

 Eigenvalues of redundancy matrix
   1-  3   -0.000000    0.000000    1.000000

 Non-redundant active-active orbital rotations:
     1  2  3  4  5
  2   
  3  +   
  4         
  5            
  6               

 Number of orbital rotations:      656   (    33 Core/Active    502 Core/Virtual   1 Active/Active    120 Active/Virtual)
 Total number of variables:        663


 ITER. MIC  NCI  NEG     ENERGY(VAR)     ENERGY(PROJ)   ENERGY CHANGE     GRAD(0)  GRAD(ORB)   GRAD(CI)     STEP       TIME

   1   19   28    0  -15784.49182893  -15784.53298162   -0.04115269    0.35249487 0.00000000 0.00000000  0.17D+00      0.51
   2   17   32    0  -15784.53420399  -15784.53431195   -0.00010796    0.01518422 0.00000000 0.00000000  0.10D-01      1.04
   3   18   20    0  -15784.53431217  -15784.53431218   -0.00000000    0.00004579 0.00000000 0.00000000  0.36D-04      1.50

 ** WVFN ****  CONVERGENCE REACHED, FINAL GRADIENT:  0.55D-09



 Results for state 1.1
 =====================

 !MCSCF STATE 1.1 Energy             -15784.5343121756    
 Nuclear energy                         0.00000000
 Kinetic energy                     15784.54585825
 One electron energy               -21826.09843259
 Two electron energy                 6041.56412042
 Virial ratio                           1.99999927

 !MCSCF STATE 1.1 Dipole moment         0.00000000     0.00000000     0.00000000
 Dipole moment /Debye                   0.00000000     0.00000000     0.00000000

 Results for state 2.1
 =====================

 !MCSCF STATE 2.1 Energy             -15784.5343121756    
 Nuclear energy                         0.00000000
 Kinetic energy                     15784.54585825
 One electron energy               -21826.09843259
 Two electron energy                 6041.56412042
 Virial ratio                           1.99999927

 !MCSCF STATE 2.1 Dipole moment         0.00000000     0.00000000     0.00000000
 Dipole moment /Debye                   0.00000000     0.00000000     0.00000000



 Results for state 1.4
 =====================

 !MCSCF STATE 1.4 Energy             -15784.5343121756    
 Nuclear energy                         0.00000000
 Kinetic energy                     15784.54585825
 One electron energy               -21826.09843259
 Two electron energy                 6041.56412042
 Virial ratio                           1.99999927

 !MCSCF STATE 1.4 Dipole moment         0.00000000     0.00000000     0.00000000
 Dipole moment /Debye                   0.00000000     0.00000000     0.00000000



 Results for state 1.6
 =====================

 !MCSCF STATE 1.6 Energy             -15784.5343121756    
 Nuclear energy                         0.00000000
 Kinetic energy                     15784.54585825
 One electron energy               -21826.09843259
 Two electron energy                 6041.56412042
 Virial ratio                           1.99999927

 !MCSCF STATE 1.6 Dipole moment         0.00000000     0.00000000     0.00000000
 Dipole moment /Debye                   0.00000000     0.00000000     0.00000000



 Results for state 1.7
 =====================

 !MCSCF STATE 1.7 Energy             -15784.5343121756    
 Nuclear energy                         0.00000000
 Kinetic energy                     15784.54585825
 One electron energy               -21826.09843259
 Two electron energy                 6041.56412042
 Virial ratio                           1.99999927

 !MCSCF STATE 1.7 Dipole moment         0.00000000     0.00000000     0.00000000
 Dipole moment /Debye                   0.00000000     0.00000000     0.00000000

 State-averaged charge density matrix saved on record  5202.2 (density set 1)


 NATURAL ORBITALS (state averaged)
 =================================

   Orb     Occ        Energy       Coefficients

                                   1 1s      1 1s      1 1s      1 1s      1 1s      1 1s      1 1s      1 1s      1 1s      1 1s   
                                   1 1s      1 3d0     1 3d2+    1 3d0     1 3d2+    1 3d0     1 3d2+    1 3d0     1 3d2+    1 3d0  
                                   1 3d2+    1 3d0     1 3d2+    1 3d0     1 3d2+    1 3d0     1 3d2+    1 5g0     1 5g4+    1 5g2+ 
                                   1 5g0     1 5g4+    1 5g2+    1 5g0     1 5g4+    1 5g2+    1 5g0     1 5g4+    1 5g2+ 

   1.1  2.00000 -2429.624426     1.000000 -0.000001  0.000000 -0.000000 -0.000000 -0.000037  0.000037 -0.000003 -0.000002  0.000000
                                -0.000000 -0.000000 -0.000000 -0.000000 -0.000000 -0.000000 -0.000000  0.000000  0.000000 -0.000000
                                -0.000000  0.000000  0.000000  0.000000  0.000000  0.000000  0.000000  0.000000  0.000000  0.000000
                                 0.000000  0.000000  0.000000  0.000000  0.000000  0.000000  0.000000  0.000000  0.000000

   2.1  2.00000  -405.694552     0.000000  1.000000 -0.000001 -0.000001 -0.000001  0.000156 -0.000155  0.000009  0.000006 -0.000001
                                 0.000000  0.000000  0.000000  0.000000  0.000000  0.000000  0.000000 -0.000000 -0.000000  0.000000
                                 0.000000 -0.000000 -0.000000 -0.000000 -0.000000 -0.000000 -0.000000  0.000000  0.000000  0.000000
                                 0.000000  0.000000  0.000000  0.000000  0.000000  0.000000  0.000000  0.000000  0.000000

   3.1  2.00000   -95.143484    -0.000000 -0.000001  1.000000  0.000002 -0.000001 -0.001798  0.001798 -0.000125 -0.000091  0.000007
                                -0.000002  0.000000  0.000000 -0.000000 -0.000000  0.000000  0.000000  0.000000  0.000000 -0.000000
                                -0.000000  0.000000  0.000000 -0.000000 -0.000000  0.000000  0.000000  0.000000  0.000000  0.000000
                                 0.000000  0.000000  0.000000  0.000000  0.000000  0.000000  0.000000  0.000000  0.000000

   4.1  2.00000   -72.374333    -0.000000 -0.000000 -0.000000  0.000000 -0.000000  0.000000 -0.000000  0.000000  0.000000 -0.000000
                                 0.000000  0.163392  0.986561  0.000000  0.000000  0.000000  0.000000  0.000000  0.000001 -0.000004
                                -0.000024  0.000004  0.000023 -0.000000 -0.000001  0.000000  0.000000  0.000000  0.000000  0.000000
                                 0.000000  0.000000  0.000000  0.000000  0.000000  0.000000  0.000000  0.000000  0.000000

   5.1  2.00000   -72.374333    -0.000000  0.000000  0.000000 -0.000000 -0.000000  0.000000 -0.000000  0.000000  0.000000 -0.000000
                                 0.000000  0.986561 -0.163392  0.000000 -0.000000  0.000000 -0.000000  0.000001 -0.000000 -0.000024
                                 0.000004  0.000023 -0.000004 -0.000001  0.000000  0.000000 -0.000000  0.000000  0.000000  0.000000
                                 0.000000  0.000000  0.000000  0.000000  0.000000  0.000000  0.000000  0.000000  0.000000

   6.1  2.00000   -20.397753    -0.000000 -0.000000 -0.000003  1.000000  0.000012 -0.005684  0.005663 -0.000287 -0.000182  0.000034
                                -0.000010 -0.000000 -0.000000 -0.000000 -0.000000 -0.000000 -0.000000  0.000000 -0.000000 -0.000000
                                 0.000000  0.000000 -0.000000  0.000000  0.000000  0.000000 -0.000000  0.000000  0.000000  0.000000
                                 0.000000  0.000000  0.000000  0.000000  0.000000  0.000000  0.000000  0.000000  0.000000

   7.1  2.00000   -10.732347     0.000000  0.000000  0.000000  0.000000  0.000000 -0.000000  0.000000 -0.000000 -0.000000  0.000000
                                -0.000000 -0.000000 -0.000001  0.094806  0.995496  0.000003  0.000035 -0.000003 -0.000028  0.000014
                                 0.000147 -0.000016 -0.000163 -0.000000 -0.000000 -0.000000 -0.000001  0.000000  0.000000  0.000000
                                 0.000000  0.000000  0.000000  0.000000  0.000000  0.000000  0.000000  0.000000  0.000000

   8.1  2.00000   -10.732347    -0.000000 -0.000000  0.000000  0.000000 -0.000000  0.000000 -0.000000  0.000000  0.000000 -0.000000
                                 0.000000 -0.000001  0.000000  0.995496 -0.094806  0.000035 -0.000003 -0.000028  0.000003  0.000147
                                -0.000014 -0.000163  0.000016 -0.000000  0.000000 -0.000001  0.000000  0.000000  0.000000  0.000000
                                 0.000000  0.000000  0.000000  0.000000  0.000000  0.000000  0.000000  0.000000  0.000000

   9.1  2.00000    -2.993786     0.000001  0.000001  0.000001 -0.000011  1.000002 -0.023674  0.024534 -0.001853 -0.000148  0.000148
                                -0.000034  0.000000 -0.000000  0.000000 -0.000000  0.000000 -0.000000 -0.000000  0.000000  0.000000
                                -0.000000 -0.000000  0.000000 -0.000000  0.000000 -0.000000  0.000000  0.000000  0.000000  0.000000
                                 0.000000  0.000000  0.000000  0.000000  0.000000  0.000000  0.000000  0.000000  0.000000

  10.1  1.20000    -0.144026     0.000000  0.000000  0.000000  0.000000  0.000000  0.000000  0.000000  0.000000  0.000000  0.000000
                                 0.000000 -0.000000  0.000001 -0.000000 -0.000036 -0.000000  0.999632 -0.000000 -0.010227  0.000000
                                 0.023149 -0.000000 -0.018195  0.000000 -0.001355 -0.000000  0.000547  0.000000  0.000000  0.000000
                                 0.000000  0.000000  0.000000  0.000000  0.000000  0.000000  0.000000  0.000000  0.000000

  11.1  1.20000    -0.144026     0.000000  0.000000  0.000000  0.000000  0.000000  0.000000  0.000000  0.000000  0.000000  0.000000
                                 0.000000  0.000001 -0.000000 -0.000036  0.000000  0.999632 -0.000000 -0.010227  0.000000  0.023149
                                -0.000000 -0.018195  0.000000 -0.001355  0.000000  0.000547 -0.000000  0.000000  0.000000  0.000000
                                 0.000000  0.000000  0.000000  0.000000  0.000000  0.000000  0.000000  0.000000  0.000000

  12.1  1.00000    -0.085403     0.000003  0.000002  0.000008  0.000047 -0.000809  1.998862 -0.999663  0.007406  0.000614 -0.001334
                                -0.001095  0.000000  0.000000  0.000000  0.000000  0.000000  0.000000  0.000000  0.000000  0.000000
                                 0.000000  0.000000  0.000000  0.000000  0.000000  0.000000  0.000000  0.000000  0.000000  0.000000
                                 0.000000  0.000000  0.000000  0.000000  0.000000  0.000000  0.000000  0.000000  0.000000

                                   1 2px     1 2px     1 2px     1 2px     1 2px     1 2px     1 2px     1 2px     1 2px     1 2px  
                                   1 2px     1 2px     1 4f1+    1 4f3+    1 4f1+    1 4f3+ 

   1.2  2.00000  -388.521454     1.000000  0.000000  0.000001  0.000000 -0.000041 -0.000041 -0.000001 -0.000000 -0.000000  0.000000
                                 0.000000  0.000000  0.000000 -0.000000  0.000000 -0.000000

   2.2  2.00000   -87.126366     0.000001  1.000000  0.000002 -0.000001 -0.000024 -0.000024 -0.000000  0.000001  0.000000 -0.000000
                                -0.000000 -0.000000  0.000000  0.000000  0.000000  0.000000

   3.2  2.00000   -16.967385    -0.000001 -0.000001  1.000000 -0.000017 -0.000614 -0.000641  0.000011 -0.000001  0.000000 -0.000000
                                 0.000000 -0.000000  0.000000 -0.000000  0.000000 -0.000000

   4.2  2.00000    -2.482096     0.000000  0.000000 -0.000000  0.000000  0.000000  0.000000  0.000000  0.000000  0.000000 -0.000000
                                 0.000000 -0.000000  0.000000  1.000000  0.000000  0.000018

   5.2  2.00000    -2.482096     0.000000  0.000000  0.000000  0.000000  0.000000  0.000000  0.000000  0.000000  0.000000  0.000000
                                 0.000000  0.000000  1.000000  0.000000  0.000018  0.000000

   6.2  2.00000    -1.886480    -0.000000  0.000002  0.000012  1.000349  0.035065  0.032818  0.000424  0.000002  0.000000 -0.000000
                                 0.000000 -0.000000  0.000000 -0.000000  0.000000 -0.000000

                                   1 2py     1 2py     1 2py     1 2py     1 2py     1 2py     1 2py     1 2py     1 2py     1 2py  
                                   1 2py     1 2py     1 4f1-    1 4f3-    1 4f1-    1 4f3- 

   1.3  2.00000  -388.521454     1.000000  0.000000  0.000001  0.000000 -0.000041 -0.000041 -0.000001 -0.000000 -0.000000  0.000000
                                 0.000000  0.000000  0.000000  0.000000  0.000000  0.000000

   2.3  2.00000   -87.126366     0.000001  1.000000  0.000002 -0.000001 -0.000024 -0.000024 -0.000000  0.000001  0.000000 -0.000000
                                -0.000000 -0.000000 -0.000000 -0.000000 -0.000000 -0.000000

   3.3  2.00000   -16.967385    -0.000001 -0.000001  1.000000 -0.000017 -0.000614 -0.000641  0.000011 -0.000001  0.000000 -0.000000
                                 0.000000 -0.000000  0.000000  0.000000  0.000000  0.000000

   4.3  2.00000    -2.482096    -0.000000 -0.000000 -0.000000  0.000000  0.000000  0.000000 -0.000000  0.000000 -0.000000  0.000000
                                -0.000000  0.000000  1.000000  0.000000  0.000018  0.000000

   5.3  2.00000    -2.482096    -0.000000 -0.000000 -0.000000  0.000000  0.000000  0.000000 -0.000000  0.000000 -0.000000  0.000000
                                -0.000000  0.000000  0.000000  1.000000  0.000000  0.000018

   6.3  2.00000    -1.886480    -0.000000  0.000002  0.000012  1.000349  0.035065  0.032818  0.000424  0.000002  0.000000 -0.000000
                                 0.000000 -0.000000  0.000000  0.000000  0.000000  0.000000

                                   1 3d2-    1 3d2-    1 3d2-    1 3d2-    1 3d2-    1 3d2-    1 3d2-    1 3d2-    1 5g2-    1 5g4- 
                                   1 5g2-    1 5g4-    1 5g2-    1 5g4-    1 5g2-    1 5g4- 

   1.4  2.00000   -72.374333     1.000000  0.000000  0.000000  0.000001 -0.000024  0.000023 -0.000001  0.000000  0.000000  0.000000
                                 0.000000  0.000000  0.000000  0.000000  0.000000  0.000000

   2.4  2.00000   -10.732347    -0.000001  1.000000  0.000035 -0.000028  0.000147 -0.000164 -0.000000 -0.000001  0.000000  0.000000
                                 0.000000  0.000000  0.000000  0.000000  0.000000  0.000000

   3.4  1.20000    -0.144026     0.000001 -0.000036  0.999632 -0.010227  0.023149 -0.018195 -0.001355  0.000547  0.000000  0.000000
                                 0.000000  0.000000  0.000000  0.000000  0.000000  0.000000

                                   1 2pz     1 2pz     1 2pz     1 2pz     1 2pz     1 2pz     1 2pz     1 2pz     1 2pz     1 2pz  
                                   1 2pz     1 2pz     1 4f0     1 4f2+    1 4f0     1 4f2+ 

   1.5  2.00000  -388.521454     1.000000  0.000000  0.000001  0.000000 -0.000041 -0.000041 -0.000001 -0.000000 -0.000000  0.000000
                                 0.000000  0.000000 -0.000000  0.000000 -0.000000  0.000000

   2.5  2.00000   -87.126366     0.000001  1.000000  0.000002 -0.000001 -0.000024 -0.000024 -0.000000  0.000001  0.000000 -0.000000
                                -0.000000 -0.000000  0.000000  0.000000  0.000000  0.000000

   3.5  2.00000   -16.967385    -0.000001 -0.000001  1.000000 -0.000017 -0.000614 -0.000641  0.000011 -0.000001  0.000000 -0.000000
                                 0.000000 -0.000000 -0.000000  0.000000 -0.000000  0.000000

   4.5  2.00000    -2.482096     0.000000  0.000000 -0.000000  0.000000  0.000000  0.000000  0.000000  0.000000  0.000000 -0.000000
                                 0.000000 -0.000000  0.999994  0.003371  0.000018  0.000000

   5.5  2.00000    -2.482096    -0.000000  0.000000  0.000000 -0.000000 -0.000000 -0.000000 -0.000000 -0.000000 -0.000000  0.000000
                                -0.000000  0.000000 -0.003371  0.999994 -0.000000  0.000018

   6.5  2.00000    -1.886480    -0.000000  0.000002  0.000012  1.000349  0.035065  0.032818  0.000424  0.000002  0.000000 -0.000000
                                 0.000000 -0.000000 -0.000000  0.000000 -0.000000  0.000000

                                   1 3d1+    1 3d1+    1 3d1+    1 3d1+    1 3d1+    1 3d1+    1 3d1+    1 3d1+    1 5g1+    1 5g3+ 
                                   1 5g1+    1 5g3+    1 5g1+    1 5g3+    1 5g1+    1 5g3+ 

   1.6  2.00000   -72.374333     1.000000  0.000000  0.000000  0.000001 -0.000024  0.000023 -0.000001  0.000000  0.000000  0.000000
                                 0.000000  0.000000  0.000000  0.000000  0.000000  0.000000

   2.6  2.00000   -10.732347    -0.000001  1.000000  0.000035 -0.000028  0.000147 -0.000164 -0.000000 -0.000001  0.000000  0.000000
                                 0.000000  0.000000  0.000000  0.000000  0.000000  0.000000

   3.6  1.20000    -0.144026     0.000001 -0.000036  0.999632 -0.010227  0.023149 -0.018195 -0.001355  0.000547  0.000000  0.000000
                                 0.000000  0.000000  0.000000  0.000000  0.000000  0.000000

                                   1 3d1-    1 3d1-    1 3d1-    1 3d1-    1 3d1-    1 3d1-    1 3d1-    1 3d1-    1 5g1-    1 5g3- 
                                   1 5g1-    1 5g3-    1 5g1-    1 5g3-    1 5g1-    1 5g3- 

   1.7  2.00000   -72.374333     1.000000  0.000000  0.000000  0.000001 -0.000024  0.000023 -0.000001  0.000000  0.000000  0.000000
                                 0.000000  0.000000  0.000000  0.000000  0.000000  0.000000

   2.7  2.00000   -10.732347    -0.000001  1.000000  0.000035 -0.000028  0.000147 -0.000164 -0.000000 -0.000001  0.000000  0.000000
                                 0.000000  0.000000  0.000000  0.000000  0.000000  0.000000

   3.7  1.20000    -0.144026     0.000001 -0.000036  0.999632 -0.010227  0.023149 -0.018195 -0.001355  0.000547  0.000000  0.000000
                                 0.000000  0.000000  0.000000  0.000000  0.000000  0.000000

                                   1 4f2-    1 4f2- 

   1.8  2.00000    -2.482096     1.000000  0.000018
 
 *** IN SYMMETRY 1 ORBITAL  4 SYMMETRY CONTAMINATION OF 0.142D+00 HAS BEEN REMOVED
 *** IN SYMMETRY 1 ORBITAL  5 SYMMETRY CONTAMINATION OF 0.142D+00 HAS BEEN REMOVED
 *** IN SYMMETRY 1 ORBITAL  7 SYMMETRY CONTAMINATION OF 0.870D-01 HAS BEEN REMOVED
 *** IN SYMMETRY 1 ORBITAL  8 SYMMETRY CONTAMINATION OF 0.870D-01 HAS BEEN REMOVED

 EXTRA SYMMETRY OF MOS IN SYMMETRY 1:   1 1 1 3 2 1 3 2 1 3   2 1 1 2 3 1 3 2 1 6   5 4 3 2 6 5 4 1 3 2   6 4 5 1 3 2 6 4 5
 EXTRA SYMMETRY OF MOS IN SYMMETRY 2:   1 1 1 3 2 1 1 3 2 1   1 1 1 1 1 1
 EXTRA SYMMETRY OF MOS IN SYMMETRY 3:   1 1 1 2 3 1 1 2 3 1   1 1 1 1 1 1
 EXTRA SYMMETRY OF MOS IN SYMMETRY 4:   1 1 1 1 1 3 2 1 3 2   1 3 2 1 3 2
 *** IN SYMMETRY 5 ORBITAL  4 SYMMETRY CONTAMINATION OF 0.336D-02 HAS BEEN REMOVED
 *** IN SYMMETRY 5 ORBITAL  5 SYMMETRY CONTAMINATION OF 0.336D-02 HAS BEEN REMOVED
 EXTRA SYMMETRY OF MOS IN SYMMETRY 5:   1 1 1 2 3 1 1 3 2 1   1 1 1 1 1 1
 EXTRA SYMMETRY OF MOS IN SYMMETRY 6:   1 1 1 1 1 2 3 1 2 3   1 2 3 1 2 3
 EXTRA SYMMETRY OF MOS IN SYMMETRY 7:   1 1 1 1 1 2 3 1 2 3   1 2 3 1 2 3

 Natural orbital dump (state averaged) at molpro section  5202.2    (Orbital set 2)


 CI vector for state symmetry 1
 ==============================

 /2/ / / /          1.0000000  -0.0000000
 //2 / / /          0.0000000   1.0000000

 TOTAL ENERGIES                    -15784.53431218-15784.49641203

 CI vector for state symmetry 2
 ==============================

 /// 2 / /          1.0000000

 TOTAL ENERGIES                    -15784.53431218

 CI vector for state symmetry 3
 ==============================

 /// / 2 /          1.0000000

 TOTAL ENERGIES                    -15784.53431218

 CI vector for state symmetry 4
 ==============================

 /// / / 2          1.0000000

 TOTAL ENERGIES                    -15784.53431218



 **********************************************************************************************************************************
 DATASETS  * FILE   NREC   LENGTH (MB)   RECORD NAMES
              1      19       44.18       500      610      700      900      950      970     1000      129      960     1100   
                                          VAR    BASINP    GEOM    SYMINP    ZMAT    AOBASIS   BASIS     P2S    ABASIS      S 
                                         1400     1410     1200     1210     1080     1600     1650     1700     1380   
                                           T        V       H0       H01     AOSYM     SMH    MOLCAS    OPER     JKOP   

              2       5        5.49       700     1000      520     4202     5202   
                                         GEOM     BASIS   MCVARS     RHF     MCSCF   

 PROGRAMS   *        TOTAL     MULTI       RHF       INT
 CPU TIMES  *        20.96      2.00      0.14     18.44
 REAL TIME  *        24.22 SEC
 DISK USED  *       335.74 MB      
 SF USED    *       103.83 MB      
 GA USED    *         0.00 MB       (max)       0.00 MB       (current)
 **********************************************************************************************************************************


 PROGRAM * POP (Mulliken population analysis)

 
 Density matrix read from record         5202.2  Type=MCSCF/CHARGE (state averaged)
 
 Population analysis by basis function type

 Unique atom        s        p        d        f        g    Total    Charge
   1  RE     11.00000 24.00000 26.00000 14.00000  0.00000 75.00000  - 0.00000


 **********************************************************************************************************************************
 DATASETS  * FILE   NREC   LENGTH (MB)   RECORD NAMES
              1      19       44.18       500      610      700      900      950      970     1000      129      960     1100   
                                          VAR    BASINP    GEOM    SYMINP    ZMAT    AOBASIS   BASIS     P2S    ABASIS      S 
                                         1400     1410     1200     1210     1080     1600     1650     1700     1380   
                                           T        V       H0       H01     AOSYM     SMH    MOLCAS    OPER     JKOP   

              2       5        5.49       700     1000      520     4202     5202   
                                         GEOM     BASIS   MCVARS     RHF     MCSCF   

 PROGRAMS   *        TOTAL       POP     MULTI       RHF       INT
 CPU TIMES  *        20.96      0.00      2.00      0.14     18.44
 REAL TIME  *        24.23 SEC
 DISK USED  *       335.74 MB      
 SF USED    *       103.83 MB      
 GA USED    *         0.00 MB       (max)       0.00 MB       (current)
 **********************************************************************************************************************************
 SETTING BASIS          =    USERDEF


 Recomputing integrals since basis changed


 Using spherical harmonics



 PROGRAM * SEWARD (Integral evaluation for generally contracted gaussian basis sets)     Author: Roland Lindh, 1990

 Geometry written to block  1 of record 700

 Orientation using atomic masses  
 Molecule type: Atom
 Symmetry elements: X,Y,Z
 Rotational constants:       0.0000000      0.0000000      0.0000000 GHz  (calculated with average atomic masses)

 Point group  D2h 



 ATOMIC COORDINATES

 NR  ATOM    CHARGE       X              Y              Z

   1  RE     75.00    0.000000000    0.000000000    0.000000000

 NUCLEAR CHARGE:                   75
 NUMBER OF PRIMITIVE AOS:         496
 NUMBER OF SYMMETRY AOS:          401
 NUMBER OF CONTRACTIONS:          401   (  97Ag  +  65B3u +  65B2u +  31B1g +  65B1u +  31B2g +  31B3g +  16Au  )
 NUMBER OF CORE ORBITALS:          34   (   9Ag  +   6B3u +   6B2u +   2B1g +   6B1u +   2B2g +   2B3g +   1Au  )
 NUMBER OF VALENCE ORBITALS:        6   (   3Ag  +   0B3u +   0B2u +   1B1g +   0B1u +   1B2g +   1B3g +   0Au  )


 NUCLEAR REPULSION ENERGY    0.00000000

 EXTRA SYMMETRY OF AOS IN SYMMETRY 1:   1 1 1 1 1 1 1 1 1 1   1 1 1 1 1 1 1 1 1 1   1 1 1 1 1 1 1 1 1 1   1 1 1 1 1 1 1 1 1 2
                                        3 2 3 2 3 2 3 2 3 2   3 2 3 2 3 2 3 2 3 2   3 2 3 2 3 2 3 2 3 2   3 2 3 2 3 2 3 2 3 2
                                        3 2 3 2 3 4 5 6 4 5   6 4 5 6 4 5 6
 EXTRA SYMMETRY OF AOS IN SYMMETRY 2:   1 1 1 1 1 1 1 1 1 1   1 1 1 1 1 1 1 1 1 1   1 1 1 1 1 1 1 1 1 1   1 1 1 2 3 2 3 2 3 2
                                        3 2 3 2 3 2 3 2 3 2   3 2 3 2 3 2 3 2 3 2   3 2 3 2 3
 EXTRA SYMMETRY OF AOS IN SYMMETRY 3:   1 1 1 1 1 1 1 1 1 1   1 1 1 1 1 1 1 1 1 1   1 1 1 1 1 1 1 1 1 1   1 1 1 2 3 2 3 2 3 2
                                        3 2 3 2 3 2 3 2 3 2   3 2 3 2 3 2 3 2 3 2   3 2 3 2 3
 EXTRA SYMMETRY OF AOS IN SYMMETRY 4:   1 1 1 1 1 1 1 1 1 1   1 1 1 1 1 1 1 1 1 1   1 1 1 2 3 2 3 2 3 2   3
 EXTRA SYMMETRY OF AOS IN SYMMETRY 5:   1 1 1 1 1 1 1 1 1 1   1 1 1 1 1 1 1 1 1 1   1 1 1 1 1 1 1 1 1 1   1 1 1 2 3 2 3 2 3 2
                                        3 2 3 2 3 2 3 2 3 2   3 2 3 2 3 2 3 2 3 2   3 2 3 2 3
 EXTRA SYMMETRY OF AOS IN SYMMETRY 6:   1 1 1 1 1 1 1 1 1 1   1 1 1 1 1 1 1 1 1 1   1 1 1 2 3 2 3 2 3 2   3
 EXTRA SYMMETRY OF AOS IN SYMMETRY 7:   1 1 1 1 1 1 1 1 1 1   1 1 1 1 1 1 1 1 1 1   1 1 1 2 3 2 3 2 3 2   3

 Eigenvalues of metric

         1 0.992E-07 0.420E-06 0.171E-05 0.138E-04 0.138E-04 0.292E-04 0.400E-04 0.889E-04
         2 0.155E-07 0.138E-05 0.351E-04 0.955E-04 0.955E-04 0.148E-03 0.483E-03 0.118E-02
         3 0.155E-07 0.138E-05 0.351E-04 0.955E-04 0.955E-04 0.148E-03 0.483E-03 0.118E-02
         4 0.138E-04 0.141E-03 0.606E-03 0.227E-02 0.650E-02 0.147E-01 0.258E-01 0.415E-01
         5 0.155E-07 0.138E-05 0.351E-04 0.955E-04 0.955E-04 0.148E-03 0.483E-03 0.118E-02
         6 0.138E-04 0.141E-03 0.606E-03 0.227E-02 0.650E-02 0.147E-01 0.258E-01 0.415E-01
         7 0.138E-04 0.141E-03 0.606E-03 0.227E-02 0.650E-02 0.147E-01 0.258E-01 0.415E-01
         8 0.955E-04 0.137E-02 0.716E-02 0.173E-01 0.392E-01 0.906E-01 0.147E+00 0.247E+00


 Contracted 2-electron integrals neglected if value below      1.0D-15
 AO integral compression algorithm  1   Integral accuracy      1.0D-15

     3077.308 MB (compressed) written to integral file ( 46.0%)

     Node minimum: 122.946 MB, node maximum: 376.177 MB


 NUMBER OF SORTED TWO-ELECTRON INTEGRALS:   38199780.     BUFFER LENGTH:  32768
 NUMBER OF SEGMENTS:   2  SEGMENT LENGTH:   31997247      RECORD LENGTH: 524288

 Memory used in sort:      32.55 MW

 SORT1 READ   835937875. AND WROTE    23653918. INTEGRALS IN     69 RECORDS. CPU TIME:    17.33 SEC, REAL TIME:    19.83 SEC
 SORT2 READ   258788079. AND WROTE   418951655. INTEGRALS IN  11143 RECORDS. CPU TIME:     0.73 SEC, REAL TIME:     1.33 SEC

 Node minimum:    38025768.  Node maximum:    38275298. integrals

 OPERATOR DM      FOR CENTER  0  COORDINATES:    0.000000    0.000000    0.000000


 **********************************************************************************************************************************
 DATASETS  * FILE   NREC   LENGTH (MB)   RECORD NAMES
              1      18       20.97       500      610      700      900      950      970     1001      129      960     1100   
                                          VAR    BASINP    GEOM    SYMINP    ZMAT    AOBASIS   BASIS     P2S    ABASIS      S 
                                         1400     1410     1200     1210     1080     1600     1650     1700   
                                           T        V       H0       H01     AOSYM     SMH    MOLCAS    OPER   

              2       6        5.64       700     1000      520     4202     5202     1001   
                                         GEOM     BASIS   MCVARS     RHF     MCSCF    BASIS   

 PROGRAMS   *        TOTAL       INT       POP     MULTI       RHF       INT
 CPU TIMES  *       202.60    181.63      0.00      2.00      0.14     18.44
 REAL TIME  *       210.10 SEC
 DISK USED  *         6.74 GB      
 SF USED    *       103.83 MB      
 GA USED    *         0.00 MB       (max)       0.00 MB       (current)
 **********************************************************************************************************************************


 PROGRAM * MULTI (Direct Multiconfiguration SCF)       Authors: P.J. Knowles, H.-J. Werner (1984)     S.T. Elbert (1988)


 Number of closed-shell orbitals:  34 (   9   6   6   2   6   2   2   1 )
 Number of active  orbitals:        6 (   3   0   0   1   0   1   1   0 )
 Number of external orbitals:     361 (  85  59  59  28  59  28  28  15 )

 State symmetry 1

 Orbital occupancy restrictions for symmetry 1
  1      1       200000                          

 Number of electrons:     7    Spin symmetry=Sextet    Space symmetry=1
 Number of states:        2
 Number of CSFs:          2

 State symmetry 2

 Orbital occupancy restrictions for symmetry 4
  1      1       200000                          

 Number of electrons:     7    Spin symmetry=Sextet    Space symmetry=4
 Number of states:        1
 Number of CSFs:          1

 State symmetry 3

 Orbital occupancy restrictions for symmetry 6
  1      1       200000                          

 Number of electrons:     7    Spin symmetry=Sextet    Space symmetry=6
 Number of states:        1
 Number of CSFs:          1

 State symmetry 4

 Orbital occupancy restrictions for symmetry 7
  1      1       200000                          

 Number of electrons:     7    Spin symmetry=Sextet    Space symmetry=7
 Number of states:        1
 Number of CSFs:          1
 
 Maximum number of shells:             2
 Maximum number of spin couplings:     6

 Storage for configuration lists      93, coupling coefficients    299, address lists    409

 Molecular orbitals read from record     5202.2  Type=MCSCF/NATURAL (state averaged)
 
 Present basis size:      97  65  65  31  65  31  31  16
 Previous basis size:     39  16  16  16  16  16  16   2
 Previous occupation:     12   6   6   3   6   3   3   1
 Previous closed-shells:   9   6   6   2   6   2   2   1
 Present occupation:      12   6   6   3   6   3   3   1
 Present closed-shells:    9   6   6   2   6   2   2   1
 Wavefunction symmetry:    1   Sextet  

 Orbital overlap <old|new>:  < 1.1| 1.1> = 1.000000   < 2.1| 2.1> = 1.000000   < 3.1| 3.1> = 1.000000   < 4.1| 4.1> = 1.000000
                             < 5.1| 5.1> = 1.000000   < 6.1| 6.1> = 1.000000   < 7.1| 7.1> = 1.000000   < 8.1| 8.1> = 1.000000
                             < 9.1| 9.1> = 1.000000   < 1.2| 1.2> = 1.000000   < 2.2| 2.2> = 1.000000   < 3.2| 3.2> = 1.000000
                             < 4.2| 4.2> = 1.000000   < 5.2| 5.2> = 1.000000   < 6.2| 6.2> = 1.000000   < 1.3| 1.3> = 1.000000
                             < 2.3| 2.3> = 1.000000   < 3.3| 3.3> = 1.000000   < 4.3| 4.3> = 1.000000   < 5.3| 5.3> = 1.000000
                             < 6.3| 6.3> = 1.000000   < 1.4| 1.4> = 1.000000   < 2.4| 2.4> = 1.000000   < 1.5| 1.5> = 1.000000
                             < 2.5| 2.5> = 1.000000   < 3.5| 3.5> = 1.000000   < 4.5| 4.5> = 1.000000   < 5.5| 5.5> = 1.000000
                             < 6.5| 6.5> = 1.000000   < 1.6| 1.6> = 1.000000   < 2.6| 2.6> = 1.000000   < 1.7| 1.7> = 1.000000
                             < 2.7| 2.7> = 1.000000   < 1.8| 1.8> = 1.000000   <10.1|10.1> = 1.000000   <11.1|11.1> = 1.000000
                             <12.1|12.1> = 1.000000   < 3.4| 3.4> = 1.000000   < 3.6| 3.6> = 1.000000   < 3.7| 3.7> = 1.000000

 EXTRA SYMMETRY OF MOS IN SYMMETRY 1:   1 1 1 3 2 1 3 2 1 3   2 1 2 3 1 6 5 4 3 2   1 2 3 4 6 5 1 2 3 1   5 6 4 3 2 1 3 2 1 3
                                        2 6 5 4 1 2 3 1 2 3   1 1 2 3 1 3 2 1 3 2   1 2 3 1 2 3 1 3 2 1   2 3 1 2 3 1 3 2 1 1
                                        3 2 1 2 3 1 1 1 1 1   1 1 1 1 1 1 1
 EXTRA SYMMETRY OF MOS IN SYMMETRY 2:   1 1 1 3 2 1 2 3 1 3   2 1 3 2 1 2 3 1 3 2   1 3 2 1 3 2 1 2 3 1   3 2 1 3 2 1 3 2 1 1
                                        1 2 3 1 2 3 1 1 2 3   1 2 3 1 1 1 1 1 1 1   1 1 1 1 1
 EXTRA SYMMETRY OF MOS IN SYMMETRY 3:   1 1 1 2 3 1 2 3 1 2   3 1 3 2 1 3 2 1 2 3   1 3 2 1 2 3 1 3 2 1   3 2 1 2 3 1 2 3 1 1
                                        1 3 2 1 2 3 1 1 3 2   1 2 3 1 1 1 1 1 1 1   1 1 1 1 1
 EXTRA SYMMETRY OF MOS IN SYMMETRY 4:   1 1 1 1 2 3 1 1 3 2   1 2 3 1 1 1 3 2 1 1   1 1 1 1 1 1 1 1 1 1   1
 EXTRA SYMMETRY OF MOS IN SYMMETRY 5:   1 1 1 2 3 1 3 2 1 3   2 1 3 2 1 2 3 1 3 2   1 3 2 1 2 3 1 2 3 1   3 2 1 3 2 1 3 2 1 1
                                        1 2 3 1 2 3 1 1 3 2   1 2 3 1 1 1 1 1 1 1   1 1 1 1 1
 EXTRA SYMMETRY OF MOS IN SYMMETRY 6:   1 1 1 1 3 2 1 1 2 3   1 2 3 1 1 1 3 2 1 1   1 1 1 1 1 1 1 1 1 1   1
 EXTRA SYMMETRY OF MOS IN SYMMETRY 7:   1 1 1 1 3 2 1 1 3 2   1 2 3 1 1 1 2 3 1 1   1 1 1 1 1 1 1 1 1 1   1

 Wavefunction dump at record             6202.2

 Convergence thresholds  0.10E-01 (gradient)  0.15E-05 (energy)  0.10E-02 (step length)

 Weight factors for state symmetry  1:    0.20000   0.20000
 Weight factors for state symmetry  2:    0.20000
 Weight factors for state symmetry  3:    0.20000
 Weight factors for state symmetry  4:    0.20000

 Eigenvalues of redundancy matrix
   1-  3   -0.000000    0.000000    1.000000

 Non-redundant active-active orbital rotations:
     1  2  3  4  5
  2   
  3  +   
  4         
  5            
  6               

 Number of orbital rotations:     2383   (    33 Core/Active   2010 Core/Virtual   1 Active/Active    339 Active/Virtual)
 Total number of variables:       2390


 ITER. MIC  NCI  NEG     ENERGY(VAR)     ENERGY(PROJ)   ENERGY CHANGE     GRAD(0)  GRAD(ORB)   GRAD(CI)     STEP       TIME

   1   40   28    0  -15784.52673215  -15784.52847576   -0.00174362   *********** 0.00264329 0.00000000  0.37D-01      5.20
   2   50   20    0  -15784.52846645  -15784.52846681   -0.00000036    0.00277029 0.00009132 0.00000000  0.44D-03      8.69
   3   40   20    0  -15784.52846681  -15784.52846681   -0.00000000    0.00009135 0.00001308 0.00000000  0.22D-04     12.05

 ** WVFN ****  CONVERGENCE REACHED, FINAL GRADIENT:  0.13D-04



 Results for state 1.1
 =====================

 !MCSCF STATE 1.1 Energy             -15784.5335427574    
 Nuclear energy                         0.00000000
 Kinetic energy                     15785.35960379
 One electron energy               -21828.94534521
 Two electron energy                 6044.41180245
 Virial ratio                           1.99994767

 !MCSCF STATE 1.1 Dipole moment         0.00000000     0.00000000     0.00000000
 Dipole moment /Debye                   0.00000000     0.00000000     0.00000000

 Results for state 2.1
 =====================

 !MCSCF STATE 2.1 Energy             -15784.5087792569    
 Nuclear energy                         0.00000000
 Kinetic energy                     15781.18621409
 One electron energy               -21805.80908573
 Two electron energy                 6021.30030648
 Virial ratio                           2.00021054

 !MCSCF STATE 2.1 Dipole moment         0.00000000     0.00000000     0.00000000
 Dipole moment /Debye                   0.00000000     0.00000000     0.00000000



 Results for state 1.4
 =====================

 !MCSCF STATE 1.4 Energy             -15784.5331311832    
 Nuclear energy                         0.00000000
 Kinetic energy                     15785.37053674
 One electron energy               -21828.98674898
 Two electron energy                 6044.45361780
 Virial ratio                           1.99994695

 !MCSCF STATE 1.4 Dipole moment         0.00000000     0.00000000     0.00000000
 Dipole moment /Debye                   0.00000000     0.00000000     0.00000000



 Results for state 1.6
 =====================

 !MCSCF STATE 1.6 Energy             -15784.5334404325    
 Nuclear energy                         0.00000000
 Kinetic energy                     15785.36236055
 One electron energy               -21828.95580900
 Two electron energy                 6044.42236857
 Virial ratio                           1.99994749

 !MCSCF STATE 1.6 Dipole moment         0.00000000     0.00000000     0.00000000
 Dipole moment /Debye                   0.00000000     0.00000000     0.00000000



 Results for state 1.7
 =====================

 !MCSCF STATE 1.7 Energy             -15784.5334404325    
 Nuclear energy                         0.00000000
 Kinetic energy                     15785.36236055
 One electron energy               -21828.95580900
 Two electron energy                 6044.42236857
 Virial ratio                           1.99994749

 !MCSCF STATE 1.7 Dipole moment         0.00000000     0.00000000     0.00000000
 Dipole moment /Debye                   0.00000000     0.00000000     0.00000000

 State-averaged charge density matrix saved on record  6202.2 (density set 1)


 *** WARNING (BLKOP):   18 NON ZERO ELEMENTS IN SYM  2

 *** WARNING (BLKOP):   18 NON ZERO ELEMENTS IN SYM  3

 *** WARNING (BLKOP):    8 NON ZERO ELEMENTS IN SYM  5

 NATURAL ORBITALS (state averaged)
 =================================

   Orb     Occ        Energy       Coefficients

                                   1 1s      1 1s      1 1s      1 1s      1 1s      1 1s      1 1s      1 1s      1 1s      1 1s   
                                   1 1s      1 1s      1 1s      1 1s      1 1s      1 1s      1 1s      1 1s      1 1s      1 1s   
                                   1 1s      1 1s      1 1s      1 1s      1 1s      1 1s      1 1s      1 1s      1 1s      1 1s   
                                   1 1s      1 1s      1 1s      1 1s      1 1s      1 1s      1 1s      1 1s      1 1s      1 3d0  
                                   1 3d2+    1 3d0     1 3d2+    1 3d0     1 3d2+    1 3d0     1 3d2+    1 3d0     1 3d2+    1 3d0  
                                   1 3d2+    1 3d0     1 3d2+    1 3d0     1 3d2+    1 3d0     1 3d2+    1 3d0     1 3d2+    1 3d0  
                                   1 3d2+    1 3d0     1 3d2+    1 3d0     1 3d2+    1 3d0     1 3d2+    1 3d0     1 3d2+    1 3d0  
                                   1 3d2+    1 3d0     1 3d2+    1 3d0     1 3d2+    1 3d0     1 3d2+    1 3d0     1 3d2+    1 3d0  
                                   1 3d2+    1 3d0     1 3d2+    1 3d0     1 3d2+    1 5g0     1 5g4+    1 5g2+    1 5g0     1 5g4+ 
                                   1 5g2+    1 5g0     1 5g4+    1 5g2+    1 5g0     1 5g4+    1 5g2+ 

   1.1  2.00000 -2429.649054     0.000000  0.000000  0.000000  0.000001  0.000005  0.000018  0.000057  0.000172  0.000490  0.001344
                                 0.003584  0.009302  0.023378  0.055831  0.122330  0.229266  0.324056  0.274062  0.095622  0.007145
                                 0.000549 -0.000273  0.000124 -0.000314 -0.000045  0.000014  0.000007  0.000001  0.000004  0.000000
                                -0.000000  0.000000 -0.000011 -0.000003  0.000276 -0.000002 -0.000000  0.000000 -0.000000 -0.000000
                                 0.000000 -0.000000  0.000000 -0.000000  0.000000 -0.000000  0.000000 -0.000000  0.000000 -0.000000
                                 0.000000 -0.000000  0.000000 -0.000000  0.000000 -0.000000  0.000000 -0.000000  0.000000  0.000000
                                -0.000000  0.000000 -0.000000  0.000000 -0.000000  0.000000 -0.000000  0.000000 -0.000000  0.000000
                                -0.000000  0.000000 -0.000000 -0.000000  0.000000  0.000000 -0.000000 -0.000000  0.000000  0.000000
                                -0.000000 -0.000000  0.000000  0.000000 -0.000000  0.000000  0.000000  0.000000  0.000000  0.000000
                                 0.000000  0.000000  0.000000  0.000000  0.000000  0.000000  0.000000

   2.1  2.00000  -405.719680    -0.000000 -0.000000 -0.000000 -0.000000 -0.000002 -0.000006 -0.000019 -0.000057 -0.000163 -0.000447
                                -0.001197 -0.003125 -0.007962 -0.019564 -0.045447 -0.095671 -0.168337 -0.199987 -0.033099  0.377789
                                 0.545214  0.231194  0.023361 -0.006877 -0.003747  0.002374  0.006969 -0.001878 -0.003092 -0.000062
                                 0.000039 -0.000064 -0.007440  0.002889  0.009018  0.001231  0.000063 -0.000017  0.000002 -0.000000
                                 0.000000 -0.000000  0.000000 -0.000000  0.000000 -0.000000  0.000000 -0.000000  0.000000 -0.000000
                                 0.000000 -0.000000  0.000000 -0.000000  0.000000 -0.000000  0.000000 -0.000000  0.000000  0.000000
                                -0.000000  0.000000 -0.000000  0.000000 -0.000000  0.000000 -0.000000  0.000000 -0.000000  0.000000
                                -0.000000  0.000000 -0.000000 -0.000000  0.000000  0.000000 -0.000000 -0.000000  0.000000  0.000000
                                -0.000000 -0.000000  0.000000  0.000000 -0.000000  0.000000  0.000000  0.000000  0.000000  0.000000
                                 0.000000  0.000000  0.000000  0.000000  0.000000  0.000000  0.000000

   3.1  2.00000   -95.168423     0.000000  0.000000  0.000000  0.000000  0.000001  0.000003  0.000009  0.000027  0.000077  0.000211
                                 0.000564  0.001475  0.003766  0.009295  0.021789  0.046715  0.085246  0.108109  0.018993 -0.296961
                                -0.602222 -0.224048  0.685903  0.689695  0.134418 -0.003895 -0.017716  0.003682  0.005431  0.000098
                                -0.000064  0.000100  0.020515 -0.005287 -0.066367 -0.002128 -0.000099  0.000027 -0.000004 -0.000000
                                -0.000000 -0.000000 -0.000000 -0.000000 -0.000000 -0.000000 -0.000000 -0.000000 -0.000000 -0.000000
                                -0.000000 -0.000000 -0.000000 -0.000000 -0.000000 -0.000000 -0.000000 -0.000000 -0.000000 -0.000000
                                -0.000000 -0.000000 -0.000000 -0.000000 -0.000000  0.000000  0.000000 -0.000000 -0.000000 -0.000000
                                -0.000000  0.000000  0.000000 -0.000000 -0.000000  0.000000  0.000000 -0.000000 -0.000000  0.000000
                                 0.000000 -0.000000 -0.000000  0.000000  0.000000  0.000000  0.000000  0.000000  0.000000  0.000000
                                 0.000000  0.000000  0.000000  0.000000  0.000000  0.000000  0.000000

   4.1  2.00000   -72.399213     0.000000  0.000000  0.000000  0.000000  0.000000  0.000000  0.000000  0.000000  0.000000  0.000000
                                 0.000000  0.000000  0.000000  0.000000  0.000000  0.000000  0.000000  0.000000  0.000000 -0.000000
                                -0.000000 -0.000000  0.000000  0.000000 -0.000000 -0.000000 -0.000000  0.000000  0.000000  0.000000
                                -0.000000  0.000000 -0.000000  0.000000 -0.000000  0.000000 -0.000000  0.000000 -0.000000 -0.000000
                                 0.000004 -0.000000  0.000055 -0.000000  0.000509 -0.000000  0.003122 -0.000000  0.014004 -0.000000
[...]
                       0.136223  0.026889  0.001327 -0.001079  0.000296  0.000288 -0.000025  0.000006 -0.000003  0.001683
                      -0.000387  0.000002 -0.000001  0.000000  0.000000  0.000000 -0.000000 -0.000000 -0.000000 -0.000000
                       0.000000

   2.6    2.0000000   -0.000002 -0.000027 -0.000254 -0.001559 -0.007075 -0.023775 -0.062855 -0.122694 -0.168277 -0.098754
                       0.154072  0.396979  0.403192  0.179478  0.026262  0.000769  0.000211 -0.000055  0.000027 -0.000803
                       0.000112 -0.000015  0.000006 -0.000000 -0.000000 -0.000000  0.000000 -0.000000  0.000000 -0.000000
                      -0.000000

   3.6    0.9919860    0.000000  0.000007  0.000066  0.000403  0.001832  0.006161  0.016362  0.031936  0.043658  0.022421
                      -0.053140 -0.124433 -0.119764  0.045760  0.269417  0.385774  0.344279  0.168403  0.024626 -0.015309
                       0.015458 -0.001388  0.000494 -0.000065 -0.000000 -0.002233  0.000000 -0.004911 -0.000002 -0.002455
                      -0.000017

   4.6    0.0049851    0.000001  0.000009  0.000086  0.000531  0.002404  0.008117  0.021426  0.042224  0.057223  0.032608
                      -0.073184 -0.172926 -0.156766  0.259480  0.641501  0.036194 -0.506267 -0.407631 -0.057739 -0.189159
                       0.195957  0.001127 -0.000273 -0.000148 -0.000001  0.015697  0.000060  0.012102  0.000056 -0.000324
                       0.000060

   5.6    0.0008460   -0.000000 -0.000001 -0.000014 -0.000081 -0.000380 -0.001245 -0.003379 -0.006490 -0.009220 -0.004420
                       0.011711  0.031861  0.009708 -0.222707 -0.076866  0.169679  0.018714 -0.061004 -0.012672  0.162708
                      -0.037388  0.000573 -0.000194 -0.000617  0.000009  0.469077 -0.000744  0.586694 -0.000592  0.130413
                       0.000056

   6.6    0.0005588    0.000000  0.000000  0.000000  0.000001  0.000005  0.000018  0.000048  0.000092  0.000131  0.000070
                      -0.000166 -0.000465 -0.000129  0.003696  0.001011 -0.002704 -0.000050  0.001039  0.000140 -0.002728
                       0.000595  0.000004 -0.000002 -0.000012 -0.000494 -0.000120 -0.572499 -0.000704 -0.514579 -0.000427
                      -0.095961

   7.6    0.0003734    0.000001  0.000010  0.000099  0.000590  0.002750  0.009045  0.024347  0.047381  0.066601  0.039350
                      -0.086785 -0.241586 -0.033013  2.166248  0.575651 -1.529927  0.000584  0.639613  0.105002 -1.678124
                       0.285183 -0.001236  0.000117 -0.000324  0.000008  0.105956  0.001079  0.016412  0.000626  0.019445
                       0.000256

   8.6    0.0001455   -0.000000 -0.000001 -0.000013 -0.000079 -0.000356 -0.001205 -0.003122 -0.006413 -0.008566 -0.006064
                       0.014572  0.028982  0.025651 -0.356005  0.035750 -0.119225 -0.081696  0.025074  0.023300  0.204433
                       0.229042 -0.004407  0.001753 -0.005099  0.000009  0.929533  0.000478 -0.580588  0.000096 -0.467294
                      -0.000357

   9.6    0.0000849   -0.000000 -0.000000 -0.000000 -0.000000 -0.000001 -0.000005 -0.000011 -0.000024 -0.000031 -0.000016
                       0.000068  0.000071  0.000282 -0.000124  0.000414 -0.000729 -0.000009  0.000107 -0.000128 -0.000571
                       0.000604  0.000024 -0.000011  0.000003  0.003796 -0.000714  0.946578  0.000975 -0.757891 -0.000362
                      -0.362468

  10.6    0.0000513    0.000001  0.000016  0.000136  0.000895  0.003845  0.013692  0.033952  0.073972  0.086895  0.067517
                      -0.220520 -0.240096 -0.397807  3.267100 -1.152525  3.044923  0.837007 -0.670811 -0.199326 -1.268844
                      -3.453193  0.022829 -0.008483  0.003426  0.000040  0.087961  0.000174 -0.076004 -0.000011 -0.005875
                      -0.000189

  11.6    0.0000239   -0.000000 -0.000003 -0.000017 -0.000131 -0.000506 -0.001986 -0.004395 -0.011043 -0.010527 -0.012994
                       0.041944  0.011410  0.157395 -0.055376  0.390177 -0.445568  0.221557 -0.037631 -0.072867 -0.324186
                       0.097474  0.015606 -0.006210  0.027604  0.000006  0.685141  0.000779 -1.198747 -0.001170  1.103691
                       0.000540

  12.6    0.0000119   -0.000000 -0.000000 -0.000000 -0.000002 -0.000007 -0.000028 -0.000065 -0.000153 -0.000146 -0.000102
                       0.000612  0.000003  0.002600  0.006827  0.004418 -0.002485  0.002490 -0.000180 -0.001069 -0.011077
                      -0.002367  0.000213 -0.000089  0.000059 -0.051682  0.000170 -0.582718 -0.000359  1.135234  0.000595
                      -1.151803

  13.6    0.0000095   -0.000001 -0.000024 -0.000167 -0.001247 -0.004878 -0.019098 -0.043231 -0.105804 -0.096225 -0.096918
                       0.455849 -0.028539  2.081065  6.987678  2.882575  1.541204  1.480853 -0.474964 -0.360569 -9.804722
                      -4.760229  0.072007 -0.027988 -0.005987  0.000076 -0.065812  0.000728  0.124438 -0.001584 -0.128940
                       0.001816

  14.6    0.0000024   -0.000004 -0.000016 -0.000339 -0.001317 -0.008853 -0.021563 -0.081299 -0.107417 -0.221581  0.167658
                       0.301920  0.597846  0.674900 22.008474 -5.835141  6.326061 -1.784962  0.099544  0.531370-19.318329
                      -3.174108 -0.125278  0.049209  0.034283 -0.000053  0.010638 -0.000087 -0.034996  0.000221  0.038722
                      -0.000308

  15.6    0.0000008   -0.000009  0.000011 -0.000614 -0.000917 -0.014768 -0.018195 -0.140155 -0.058025 -0.440197  0.780611
                      -0.547298  2.839022-10.298693-15.152496 -6.937492-23.856789  2.039083  0.248985 -0.676915 24.031234
                      27.770427  0.153509 -0.061082  0.004075  0.000146 -0.006978  0.000030  0.013255 -0.000140 -0.015860
                       0.000207

  16.6    0.0000003   -0.000000 -0.000008 -0.000036 -0.000395 -0.001242 -0.006232 -0.011921 -0.031685 -0.003718  0.041294
                       0.079012  0.060005 -1.759807-10.585026  3.647177  4.093409 -0.089440 -0.113625  0.097785 10.372443
                      -5.773760 -0.021564  0.008989  1.027313 -0.002861 -0.360864  0.001066  0.226375 -0.000751 -0.099643
                       0.000396

  17.6    0.0000003   -0.000003 -0.000049 -0.000399 -0.002717 -0.012001 -0.043848 -0.114813 -0.209808 -0.157341  0.473639
                       0.392278  0.957694-13.161883-71.247378 24.295693 29.875569 -1.016256 -0.767753  0.795031 70.971739
                     -40.895854 -0.189434  0.076046 -0.146695 -0.000844  0.054030  0.000278 -0.037398 -0.000119  0.020182
                      -0.000027

  18.6    0.0000002   -0.000000 -0.000000 -0.000000 -0.000003 -0.000010 -0.000050 -0.000094 -0.000273 -0.000024  0.000165
                       0.000961  0.000468 -0.014986 -0.090564  0.033628  0.045900 -0.002467 -0.000466  0.000823  0.088160
                      -0.060992 -0.000227  0.000081  0.002718  1.037418 -0.000954 -0.383413  0.000569  0.257070 -0.000218
                      -0.124103

                         1 3d1-    1 3d1-    1 3d1-    1 3d1-    1 3d1-    1 3d1-    1 3d1-    1 3d1-    1 3d1-    1 3d1- 
                         1 3d1-    1 3d1-    1 3d1-    1 3d1-    1 3d1-    1 3d1-    1 3d1-    1 3d1-    1 3d1-    1 3d1- 
                         1 3d1-    1 3d1-    1 3d1-    1 5g1-    1 5g3-    1 5g1-    1 5g3-    1 5g1-    1 5g3-    1 5g1- 
                         1 5g3- 

   1.7    2.0000000   -0.000002 -0.000027 -0.000254 -0.001559 -0.007075 -0.023775 -0.062855 -0.122694 -0.168277 -0.098754
                       0.154072  0.396979  0.403192  0.179478  0.026262  0.000769  0.000211 -0.000055  0.000027 -0.000803
                       0.000112 -0.000015  0.000006 -0.000000  0.000000 -0.000000 -0.000000 -0.000000  0.000000 -0.000000
                       0.000000

   2.7    2.0000000    0.000004  0.000055  0.000509  0.003122  0.014004  0.046659  0.120432  0.233890  0.330863  0.298326
                       0.136223  0.026889  0.001327 -0.001079  0.000296  0.000288 -0.000025  0.000006 -0.000003  0.001683
                      -0.000387  0.000002 -0.000001  0.000000  0.000000 -0.000000 -0.000000  0.000000 -0.000000 -0.000000
                       0.000000

   3.7    0.9919860    0.000000  0.000007  0.000066  0.000403  0.001832  0.006161  0.016362  0.031936  0.043658  0.022421
                      -0.053140 -0.124433 -0.119764  0.045760  0.269417  0.385774  0.344279  0.168403  0.024626 -0.015309
                       0.015458 -0.001388  0.000494 -0.000065  0.000000 -0.002233 -0.000000 -0.004911  0.000002 -0.002455
                       0.000017

   4.7    0.0049851    0.000001  0.000009  0.000086  0.000531  0.002404  0.008117  0.021426  0.042224  0.057223  0.032608
                      -0.073184 -0.172926 -0.156766  0.259480  0.641501  0.036195 -0.506267 -0.407631 -0.057739 -0.189159
                       0.195957  0.001127 -0.000273 -0.000148  0.000001  0.015697 -0.000060  0.012102 -0.000056 -0.000324
                      -0.000060

   5.7    0.0008460   -0.000000 -0.000001 -0.000014 -0.000081 -0.000380 -0.001245 -0.003379 -0.006490 -0.009220 -0.004420
                       0.011711  0.031861  0.009708 -0.222707 -0.076866  0.169679  0.018714 -0.061005 -0.012672  0.162708
                      -0.037388  0.000573 -0.000194 -0.000617 -0.000009  0.469077  0.000744  0.586694  0.000592  0.130413
                      -0.000056

   6.7    0.0005588    0.000000  0.000000  0.000000  0.000001  0.000005  0.000018  0.000048  0.000092  0.000131  0.000070
                      -0.000166 -0.000465 -0.000129  0.003695  0.001010 -0.002703 -0.000050  0.001038  0.000140 -0.002727
                       0.000595  0.000004 -0.000002 -0.000012  0.000494 -0.000120  0.572499 -0.000704  0.514579 -0.000427
                       0.095961

   7.7    0.0003734    0.000001  0.000010  0.000099  0.000590  0.002750  0.009045  0.024347  0.047381  0.066601  0.039350
                      -0.086785 -0.241586 -0.033013  2.166248  0.575651 -1.529928  0.000584  0.639613  0.105002 -1.678124
                       0.285184 -0.001236  0.000117 -0.000324 -0.000008  0.105956 -0.001078  0.016412 -0.000626  0.019445
                      -0.000256

   8.7    0.0001455   -0.000000 -0.000001 -0.000013 -0.000079 -0.000356 -0.001205 -0.003122 -0.006413 -0.008566 -0.006064
                       0.014572  0.028983  0.025651 -0.356006  0.035750 -0.119224 -0.081696  0.025074  0.023300  0.204434
                       0.229042 -0.004407  0.001753 -0.005099 -0.000009  0.929533 -0.000478 -0.580588 -0.000096 -0.467294
                       0.000357

   9.7    0.0000849    0.000000  0.000000  0.000000  0.000000  0.000001  0.000005  0.000011  0.000024  0.000031  0.000016
                      -0.000068 -0.000071 -0.000283  0.000123 -0.000414  0.000731  0.000009 -0.000107  0.000129  0.000571
                      -0.000606 -0.000024  0.000011 -0.000003  0.003796  0.000715  0.946578 -0.000976 -0.757891  0.000362
                      -0.362468

  10.7    0.0000513    0.000001  0.000016  0.000136  0.000895  0.003845  0.013692  0.033952  0.073972  0.086895  0.067517
                      -0.220520 -0.240095 -0.397807  3.267100 -1.152524  3.044925  0.837007 -0.670811 -0.199326 -1.268844
                      -3.453196  0.022829 -0.008483  0.003426 -0.000040  0.087961 -0.000173 -0.076004  0.000010 -0.005875
                       0.000189

  11.7    0.0000239    0.000000  0.000003  0.000017  0.000131  0.000506  0.001986  0.004395  0.011043  0.010527  0.012995
                      -0.041944 -0.011410 -0.157396  0.055375 -0.390177  0.445573 -0.221558  0.037631  0.072867  0.324187
                      -0.097479 -0.015606  0.006211 -0.027604  0.000006 -0.685141  0.000780  1.198747 -0.001171 -1.103691
                       0.000540

  12.7    0.0000119    0.000000  0.000000  0.000000  0.000002  0.000007  0.000028  0.000065  0.000153  0.000146  0.000102
                      -0.000612 -0.000003 -0.002603 -0.006834 -0.004421  0.002488 -0.002492  0.000180  0.001070  0.011088
                       0.002367 -0.000213  0.000089 -0.000060 -0.051682 -0.000171 -0.582718  0.000360  1.135234 -0.000596
                      -1.151803

  13.7    0.0000095   -0.000001 -0.000024 -0.000167 -0.001247 -0.004878 -0.019098 -0.043231 -0.105804 -0.096225 -0.096918
                       0.455849 -0.028539  2.081065  6.987672  2.882577  1.541205  1.480854 -0.474964 -0.360568 -9.804717
                      -4.760231  0.072007 -0.027988 -0.005987 -0.000076 -0.065812 -0.000728  0.124438  0.001585 -0.128940
                      -0.001817

  14.7    0.0000024   -0.000004 -0.000016 -0.000339 -0.001317 -0.008853 -0.021563 -0.081299 -0.107417 -0.221581  0.167658
                       0.301920  0.597846  0.674902 22.008475 -5.835136  6.326071 -1.784962  0.099544  0.531371-19.318334
                      -3.174121 -0.125278  0.049209  0.034283  0.000053  0.010638  0.000087 -0.034996 -0.000221  0.038722
                       0.000308

  15.7    0.0000008   -0.000009  0.000011 -0.000614 -0.000917 -0.014768 -0.018195 -0.140155 -0.058025 -0.440197  0.780611
                      -0.547298  2.839022-10.298684-15.152439 -6.937510-23.856805  2.039083  0.248986 -0.676916 24.031179
                      27.770451  0.153510 -0.061082  0.004074 -0.000146 -0.006978 -0.000030  0.013255  0.000140 -0.015860
                      -0.000207

  16.7    0.0000003   -0.000000 -0.000008 -0.000036 -0.000395 -0.001242 -0.006232 -0.011921 -0.031685 -0.003718  0.041295
                       0.079011  0.060010 -1.759839-10.585158  3.647211  4.093432 -0.089438 -0.113628  0.097787 10.372583
                      -5.773798 -0.021565  0.008989  1.027313  0.002861 -0.360864 -0.001066  0.226375  0.000751 -0.099643
                      -0.000396

  17.7    0.0000003   -0.000003 -0.000049 -0.000399 -0.002717 -0.012001 -0.043848 -0.114813 -0.209808 -0.157340  0.473638
                       0.392277  0.957696-13.161876-71.247275 24.295628 29.875409 -1.016233 -0.767763  0.795037 70.971653
                     -40.895669 -0.189436  0.076047 -0.146697  0.000847  0.054030 -0.000279 -0.037398  0.000120  0.020182
                       0.000027

  18.7    0.0000002    0.000000  0.000000  0.000000  0.000003  0.000010  0.000050  0.000094  0.000274  0.000024 -0.000166
                      -0.000965 -0.000465  0.015017  0.090786 -0.033716 -0.046032  0.002477  0.000466 -0.000825 -0.088372
                       0.061164  0.000228 -0.000081 -0.002717  1.037418  0.000954 -0.383413 -0.000569  0.257070  0.000218
                      -0.124103

                         1 4f2-    1 4f2-    1 4f2-    1 4f2-    1 4f2-    1 4f2-    1 4f2-    1 4f2-    1 4f2-    1 4f2- 
                         1 4f2-    1 4f2-    1 4f2-    1 4f2-    1 4f2-    1 4f2- 

   1.8    2.0000000    0.000276  0.002763  0.015604  0.054251  0.137477  0.250146  0.318836  0.301915  0.194208  0.075372
                       0.012529  0.001191 -0.001459 -0.000635  0.000509 -0.000179

   2.8    0.0050195    0.000101  0.000997  0.005676  0.019651  0.050235  0.093729  0.119719  0.102178  0.035944 -0.193126
                      -0.203469 -0.220581 -0.341652 -0.211008 -0.046073  0.007659

   3.8    0.0005027    0.000102  0.001059  0.005698  0.020863  0.049739  0.109978  0.127522  0.171640 -0.169099 -0.551342
                       0.129010 -0.371551  0.275526  0.584466  0.159930 -0.024934

   4.8    0.0000617    0.000099  0.000916  0.004934  0.017930  0.040650  0.122341  0.134723  0.318059 -1.076463  0.556760
                       0.453762 -0.318334  0.519167 -0.780666 -0.307576  0.045629

   5.8    0.0000096   -0.000137 -0.000140 -0.004078 -0.002430 -0.036316 -0.112867 -0.243805 -0.401161  4.779783  0.741859
                       1.791209 -4.984836 -0.713571 -0.769777 -0.456693  0.056289

   6.8    0.0000020   -0.000376  0.002541 -0.007417  0.043364 -0.082769  0.041605 -0.766225  0.668462  6.195763  7.232718
                      -0.855619-11.103066 -1.614525 -0.155450  0.685437 -0.095921

   7.8    0.0000005    0.000755 -0.006465  0.012079 -0.118773  0.166231 -0.271413  1.857765 -4.345496  8.210102 -5.414510
                      -2.250334 -4.701870  6.896775 -0.381194  0.611937 -0.034498

   8.8    0.0000001   -0.000206 -0.002865 -0.024502 -0.089695 -0.077123  0.301124  1.182500 -5.306118 25.563266 29.025660
                       2.991198-37.153258-16.698389  0.664781 -0.545567 -0.041056

   9.8    0.0000000    0.003296 -0.009552  0.145531  0.007325  0.863025 -2.537826  3.203860 -2.395227 -2.666550-20.285839
                     -12.588505 10.730225 21.427743  5.049364 -1.056865  0.076558

  10.8    0.0000000    0.003431  0.005650  0.148874  0.395766  0.728457 -0.275249 -0.937670  0.966863 -1.396252  0.081000
                       0.571232  1.181806 -0.646896 -0.259992  0.054815 -0.001483

  11.8    0.0000000    0.003199 -0.004819  0.176653  0.171784  0.667559 -3.099792  5.490025 -8.299041 28.719152 38.460797
                      13.387360-41.756638-29.860553 -4.466113  0.731791 -0.013578

  12.8    0.0000000    0.001479 -0.081264 -0.234541 -1.610350  3.991078 -4.899099  4.616490 -4.649116 11.208791 10.070221
                       2.048146-14.086729 -6.355957 -0.382267 -0.186887  0.253909

  13.8    0.0000000    0.001849  0.008662  0.101046  0.104858 -0.523700  0.868876 -1.097840  1.571905 -6.282203-11.943798
                      -7.389045 10.192225 11.599579  3.821452 -2.329676  1.923059

  14.8    0.0000000   -0.050718 -0.247381 -1.584840  3.329290 -3.790786  3.290197 -2.616790  2.426078 -5.626165 -5.166546
                      -1.385390  7.047721  3.482104  0.459866 -0.139794  0.086362

  15.8    0.0000000    0.113218  1.537288 -2.640718  2.994125 -2.695934  2.118917 -1.624304  1.478359 -3.325031 -2.854980
                      -0.676230  4.081710  1.835921  0.204000 -0.049134  0.025999

  16.8    0.0000000    1.329569 -1.537770  1.529282 -1.388834  1.141485 -0.874847  0.673718 -0.619231  1.388551  1.161372
                       0.258876 -1.692907 -0.730807 -0.073963  0.015061 -0.006851

 Electronic charge:   75.000000


 **********************************************************************************************************************************
 DATASETS  * FILE   NREC   LENGTH (MB)   RECORD NAMES
              1      19      226.55       500      610      700      900      950      970     1001      129      960     1100   
                                          VAR    BASINP    GEOM    SYMINP    ZMAT    AOBASIS   BASIS     P2S    ABASIS      S 
                                         1400     1410     1200     1210     1080     1600     1650     1700     1380   
                                           T        V       H0       H01     AOSYM     SMH    MOLCAS    OPER     JKOP   

              2       8       12.59       700     1000      520     4202     5202     1001     6202     2101   
                                         GEOM     BASIS   MCVARS     RHF     MCSCF    BASIS    MCSCF     RHF  

 PROGRAMS   *        TOTAL        CI       RHF     MULTI       INT       POP     MULTI       RHF       INT
 CPU TIMES  *       228.12      8.88      0.14     16.50    181.63      0.00      2.00      0.14     18.44
 REAL TIME  *       257.82 SEC
 DISK USED  *         6.74 GB      
 SF USED    *       797.82 MB      
 GA USED    *         0.00 MB       (max)       0.00 MB       (current)
 **********************************************************************************************************************************

 CI/USERDEF energy= -15784.871116249613

        CI              RHF-SCF         MULTI           MULTI           RHF-SCF 
 -15784.87111625 -15784.53354269 -15784.53344043 -15784.53431218 -15784.53255504
 **********************************************************************************************************************************
 Molpro calculation terminated
 Variable memory released
