
 Primary working directories    : /global/cscratch1/sd/haihan
 Secondary working directories  : /global/cscratch1/sd/haihan
 Wavefunction directory         : /global/homes/h/haihan/Research/ECP/f_group_element_ecps/Zr/Molpro/molecule/ZrH/AE/wfu/
 Main file repository           : /global/cscratch1/sd/haihan/

 SHA1      : 19cd028119e0e09f93f0674bd8af7968d9b3eff6
 NAME      : 2015.1.36
 ARCHNAME  : linux/x86_64
 FC        : /opt/cray/pe/craype/2.5.14/bin/ftn
 BLASLIB   : -L/opt/intel/compilers_and_libraries_2018.1.163/linux/mkl/lib/intel64 -Wl,-_start-group -lmkl_intel_ilp64 -lmkl_intel_thread -lmkl_core -Wl,-_end-group -liomp5
 id        : lbl

 Nodes     nprocs
 nid12715    11
 Number of processes for MPI-2 version of Molpro:   nprocs(total)=   12   nprocs(compute)=   11   nprocs(helper)=    1

 Using customized tuning parameters: mindgm=7; mindgv=16; mindgc=1; mindgr=1; noblas=0; minvec=7
 default implementation of scratch files=sf  

 ***,Calculation for all-electron YH molecule, SCF and CCSD(T)
 memory,1,g
 gthresh,twoint=1.0E-15
 gthresh,throvl=1.0E-15
 
 set,dkroll=1,dkho=10,dkhp=4
 basis={
 Including file /global/u2/h/haihan/Research/ECP/f_group_element_ecps/Zr/Molpro/molecule/ZrH/AE/r_1.70/../generate/Zr-aug-cc-pwCVTZ.basis
 Including file /global/u2/h/haihan/Research/ECP/f_group_element_ecps/Zr/Molpro/molecule/ZrH/AE/r_1.70/../generate/H-aug-cc-pVTZ.basis
 }
 
 Zr_ccsd=-3597.393660
 H_ccsd=-0.49982785
 
                                                                                 !These are the wf cards parameters
 ne = 41
 symm = 1
 ss= 1
 
                                                                                 !There are irrep cards paramters
 A1=12
 B1=4
 B2=4
 A2=1
 
 
 geometry={
     2
     ZrH molecule
     Zr 0.0 0.0 0.0
     H 0.0 0.0 1.70
 }
 {rhf,nitord=20;
  maxit,200;
  wf,ne,symm,ss
  occ,A1,B1,B2,A2
  closed,A1-1,B1,B2,A2
  print,orbitals=2
 }
 scf=energy
 _CC_NORM_MAX=2.0
 {rccsd(t),shifts=0.5,shiftp=0.5,thrdis=1.0;diis,1,1,15,1;maxit,200;core}
 ccsd=energy
 bind=ccsd-Zr_ccsd-H_ccsd
 
 
 table,1.70,scf,ccsd,bind
 save
 type,csv
 

 Variables initialized (889), CPU time= 0.01 sec
 Commands  initialized (702), CPU time= 0.00 sec, 572 directives.
 Default parameters read. Elapsed time= 0.12 sec

 Checking input...
 Passed
1


                                         ***  PROGRAM SYSTEM MOLPRO  ***
                                       Copyright, TTI GmbH Stuttgart, 2015
                                    Version 2015.1 linked Dec 29 2018 15:55:43


 **********************************************************************************************************************************
 LABEL *   Calculation for all-electron YH molecule, SCF and CCSD(T)                     
  64 bit mpp version                                                                     DATE: 24-Sep-22          TIME: 18:47:06  
 **********************************************************************************************************************************

 SHA1:             19cd028119e0e09f93f0674bd8af7968d9b3eff6
 **********************************************************************************************************************************

 THRESHOLDS:

 ZERO    =  1.00D-12  ONEINT  =  1.00D-12  TWOINT  =  1.00D-15  PREFAC  =  1.00D-14  LOCALI  =  1.00D-09  EORDER  =  1.00D-04
 ENERGY  =  0.00D+00  ETEST   =  0.00D+00  EDENS   =  0.00D+00  THRDEDEF=  1.00D-06  GRADIENT=  1.00D-02  STEP    =  1.00D-03
 ORBITAL =  1.00D-05  CIVEC   =  1.00D-05  COEFF   =  1.00D-04  PRINTCI =  5.00D-02  PUNCHCI =  9.90D+01  OPTGRAD =  3.00D-04
 OPTENERG=  1.00D-06  OPTSTEP =  3.00D-04  THRGRAD =  1.00D-10  COMPRESS=  1.00D-11  VARMIN  =  1.00D-07  VARMAX  =  1.00D-03
 THRDOUB =  0.00D+00  THRDIV  =  1.00D-05  THRRED  =  1.00D-07  THRPSP  =  1.00D+00  THRDC   =  1.00D-10  THRCS   =  1.00D-10
 THRNRM  =  1.00D-08  THREQ   =  0.00D+00  THRDE   =  1.00D+00  THRREF  =  1.00D-05  SPARFAC =  1.00D+00  THRDLP  =  1.00D-07
 THRDIA  =  1.00D-10  THRDLS  =  1.00D-07  THRGPS  =  0.00D+00  THRKEX  =  0.00D+00  THRDIS  =  2.00D-01  THRVAR  =  1.00D-10
 THRLOC  =  1.00D-06  THRGAP  =  1.00D-06  THRLOCT = -1.00D+00  THRGAPT = -1.00D+00  THRORB  =  1.00D-06  THRMLTP =  0.00D+00
 THRCPQCI=  1.00D-10  KEXTA   =  0.00D+00  THRCOARS=  0.00D+00  SYMTOL  =  1.00D-06  GRADTOL =  1.00D-06  THROVL  =  1.00D-08
 THRORTH =  1.00D-08  GRID    =  1.00D-06  GRIDMAX =  1.00D-03  DTMAX   =  0.00D+00  THROCCDE=  1.00D-01  THROCCDE=  1.00D-01



 THRESHOLDS:

 ZERO    =  1.00D-12  ONEINT  =  1.00D-12  TWOINT  =  1.00D-15  PREFAC  =  1.00D-14  LOCALI  =  1.00D-09  EORDER  =  1.00D-04
 ENERGY  =  0.00D+00  ETEST   =  0.00D+00  EDENS   =  0.00D+00  THRDEDEF=  1.00D-06  GRADIENT=  1.00D-02  STEP    =  1.00D-03
 ORBITAL =  1.00D-05  CIVEC   =  1.00D-05  COEFF   =  1.00D-04  PRINTCI =  5.00D-02  PUNCHCI =  9.90D+01  OPTGRAD =  3.00D-04
 OPTENERG=  1.00D-06  OPTSTEP =  3.00D-04  THRGRAD =  1.00D-10  COMPRESS=  1.00D-11  VARMIN  =  1.00D-07  VARMAX  =  1.00D-03
 THRDOUB =  0.00D+00  THRDIV  =  1.00D-05  THRRED  =  1.00D-07  THRPSP  =  1.00D+00  THRDC   =  1.00D-10  THRCS   =  1.00D-10
 THRNRM  =  1.00D-08  THREQ   =  0.00D+00  THRDE   =  1.00D+00  THRREF  =  1.00D-05  SPARFAC =  1.00D+00  THRDLP  =  1.00D-07
 THRDIA  =  1.00D-10  THRDLS  =  1.00D-07  THRGPS  =  0.00D+00  THRKEX  =  0.00D+00  THRDIS  =  2.00D-01  THRVAR  =  1.00D-10
 THRLOC  =  1.00D-06  THRGAP  =  1.00D-06  THRLOCT = -1.00D+00  THRGAPT = -1.00D+00  THRORB  =  1.00D-06  THRMLTP =  0.00D+00
 THRCPQCI=  1.00D-10  KEXTA   =  0.00D+00  THRCOARS=  0.00D+00  SYMTOL  =  1.00D-06  GRADTOL =  1.00D-06  THROVL  =  1.00D-15
 THRORTH =  1.00D-08  GRID    =  1.00D-06  GRIDMAX =  1.00D-03  DTMAX   =  0.00D+00  THROCCDE=  1.00D-01  THROCCDE=  1.00D-01


 SETTING DKROLL         =         1.00000000                                  
 SETTING DKHO           =        10.00000000                                  
 SETTING DKHP           =         4.00000000                                  

 Variable memory set to 1000000000 words,  buffer space   230000 words

 SETTING BASIS          =    USERDEF
 SETTING ZR_CCSD        =     -3597.39366000                                  
 SETTING H_CCSD         =        -0.49982785                                  
 SETTING NE             =        41.00000000                                  
 SETTING SYMM           =         1.00000000                                  
 SETTING SS             =         1.00000000                                  
 SETTING A1             =        12.00000000                                  
 SETTING B1             =         4.00000000                                  
 SETTING B2             =         4.00000000                                  
 SETTING A2             =         1.00000000                                  

Geometry recognized as XYZ



 Recomputing integrals since basis changed


 Using spherical harmonics



 PROGRAM * SEWARD (Integral evaluation for generally contracted gaussian basis sets)     Author: Roland Lindh, 1990

 Geometry written to block  1 of record 700


 Point group  C2v 



 ATOMIC COORDINATES

 NR  ATOM    CHARGE       X              Y              Z

   1  ZR     40.00    0.000000000    0.000000000    0.000000000
   2  H       1.00    0.000000000    0.000000000    3.212534412

 Bond lengths in Bohr (Angstrom)

 1-2  3.212534412
     ( 1.700000000)

 NUCLEAR CHARGE:                   41
 NUMBER OF PRIMITIVE AOS:         347
 NUMBER OF SYMMETRY AOS:          295
 NUMBER OF CONTRACTIONS:          295   ( 129A1  +  67B1  +  67B2  +  32A2  )
 NUMBER OF CORE ORBITALS:          18   (   9A1  +   4B1  +   4B2  +   1A2  )
 NUMBER OF VALENCE ORBITALS:        7   (   4A1  +   1B1  +   1B2  +   1A2  )


 NUCLEAR REPULSION ENERGY   12.45122849

 One-electron integrals computed with SEWARD

 10nd-order Douglas-Kroll-Hess method activated. McWeeny DKH parametrization is used.

 Computing Douglas-Kroll / X2C integrals

 AO integral compression algorithm  1   Integral accuracy      1.0D-15

     1265.369 MB (compressed) written to integral file ( 56.7%)

     Node minimum: 49.021 MB, node maximum: 335.282 MB


 NUMBER OF SORTED TWO-ELECTRON INTEGRALS:   22432752.     BUFFER LENGTH:  32768
 NUMBER OF SEGMENTS:   2  SEGMENT LENGTH:   15996129      RECORD LENGTH: 524288

 Memory used in sort:      16.55 MW

 SORT1 READ   279023068. AND WROTE    10419866. INTEGRALS IN     31 RECORDS. CPU TIME:     3.89 SEC, REAL TIME:     4.47 SEC
 SORT2 READ   113606088. AND WROTE   246753875. INTEGRALS IN  12276 RECORDS. CPU TIME:     0.36 SEC, REAL TIME:     0.63 SEC

 Node minimum:    22405599.  Node maximum:    22490595. integrals

 OPERATOR DM      FOR CENTER  0  COORDINATES:    0.000000    0.000000    0.000000

 EXTRA SYMMETRY OF AOS IN SYMMETRY 1:   1 1 1 1 1 1 1 1 1 1   1 1 1 1 1 1 1 1 1 1   1 1 1 1 1 1 1 1 1 1   1 1 1 1 1 1 1 1 1 1
                                        1 1 1 1 1 1 1 1 1 1   1 1 1 1 1 1 1 1 1 1   2 1 2 1 2 1 2 1 2 1   2 1 2 1 2 1 2 1 2 1
                                        2 1 2 1 2 1 2 1 2 1   2 1 2 1 2 1 2 1 2 1   2 1 2 1 2 1 2 1 3 2   1 3 2 1 3 2 1 1 1 1
                                        1 1 1 1 1 1 2 1 2
 EXTRA SYMMETRY OF AOS IN SYMMETRY 2:   1 1 1 1 1 1 1 1 1 1   1 1 1 1 1 1 1 1 1 1   1 1 1 1 1 1 1 1 1 1   1 1 1 1 1 1 1 1 1 1
                                        1 1 1 1 1 1 1 1 1 2   1 2 1 2 1 2 1 2 1 2   1 2 1 1 1 1 1
 EXTRA SYMMETRY OF AOS IN SYMMETRY 3:   1 1 1 1 1 1 1 1 1 1   1 1 1 1 1 1 1 1 1 1   1 1 1 1 1 1 1 1 1 1   1 1 1 1 1 1 1 1 1 1
                                        1 1 1 1 1 1 1 1 1 2   1 2 1 2 1 2 1 2 1 2   1 2 1 1 1 1 1
 EXTRA SYMMETRY OF AOS IN SYMMETRY 4:   1 1 1 1 1 1 1 1 1 1   1 1 1 1 1 1 1 1 1 1   1 1 1 1 1 2 1 2 1 2   1 1

 Eigenvalues of metric

         1 0.119E-07 0.925E-07 0.978E-07 0.114E-06 0.520E-06 0.102E-05 0.318E-05 0.747E-05
         2 0.122E-07 0.971E-07 0.117E-06 0.104E-05 0.810E-05 0.107E-04 0.362E-04 0.404E-04
         3 0.122E-07 0.971E-07 0.117E-06 0.104E-05 0.810E-05 0.107E-04 0.362E-04 0.404E-04
         4 0.978E-07 0.108E-04 0.404E-04 0.435E-03 0.213E-02 0.598E-02 0.165E-01 0.366E-01


 **********************************************************************************************************************************
 DATASETS  * FILE   NREC   LENGTH (MB)   RECORD NAMES
              1      22       21.76       500      610      700      900      950      970     1000      129      960     1700   
                                          VAR    BASINP    GEOM    SYMINP    ZMAT    AOBASIS   BASIS     P2S    ABASIS    OPER   
                                         1101     1401     1411     1412     1650     1100     1400     1410     1200     1210   
                                          SR      EKINR    POTR     PVPR    MOLCAS      S      EKIN      POT      H0       H01  
                                         1080     1600   
                                         AOSYM     SMH  

 PROGRAMS   *        TOTAL       INT
 CPU TIMES  *        58.82     58.52
 REAL TIME  *        60.75 SEC
 DISK USED  *         2.68 GB      
 GA USED    *         0.00 MB       (max)       0.00 MB       (current)
 **********************************************************************************************************************************


 PROGRAM * RHF-SCF (OPEN SHELL)       Authors: W. Meyer, H.-J. Werner


 NUMBER OF ELECTRONS:      21+   20-    SPACE SYMMETRY=1    SPIN SYMMETRY: Doublet 
 CONVERGENCE THRESHOLDS:    1.00E-05 (Density)    1.00E-07 (Energy)
 MAX. NUMBER OF ITERATIONS:      200
 INTERPOLATION TYPE:            DIIS
 INTERPOLATION STEPS:              2 (START)      1 (STEP)
 LEVEL SHIFTS:                 -0.60 (CLOSED) -0.30 (OPEN) 

 Number of closed-shell orbitals:   20 (  11   4   4   1 )
 Number of open-shell orbitals:      1 (   1   0   0   0 )


 Orbital guess generated from atomic densities. Full valence occupancy:   13   5   5   2

 Molecular orbital dump at record        2100.2

 ITERATION    DDIFF          GRAD             ENERGY        2-EL.EN.            DIPOLE MOMENTS         DIIS   ORB.
    1      0.000D+00      0.000D+00     -3595.98140267   2688.189828    0.00000    0.00000   -5.05402    0    start
    2      0.000D+00      0.107D-01     -3596.70426070   2768.031551    0.00000    0.00000    0.18762    1    diag,B
    3      0.357D+00      0.689D-02     -3596.74188624   2758.554289    0.00000    0.00000    0.08995    2    diag,B
    4      0.115D-01      0.201D-02     -3596.75818605   2757.620571    0.00000    0.00000   -0.00332    3    diag,B
    5      0.126D-01      0.112D-02     -3596.77215337   2758.204379    0.00000    0.00000   -0.12428    4    diag,B
    6      0.171D-01      0.707D-03     -3596.77956595   2759.697785    0.00000    0.00000   -0.23701    5    diag,B
    7      0.138D-01      0.388D-03     -3596.78216054   2760.855612    0.00000    0.00000   -0.34124    6    diag,B
    8      0.830D-02      0.135D-03     -3596.78243848   2761.125380    0.00000    0.00000   -0.39822    7    diag,B
    9      0.222D-02      0.669D-04     -3596.78249274   2761.177025    0.00000    0.00000   -0.43670    8    diag,B
   10      0.107D-02      0.306D-04     -3596.78250585   2761.194946    0.00000    0.00000   -0.45843    9    orth
   11      0.100D-02      0.165D-04     -3596.78251070   2761.222906    0.00000    0.00000   -0.47001    9    diag,B
   12      0.544D-03      0.115D-04     -3596.78251416   2761.246705    0.00000    0.00000   -0.48075    9    diag,B
   13      0.315D-03      0.758D-05     -3596.78251587   2761.268656    0.00000    0.00000   -0.48800    9    diag,B
   14      0.238D-03      0.484D-05     -3596.78251665   2761.280043    0.00000    0.00000   -0.49367    9    diag,B
   15      0.356D-03      0.214D-05     -3596.78251677   2761.285976    0.00000    0.00000   -0.49608    9    diag,B
   16      0.259D-03      0.852D-06     -3596.78251678   2761.287512    0.00000    0.00000   -0.49662    9    diag,B
   17      0.471D-04      0.424D-06     -3596.78251678   2761.287933    0.00000    0.00000   -0.49684    9    diag,B
   18      0.341D-04      0.183D-06     -3596.78251678   2761.287915    0.00000    0.00000   -0.49689    9    diag,B
   19      0.118D-04      0.864D-07     -3596.78251678   2761.287828    0.00000    0.00000   -0.49691    9    fixocc
   20      0.384D-05      0.450D-07     -3596.78251678   2761.287836    0.00000    0.00000   -0.49691    0    orth

 Final alpha occupancy:  12   4   4   1
 Final beta  occupancy:  11   4   4   1

 !RHF STATE 1.1 Energy              -3596.782516784731
 Nuclear energy                        12.45122849
 One-electron energy                -4989.87766343
 Two-electron energy                 1380.64391815
 Virial quotient                       -0.91142996
 !RHF STATE 1.1 Dipole moment           0.00000000     0.00000000    -0.49691319
 Dipole moment /Debye                   0.00000000     0.00000000    -1.26294464

 ELECTRON ORBITALS
 =================


   Orb  Occ    Energy  Couls-En    Coefficients

                                   1 1s      1 1s      1 1s      1 1s      1 1s      1 1s      1 1s      1 1s      1 1s      1 1s   
                                   1 1s      1 1s      1 1s      1 1s      1 1s      1 1s      1 1s      1 1s      1 1s      1 1s   
                                   1 1s      1 1s      1 1s      1 1s      1 1s      1 1s      1 1s      1 1s      1 1s      1 1s   
                                   1 1s      1 2pz     1 2pz     1 2pz     1 2pz     1 2pz     1 2pz     1 2pz     1 2pz     1 2pz  
                                   1 2pz     1 2pz     1 2pz     1 2pz     1 2pz     1 2pz     1 2pz     1 2pz     1 2pz     1 2pz  
                                   1 2pz     1 2pz     1 2pz     1 2pz     1 2pz     1 2pz     1 2pz     1 2pz     1 2pz     1 3d0  
                                   1 3d2+    1 3d0     1 3d2+    1 3d0     1 3d2+    1 3d0     1 3d2+    1 3d0     1 3d2+    1 3d0  
                                   1 3d2+    1 3d0     1 3d2+    1 3d0     1 3d2+    1 3d0     1 3d2+    1 3d0     1 3d2+    1 3d0  
                                   1 3d2+    1 3d0     1 3d2+    1 3d0     1 3d2+    1 3d0     1 3d2+    1 3d0     1 3d2+    1 3d0  
                                   1 3d2+    1 3d0     1 3d2+    1 3d0     1 3d2+    1 3d0     1 3d2+    1 3d0     1 3d2+    1 4f0  
                                   1 4f2+    1 4f0     1 4f2+    1 4f0     1 4f2+    1 4f0     1 4f2+    1 5g0     1 5g4+    1 5g2+ 
                                   1 5g0     1 5g4+    1 5g2+    1 5g0     1 5g4+    1 5g2+    2 1s      2 1s      2 1s      2 1s   
                                   2 1s      2 1s      2 2pz     2 2pz     2 2pz     2 3d0     2 3d2+    2 3d0     2 3d2+ 

   1.1   2  -665.1025-1483.0335  0.000042  0.000111  0.000306  0.000707  0.001535  0.003175  0.006516  0.013482  0.028412  0.060272
                                 0.123434  0.225418  0.318989  0.279036 -0.004785  0.105658  0.006281  0.002709 -0.003370  0.004429
                                -0.004734  0.003842 -0.005095  0.003884 -0.000327  0.000136 -0.000088  0.000056 -0.000020  0.000014
                                -0.000001 -0.000000 -0.000000 -0.000000 -0.000000 -0.000000 -0.000000 -0.000000 -0.000000  0.000000
                                 0.000001  0.000001 -0.000010  0.000017 -0.000030  0.000071 -0.000124  0.000129 -0.000106  0.000207
                                -0.000258  0.000138 -0.000048  0.000048 -0.000042  0.000011  0.000002  0.000003  0.000000 -0.000000
                                 0.000000  0.000000 -0.000000  0.000000  0.000000  0.000000 -0.000000 -0.000000 -0.000000 -0.000001
                                 0.000000  0.000001 -0.000000 -0.000000  0.000000  0.000001 -0.000000 -0.000004  0.000000  0.000022
                                -0.000000 -0.000061  0.000000  0.000177 -0.000000 -0.000164  0.000000  0.000032 -0.000000 -0.000008
                                 0.000000  0.000007 -0.000000  0.000001  0.000000  0.000001 -0.000000  0.000000  0.000000 -0.000000
                                 0.000000  0.000000  0.000000  0.000000 -0.000000  0.000000 -0.000000  0.000000  0.000000  0.000000
                                 0.000000  0.000000 -0.000000  0.000000  0.000000 -0.000000 -0.000000  0.000000  0.000000 -0.000000
                                -0.000011 -0.000008  0.000000  0.000000  0.000004 -0.000000 -0.000000  0.000000  0.000000

   2.1   2   -94.8252 -298.4006 -0.000014 -0.000036 -0.000101 -0.000234 -0.000508 -0.001055 -0.002177 -0.004544 -0.009722 -0.021200
                                -0.045700 -0.092288 -0.158110 -0.186362  0.004617 -0.034318  0.360995  0.542737  0.231078  0.018488
                                 0.011092  0.001350 -0.004625  0.004152 -0.000605  0.000223 -0.000175  0.000112 -0.000039  0.000028
                                -0.000002  0.000000  0.000000  0.000000  0.000000  0.000001  0.000004  0.000013  0.000036  0.000079
                                 0.000130  0.000167  0.000105  0.000016 -0.000033  0.000139 -0.000248  0.000263 -0.000215  0.000425
                                -0.000530  0.000284 -0.000096  0.000105 -0.000095  0.000025  0.000006  0.000006  0.000001 -0.000000
                                -0.000000 -0.000000  0.000000 -0.000000 -0.000000 -0.000000  0.000000 -0.000003  0.000000 -0.000014
                                 0.000000  0.000011 -0.000000 -0.000002  0.000000  0.000002 -0.000000 -0.000010  0.000000  0.000052
                                -0.000000 -0.000138  0.000000  0.000383 -0.000000 -0.000351  0.000000  0.000068 -0.000000 -0.000020
                                 0.000000  0.000017 -0.000000  0.000003  0.000000  0.000001 -0.000000  0.000001  0.000000  0.000004
                                -0.000000 -0.000001  0.000000  0.000001 -0.000000  0.000001 -0.000000 -0.000002 -0.000002 -0.000000
                                 0.000000  0.000000  0.000000  0.000000 -0.000000 -0.000000 -0.000000  0.000000 -0.000000  0.000001
                                -0.000024 -0.000016  0.000001 -0.000002  0.000007 -0.000001 -0.000000  0.000001  0.000000

   3.1   2   -84.3563 -284.1938  0.000000  0.000000  0.000000  0.000000  0.000000  0.000000  0.000001  0.000002  0.000005  0.000010
                                 0.000022  0.000044  0.000075  0.000089 -0.000002  0.000013 -0.000185 -0.000235 -0.000107 -0.000006
                                -0.000049  0.000050 -0.000126  0.000120 -0.000015  0.000016 -0.000024  0.000054  0.000028  0.000017
                                 0.000004  0.000014  0.000054  0.000210  0.000776  0.002803  0.009566  0.029702  0.080895  0.181364
                                 0.307742  0.343371  0.167462  0.035769 -0.004695  0.086557 -0.113237  0.094985 -0.052585  0.062562
                                -0.061183  0.023259 -0.004693  0.001978 -0.001388  0.000181 -0.000005  0.000016 -0.000000  0.000000
                                 0.000000  0.000000 -0.000000  0.000002  0.000000  0.000010 -0.000000  0.000035 -0.000000  0.000035
                                -0.000000 -0.000009  0.000000 -0.000000 -0.000000  0.000005 -0.000000 -0.000013  0.000000  0.000098
                                -0.000000 -0.000251  0.000000  0.000653 -0.000000 -0.000572  0.000000  0.000095 -0.000000 -0.000015
                                 0.000000  0.000016 -0.000000  0.000014  0.000000 -0.000001 -0.000000  0.000002 -0.000000 -0.000009
                                -0.000000 -0.000002 -0.000000  0.000002  0.000000  0.000002  0.000000  0.000000  0.000000 -0.000000
                                 0.000000 -0.000000  0.000000  0.000000  0.000000  0.000000  0.000000 -0.000001 -0.000001 -0.000002
                                -0.000080 -0.000027  0.000001  0.000004  0.000027 -0.000000 -0.000000 -0.000003 -0.000000

   4.1   2   -16.7131  -99.9609  0.000006  0.000015  0.000042  0.000097  0.000212  0.000440  0.000908  0.001900  0.004069  0.008915
                                 0.019332  0.039666  0.069684  0.087572 -0.006108  0.020245 -0.235510 -0.479380 -0.253326  0.245890
                                 0.403760  0.491358  0.248092 -0.022739  0.014532 -0.002077  0.001491 -0.000995  0.000407 -0.000256
                                 0.000016 -0.000000 -0.000000 -0.000000 -0.000001 -0.000003 -0.000011 -0.000034 -0.000095 -0.000220
                                -0.000392 -0.000463 -0.000110  0.000072  0.000786 -0.000009  0.001370 -0.000238  0.001305 -0.001459
                                 0.002314 -0.001573  0.000673 -0.000523  0.000209 -0.000110 -0.000022 -0.000053 -0.000008  0.000000
                                 0.000000  0.000000 -0.000000  0.000001  0.000000  0.000004 -0.000000  0.000015  0.000000  0.000053
                                -0.000000 -0.000020  0.000000  0.000053 -0.000000 -0.000034  0.000000 -0.000025 -0.000000 -0.000040
                                 0.000000  0.000526 -0.000000 -0.002532  0.000000  0.002689 -0.000000 -0.000656  0.000000 -0.000054
                                -0.000000  0.000007  0.000000 -0.000012 -0.000000 -0.000004  0.000000 -0.000010 -0.000000  0.000063
                                -0.000000 -0.000115  0.000000  0.000011 -0.000000  0.000001 -0.000000 -0.000005 -0.000001  0.000000
                                 0.000003  0.000028  0.000000  0.000006 -0.000006 -0.000000  0.000000 -0.000000 -0.000025  0.000108
                                 0.000182  0.000148 -0.000004 -0.000127 -0.000107  0.000035  0.000000  0.000051  0.000000

   5.1   2   -13.1977  -93.4221 -0.000000 -0.000000 -0.000000 -0.000000 -0.000001 -0.000001 -0.000002 -0.000005 -0.000011 -0.000024
                                -0.000052 -0.000106 -0.000186 -0.000235  0.000018 -0.000054  0.000648  0.001265  0.000649 -0.000562
                                -0.001256 -0.001402 -0.000081 -0.000188 -0.000169 -0.000278  0.000531 -0.000416 -0.000128 -0.000090
                                -0.000012 -0.000006 -0.000023 -0.000090 -0.000333 -0.001207 -0.004152 -0.013040 -0.036484 -0.084883
                                -0.152461 -0.171688 -0.013983  0.012159  0.285086  0.032828  0.433442  0.028317  0.292591 -0.057400
                                 0.129126 -0.040781  0.012423 -0.005290  0.004244 -0.000760 -0.000089 -0.000060 -0.000000  0.000000
                                 0.000000  0.000001 -0.000000  0.000004  0.000000  0.000013  0.000000  0.000027  0.000000  0.000052
                                 0.000000  0.000053  0.000000  0.000214  0.000000  0.000432  0.000000  0.000772  0.000000 -0.001131
                                 0.000000  0.002284 -0.000000 -0.004857  0.000000  0.003933 -0.000000 -0.000582  0.000000  0.000322
                                -0.000000 -0.000279  0.000000 -0.000085 -0.000000 -0.000010  0.000000 -0.000007 -0.000000 -0.000039
                                 0.000000  0.000162 -0.000000 -0.000052  0.000000 -0.000028 -0.000000  0.000009 -0.000000 -0.000000
                                -0.000003 -0.000000  0.000000 -0.000018  0.000000  0.000000  0.000000  0.000002  0.000035 -0.000015
                                 0.000414  0.000112 -0.000015  0.000088 -0.000060 -0.000015  0.000000 -0.000052 -0.000000

   6.1   2    -7.4234  -83.0783 -0.000000 -0.000000  0.000000 -0.000000 -0.000000 -0.000000  0.000000 -0.000000  0.000000 -0.000000
                                -0.000000 -0.000000  0.000000 -0.000000  0.000000 -0.000000  0.000000 -0.000000  0.000000 -0.000000
                                 0.000000 -0.000000 -0.000000  0.000000 -0.000000  0.000000 -0.000000  0.000000 -0.000000  0.000000
                                 0.000000 -0.000000  0.000000  0.000000  0.000000  0.000000  0.000000  0.000000  0.000000  0.000000
                                 0.000000  0.000000  0.000000 -0.000000  0.000000 -0.000000  0.000000 -0.000000 -0.000000  0.000000
                                -0.000000  0.000000 -0.000000  0.000000 -0.000000  0.000000  0.000000  0.000000  0.000000 -0.000000
                                 0.000165 -0.000000  0.001479 -0.000000  0.008699 -0.000000  0.034326 -0.000000  0.100487 -0.000000
                                 0.221181  0.000000 -0.003575 -0.000000  0.327750 -0.000000  0.332235 -0.000000  0.203035  0.000000
                                -0.036236 -0.000000  0.109995  0.000000 -0.105182 -0.000000  0.075484  0.000000 -0.004249 -0.000000
                                 0.000618  0.000000 -0.000154 -0.000000  0.000089  0.000000 -0.000009  0.000000  0.000003 -0.000000
                                 0.000156  0.000000 -0.000090  0.000000  0.000024  0.000000 -0.000010  0.000000  0.000000  0.000058
                                -0.000000 -0.000000 -0.000085  0.000000  0.000000  0.000016  0.000000 -0.000000  0.000000 -0.000000
                                -0.000000 -0.000000  0.000000  0.000000  0.000000 -0.000000  0.000005 -0.000000 -0.000009

   7.1   2    -7.4197  -83.0668  0.000000  0.000000  0.000000  0.000000  0.000000  0.000000  0.000000  0.000000  0.000000  0.000001
                                 0.000001  0.000003  0.000005  0.000004  0.000007 -0.000006 -0.000020 -0.000078  0.000038 -0.000035
                                 0.000559 -0.000427  0.000146 -0.000413  0.000012  0.001098 -0.001938  0.000581 -0.000057  0.000196
                                -0.000008  0.000000  0.000000  0.000000  0.000001  0.000002  0.000007  0.000021  0.000058  0.000138
                                 0.000249  0.000282 -0.000192  0.000225 -0.001059  0.001027 -0.002974  0.002197 -0.001809  0.003960
                                -0.003484  0.001230 -0.000314  0.001671 -0.002618  0.000381  0.000143  0.000078 -0.000002  0.000165
                                 0.000000  0.001478  0.000000  0.008695  0.000000  0.034311  0.000000  0.100441  0.000000  0.221078
                                 0.000000 -0.003567 -0.000000  0.327639  0.000000  0.332210  0.000000  0.203137  0.000000 -0.035909
                                 0.000000  0.110273 -0.000000 -0.107722  0.000000  0.078575 -0.000000 -0.005130  0.000000 -0.000414
                                -0.000000  0.000341  0.000000  0.000100 -0.000000  0.000045  0.000000  0.000003  0.000000  0.000382
                                 0.000000 -0.000513  0.000000  0.000051  0.000000  0.000069  0.000000  0.000037  0.000019  0.000000
                                -0.000067 -0.000069 -0.000000  0.000044  0.000012  0.000000  0.000001  0.000008 -0.000066  0.000549
                                -0.000136 -0.000123 -0.000014 -0.000589 -0.000214  0.000109  0.000000  0.000233 -0.000000

   8.1   2    -2.5305  -38.2416 -0.000002 -0.000006 -0.000016 -0.000037 -0.000080 -0.000167 -0.000344 -0.000720 -0.001540 -0.003384
                                -0.007327 -0.015127 -0.026532 -0.034539  0.004895 -0.010700  0.098755  0.204261  0.128344 -0.161102
                                -0.179033 -0.560868 -0.119130 -0.030754  0.779819  0.549123 -0.014285  0.039051 -0.016622  0.010121
                                -0.000802 -0.000000 -0.000000 -0.000000 -0.000000 -0.000001 -0.000003 -0.000009 -0.000027 -0.000057
                                -0.000122 -0.000058 -0.001148  0.001939 -0.003514  0.009696 -0.018031  0.020800 -0.018852  0.041343
                                -0.053554  0.033772 -0.015991  0.014044 -0.018728  0.002577  0.000768  0.002101  0.000250 -0.000000
                                 0.000000 -0.000002 -0.000000 -0.000012  0.000000 -0.000049 -0.000000 -0.000140  0.000000 -0.000409
                                -0.000000  0.000118  0.000000 -0.000521 -0.000000 -0.000313  0.000000 -0.000450 -0.000000  0.003123
                                 0.000000 -0.007153 -0.000000  0.025569  0.000000 -0.024606 -0.000000  0.008083  0.000000 -0.003943
                                -0.000000  0.000900  0.000000  0.000095 -0.000000  0.000398  0.000000  0.000345  0.000000 -0.000698
                                 0.000000 -0.001524  0.000000 -0.000522 -0.000000  0.000243 -0.000000  0.000257  0.000299  0.000000
                                 0.001058  0.001158  0.000000 -0.000135  0.000127  0.000000  0.000129  0.000821  0.003144  0.007508
                                -0.003565 -0.005285 -0.000989 -0.003010  0.001456  0.000543  0.000000  0.000387 -0.000000

   9.1   2    -1.5282  -33.4712 -0.000000 -0.000000 -0.000000 -0.000000 -0.000000 -0.000000 -0.000001 -0.000002 -0.000004 -0.000008
                                -0.000018 -0.000034 -0.000067 -0.000046 -0.000102  0.000100  0.000125  0.000725 -0.000431  0.001509
                                -0.005006  0.005870 -0.028423  0.027593  0.000893  0.004307 -0.017867  0.003158  0.001382  0.000886
                                 0.000269  0.000002  0.000008  0.000031  0.000116  0.000419  0.001443  0.004535  0.012761  0.029813
                                 0.054259  0.060537  0.008947 -0.024378 -0.094388 -0.111774 -0.026391 -0.245391  0.065836 -0.373279
                                 0.693569 -0.193991  0.587286  0.320904  0.005386  0.037575 -0.002253  0.001421 -0.000163  0.000001
                                -0.000000  0.000006  0.000000  0.000036 -0.000000  0.000146 -0.000000  0.000432 -0.000000  0.001030
                                -0.000000 -0.000121  0.000000  0.001386 -0.000000  0.001117  0.000000 -0.000053 -0.000000 -0.005225
                                 0.000000  0.014585 -0.000000 -0.054596  0.000000  0.048703 -0.000000 -0.016418  0.000000 -0.010136
                                -0.000000  0.002582  0.000000  0.000906 -0.000000 -0.000109  0.000000  0.000154 -0.000000  0.002768
                                 0.000000  0.007224  0.000000  0.001045  0.000000  0.000222 -0.000000  0.000364  0.000000 -0.000000
                                -0.000384  0.000003  0.000000 -0.000413  0.000000 -0.000000  0.000637  0.004267  0.017198  0.036185
                                 0.002212 -0.001489 -0.003558 -0.010106  0.000446  0.001572  0.000000  0.001272 -0.000000

  10.1   2    -0.4396  -15.8530  0.000000  0.000001  0.000002  0.000005  0.000012  0.000024  0.000050  0.000105  0.000224  0.000491
                                 0.001064  0.002198  0.003852  0.005049 -0.000793  0.001649 -0.014557 -0.030046 -0.019630  0.025714
                                 0.024438  0.098944 -0.011330  0.037962 -0.180839 -0.155291  0.020390  0.073202  0.013791  0.008270
                                -0.006091 -0.000000 -0.000002 -0.000006 -0.000023 -0.000084 -0.000291 -0.000914 -0.002576 -0.006015
                                -0.010976 -0.012174 -0.002954  0.007114  0.015372  0.034320 -0.016160  0.076684 -0.036723  0.113651
                                -0.186469  0.047370 -0.148772 -0.057805 -0.020680  0.037956  0.004257  0.006248 -0.003538 -0.000017
                                 0.000000 -0.000153 -0.000000 -0.000890  0.000000 -0.003579  0.000000 -0.010353  0.000000 -0.025798
                                 0.000000  0.003705 -0.000000 -0.035213  0.000000 -0.027426 -0.000000 -0.023581  0.000000  0.171297
                                -0.000000 -0.407771  0.000000  1.442461 -0.000000 -1.375738  0.000000  0.453688 -0.000000  0.076170
                                 0.000000  0.092904 -0.000000  0.028163 -0.000000  0.001440  0.000000 -0.000108 -0.000000  0.006385
                                -0.000000  0.018137 -0.000000  0.018682 -0.000000  0.002065  0.000000  0.002441  0.000037  0.000000
                                 0.006268 -0.000305  0.000000  0.002284 -0.000228 -0.000000  0.005108  0.037342  0.149979  0.356285
                                 0.335535  0.023139 -0.006337 -0.038602 -0.037714  0.003144  0.000000  0.006605 -0.000000

  11.1   2    -0.2216  -13.9063  0.000001  0.000001  0.000004  0.000009  0.000019  0.000039  0.000081  0.000171  0.000365  0.000802
                                 0.001737  0.003586  0.006296  0.008194 -0.001131  0.002510 -0.023633 -0.049459 -0.030909  0.038776
                                 0.048387  0.149272  0.047996 -0.010466 -0.272575 -0.335277 -0.003628  0.248752  0.571682  0.275680
                                 0.002141  0.000000  0.000000  0.000002  0.000006  0.000023  0.000079  0.000249  0.000698  0.001638
                                 0.002965  0.003385 -0.000926  0.000904 -0.009601  0.004791 -0.022581  0.009477 -0.017214  0.024895
                                -0.015398  0.016917  0.035236  0.046413 -0.010842 -0.051372 -0.125228 -0.036159  0.002633  0.000016
                                -0.000000  0.000143 -0.000000  0.000837 -0.000000  0.003353 -0.000000  0.009761 -0.000000  0.023592
                                -0.000000 -0.002658  0.000000  0.032622 -0.000000  0.026502 -0.000000  0.015891 -0.000000 -0.128561
                                 0.000000  0.298007 -0.000000 -1.150768  0.000000  1.110596 -0.000000 -0.394143  0.000000 -0.100687
                                 0.000000 -0.090229  0.000000 -0.081187 -0.000000 -0.013416  0.000000 -0.001007 -0.000000 -0.000056
                                -0.000000  0.001478 -0.000000 -0.000553 -0.000000 -0.001046 -0.000000  0.000186  0.000608 -0.000000
                                -0.002666  0.000608  0.000000 -0.002381  0.000191 -0.000000 -0.000363 -0.002632 -0.011893 -0.011763
                                -0.023213 -0.017979  0.001913  0.000617  0.010146 -0.000506  0.000000 -0.000347  0.000000

  12.1   +    -0.3207  -22.4127 -0.000000 -0.000000 -0.000000 -0.000000 -0.000000  0.000000 -0.000000 -0.000000 -0.000000 -0.000000
                                -0.000000 -0.000000 -0.000000 -0.000000  0.000000 -0.000000  0.000000 -0.000000  0.000000 -0.000000
                                 0.000000 -0.000000  0.000000 -0.000000  0.000000 -0.000000  0.000000 -0.000000  0.000000 -0.000000
                                 0.000000 -0.000000  0.000000  0.000000  0.000000  0.000000  0.000000  0.000000  0.000000  0.000000
                                 0.000000  0.000000 -0.000000  0.000000 -0.000000  0.000000 -0.000000  0.000000 -0.000000  0.000000
                                -0.000000  0.000000 -0.000000  0.000000 -0.000000  0.000000 -0.000000 -0.000000  0.000000 -0.000000
                                -0.000040 -0.000000 -0.000362 -0.000000 -0.002110 -0.000000 -0.008461 -0.000000 -0.024601 -0.000000
                                -0.059853  0.000000  0.007136 -0.000000 -0.082468  0.000000 -0.066110 -0.000000 -0.042075  0.000000
                                 0.341487 -0.000000 -0.792427  0.000000  3.002134 -0.000000 -2.877643  0.000000  1.004306 -0.000000
                                 0.239536  0.000000  0.197685  0.000000  0.148783 -0.000000  0.004778 -0.000000  0.003423 -0.000000
                                 0.000204 -0.000000 -0.003321 -0.000000 -0.009543 -0.000000 -0.003713 -0.000000 -0.000000 -0.001524
                                -0.000000 -0.000000 -0.003227 -0.000000 -0.000000 -0.001450 -0.000000  0.000000 -0.000000 -0.000000
                                -0.000000 -0.000000  0.000000 -0.000000  0.000000  0.000000  0.000479 -0.000000 -0.001080

  13.1   0     0.0104   -6.8976  0.000000  0.000000  0.000000  0.000001  0.000002  0.000003  0.000007  0.000014  0.000029  0.000069
                                 0.000136  0.000317  0.000446  0.001139 -0.001625  0.001908 -0.003383 -0.001274 -0.012474  0.028544
                                -0.049496  0.094120 -0.254730  0.248067 -0.092914  0.060709 -0.166744  0.392000 -0.160782  0.383158
                                -0.629180 -0.000000 -0.000001 -0.000003 -0.000011 -0.000040 -0.000134 -0.000432 -0.001181 -0.002868
                                -0.004888 -0.006831  0.022705 -0.036690  0.083670 -0.185421  0.378995 -0.407160  0.396184 -0.887624
                                 1.161725 -0.696209  0.208238 -0.414828  0.348600 -0.042089  0.443531 -0.215777  0.814065  0.000011
                                -0.000000  0.000099 -0.000000  0.000578 -0.000000  0.002306 -0.000000  0.006748 -0.000000  0.015863
                                -0.000000 -0.001328  0.000000  0.022222 -0.000000  0.018779 -0.000000  0.008063 -0.000000 -0.069420
                                 0.000000  0.152278 -0.000000 -0.640700  0.000000  0.624313 -0.000000 -0.242602  0.000000 -0.072716
                                -0.000000 -0.050193  0.000000 -0.033695  0.000000 -0.066444  0.000000 -0.144201 -0.000000  0.000054
                                 0.000000  0.000569  0.000000  0.013861 -0.000000  0.024524 -0.000000  0.000083  0.000620 -0.000000
                                 0.000997  0.001778 -0.000000  0.000563  0.001265 -0.000000  0.000193  0.001517  0.005252  0.018603
                                -0.217056  0.177613  0.001350  0.013721  0.072729 -0.000490  0.000000 -0.003922 -0.000000

  14.1   0     0.0223   -3.7864 -0.000000 -0.000000 -0.000001 -0.000002 -0.000004 -0.000008 -0.000017 -0.000037 -0.000075 -0.000177
                                -0.000350 -0.000821 -0.001135 -0.003026  0.004487 -0.005250  0.008989  0.002692  0.034067 -0.078534
                                 0.138504 -0.258492  0.713742 -0.695629  0.250695 -0.205936  0.442324 -0.716672  1.822549 -0.251653
                                 2.850520 -0.000000 -0.000000 -0.000000 -0.000002 -0.000006 -0.000026 -0.000064 -0.000242 -0.000381
                                -0.001276  0.000955 -0.040785  0.067919 -0.127625  0.342240 -0.653682  0.755345 -0.706814  1.642955
                                -2.214395  1.300146 -0.528285  0.702089 -0.718146  0.415289  0.429240  1.082747  0.556516 -0.000000
                                -0.000000 -0.000006 -0.000000 -0.000011 -0.000000 -0.000134 -0.000000 -0.000015 -0.000000 -0.004834
                                 0.000000  0.005455 -0.000000 -0.003720  0.000000  0.004817 -0.000000 -0.036843  0.000000  0.245030
                                -0.000000 -0.711842  0.000000  2.171158 -0.000000 -2.054753  0.000000  0.436794 -0.000000 -0.172315
                                -0.000000  0.229239  0.000000  0.115118 -0.000000  0.217925  0.000000  0.252258 -0.000000 -0.000596
                                 0.000000 -0.000785  0.000000  0.027026  0.000000  0.082282  0.000000 -0.000309 -0.000123 -0.000000
                                 0.002508 -0.000552 -0.000000  0.011955 -0.000577 -0.000000 -0.000156 -0.000910 -0.003589 -0.026507
                                -0.922317 -3.135122 -0.000756  0.026865  0.255172 -0.001590  0.000000 -0.010159  0.000000

                                   1 2px     1 2px     1 2px     1 2px     1 2px     1 2px     1 2px     1 2px     1 2px     1 2px  
                                   1 2px     1 2px     1 2px     1 2px     1 2px     1 2px     1 2px     1 2px     1 2px     1 2px  
                                   1 2px     1 2px     1 2px     1 2px     1 2px     1 2px     1 2px     1 2px     1 3d1+    1 3d1+ 
                                   1 3d1+    1 3d1+    1 3d1+    1 3d1+    1 3d1+    1 3d1+    1 3d1+    1 3d1+    1 3d1+    1 3d1+ 
                                   1 3d1+    1 3d1+    1 3d1+    1 3d1+    1 3d1+    1 3d1+    1 3d1+    1 3d1+    1 4f1+    1 4f3+ 
                                   1 4f1+    1 4f3+    1 4f1+    1 4f3+    1 4f1+    1 4f3+    1 5g1+    1 5g3+    1 5g1+    1 5g3+ 
                                   1 5g1+    1 5g3+    2 2px     2 2px     2 2px     2 3d1+    2 3d1+ 

   1.2   2   -84.3565 -284.1932  0.000014  0.000054  0.000210  0.000776  0.002803  0.009566  0.029702  0.080894  0.181360  0.307736
                                 0.343368  0.167549  0.035651 -0.004514  0.086127 -0.112488  0.094199 -0.051938  0.061325 -0.059671
                                 0.022489 -0.004455  0.001778 -0.001220  0.000123 -0.000028  0.000009 -0.000003  0.000000  0.000000
                                 0.000000  0.000003  0.000016  0.000024 -0.000003  0.000009 -0.000000 -0.000002  0.000004 -0.000014
                                 0.000039 -0.000036  0.000007 -0.000001 -0.000000  0.000000 -0.000000  0.000000  0.000005 -0.000009
                                 0.000001 -0.000002 -0.000000 -0.000001  0.000000  0.000000  0.000001  0.000000 -0.000000  0.000000
                                 0.000000  0.000000 -0.000000  0.000001  0.000001  0.000000 -0.000001

   2.2   2   -13.1972  -93.4151 -0.000006 -0.000023 -0.000090 -0.000333 -0.001207 -0.004151 -0.013039 -0.036481 -0.084875 -0.152446
                                -0.171662 -0.014178  0.012438  0.284517  0.034059  0.431028  0.031038  0.290443 -0.052724  0.123182
                                -0.037731  0.011429 -0.004023  0.002899 -0.000335  0.000076 -0.000027  0.000007  0.000000  0.000001
                                 0.000008  0.000030  0.000081  0.000200  0.000008  0.000366  0.000363  0.000213 -0.000062  0.000153
                                -0.000290  0.000239 -0.000035 -0.000019 -0.000005  0.000007 -0.000000  0.000000  0.000068 -0.000055
                                -0.000074  0.000120 -0.000006 -0.000013  0.000001  0.000008  0.000004 -0.000000 -0.000027 -0.000001
                                 0.000005 -0.000000 -0.000002  0.000009 -0.000006 -0.000008 -0.000008

   3.2   2    -7.4132  -83.0245  0.000000  0.000000  0.000000  0.000000  0.000001  0.000004  0.000012  0.000035  0.000081  0.000145
                                 0.000159  0.000013 -0.000016 -0.000240 -0.000093 -0.000321 -0.000232 -0.000203 -0.000163  0.000235
                                -0.000138  0.000011  0.000066 -0.000083  0.000028  0.000053 -0.000004  0.000001  0.000165  0.001477
                                 0.008684  0.034268  0.100311  0.220790 -0.003556  0.327294  0.332169  0.203956 -0.036682  0.112309
                                -0.110012  0.079794 -0.005148  0.000504 -0.000250  0.000085 -0.000010  0.000002  0.000286 -0.000000
                                -0.000294 -0.000001  0.000085 -0.000000  0.000002 -0.000000  0.000039 -0.000012 -0.000012  0.000042
                                 0.000020 -0.000007  0.000006 -0.000003 -0.000088 -0.000025 -0.000003

   4.2   2    -1.5146  -33.5551  0.000002  0.000008  0.000031  0.000116  0.000420  0.001450  0.004555  0.012819  0.029945  0.054508
                                 0.060772  0.009718 -0.025682 -0.092589 -0.117930 -0.016014 -0.257827  0.075236 -0.390390  0.713629
                                -0.203540  0.595319  0.294972  0.037557  0.045073 -0.000373  0.001223 -0.000304 -0.000000 -0.000001
                                -0.000004 -0.000013 -0.000039 -0.000049 -0.000058 -0.000134 -0.000233  0.000436 -0.001853  0.007749
                                -0.020740  0.020924 -0.006372 -0.002144 -0.001502 -0.001130 -0.000025 -0.000011 -0.000973  0.002277
                                -0.002476  0.005264 -0.003292  0.003390 -0.000219 -0.000094 -0.000141 -0.000008 -0.000710 -0.000070
                                -0.000136 -0.000044  0.000517  0.001151  0.000730 -0.000346 -0.000224

   5.2   0     0.0114   -5.7588 -0.000000 -0.000001 -0.000004 -0.000013 -0.000048 -0.000161 -0.000523 -0.001416 -0.003476 -0.005810
                                -0.008621  0.035572 -0.057817  0.126789 -0.291424  0.586680 -0.638711  0.614570 -1.379229  1.808019
                                -1.072197  0.336186 -0.613635  0.538805 -0.121935  0.400404 -0.121867  0.902150  0.000003  0.000024
                                 0.000140  0.000555  0.001643  0.003610 -0.000035  0.005225  0.004853  0.000052 -0.003619 -0.001530
                                -0.036803  0.038564 -0.033351 -0.026437 -0.007438 -0.036668 -0.014533 -0.088065 -0.000419  0.000306
                                -0.002203  0.002211 -0.000964  0.005881  0.008492  0.003897  0.000095 -0.000091  0.000442 -0.000334
                                 0.000478 -0.000394  0.000482  0.002417 -0.019958 -0.000005  0.002259

   6.2   0     0.0400   -6.0290  0.000000  0.000001  0.000002  0.000008  0.000026  0.000099  0.000277  0.000888  0.001745  0.004217
                                 0.000465  0.072962 -0.121854  0.223459 -0.611666  1.156765 -1.343309  1.243283 -2.860504  3.829989
                                -2.203941  0.895880 -1.096034  1.102742 -0.422588  0.277290 -0.939138  0.884082 -0.000011 -0.000090
                                -0.000562 -0.002102 -0.006743 -0.008317 -0.007230 -0.016448 -0.026424  0.049548 -0.312993  0.951572
                                -2.702117  2.531461 -0.430515  0.362101 -0.250282  0.351342 -0.281800  0.863856  0.000369 -0.000169
                                 0.000192 -0.001263 -0.003447 -0.003235 -0.017351 -0.002610 -0.000090  0.000349 -0.000545  0.001094
                                 0.001129  0.000883  0.001270  0.006151  0.016662  0.000119 -0.005554

                                   1 2py     1 2py     1 2py     1 2py     1 2py     1 2py     1 2py     1 2py     1 2py     1 2py  
                                   1 2py     1 2py     1 2py     1 2py     1 2py     1 2py     1 2py     1 2py     1 2py     1 2py  
                                   1 2py     1 2py     1 2py     1 2py     1 2py     1 2py     1 2py     1 2py     1 3d1-    1 3d1- 
                                   1 3d1-    1 3d1-    1 3d1-    1 3d1-    1 3d1-    1 3d1-    1 3d1-    1 3d1-    1 3d1-    1 3d1- 
                                   1 3d1-    1 3d1-    1 3d1-    1 3d1-    1 3d1-    1 3d1-    1 3d1-    1 3d1-    1 4f1-    1 4f3- 
                                   1 4f1-    1 4f3-    1 4f1-    1 4f3-    1 4f1-    1 4f3-    1 5g1-    1 5g3-    1 5g1-    1 5g3- 
                                   1 5g1-    1 5g3-    2 2py     2 2py     2 2py     2 3d1-    2 3d1- 

   1.3   2   -84.3565 -284.1932  0.000014  0.000054  0.000210  0.000776  0.002803  0.009566  0.029702  0.080894  0.181360  0.307736
                                 0.343368  0.167549  0.035651 -0.004513  0.086126 -0.112487  0.094198 -0.051937  0.061324 -0.059670
                                 0.022488 -0.004454  0.001778 -0.001220  0.000123 -0.000028  0.000009 -0.000003  0.000000  0.000000
                                 0.000000  0.000003  0.000016  0.000024 -0.000003  0.000009 -0.000000 -0.000002  0.000004 -0.000014
                                 0.000039 -0.000036  0.000007 -0.000001 -0.000000  0.000000 -0.000000  0.000000  0.000005  0.000009
                                 0.000001  0.000002 -0.000000  0.000001  0.000000 -0.000000  0.000001 -0.000000 -0.000000 -0.000000
                                 0.000000 -0.000000 -0.000000  0.000001  0.000001  0.000000 -0.000001

   2.3   2   -13.1972  -93.4151 -0.000006 -0.000023 -0.000090 -0.000333 -0.001207 -0.004151 -0.013039 -0.036481 -0.084875 -0.152446
                                -0.171662 -0.014178  0.012438  0.284517  0.034059  0.431027  0.031039  0.290442 -0.052724  0.123182
                                -0.037731  0.011429 -0.004023  0.002899 -0.000335  0.000076 -0.000027  0.000007  0.000000  0.000001
                                 0.000008  0.000030  0.000081  0.000200  0.000008  0.000366  0.000363  0.000213 -0.000062  0.000153
                                -0.000290  0.000239 -0.000035 -0.000019 -0.000005  0.000007 -0.000000  0.000000  0.000068  0.000055
                                -0.000074 -0.000120 -0.000006  0.000013  0.000001 -0.000008  0.000004  0.000000 -0.000027  0.000001
                                 0.000005  0.000000 -0.000002  0.000009 -0.000006 -0.000008 -0.000008

   3.3   2    -7.4132  -83.0245  0.000000  0.000000  0.000000  0.000000  0.000001  0.000004  0.000012  0.000035  0.000081  0.000145
                                 0.000159  0.000013 -0.000016 -0.000240 -0.000093 -0.000321 -0.000232 -0.000203 -0.000163  0.000235
                                -0.000138  0.000011  0.000066 -0.000083  0.000028  0.000053 -0.000004  0.000001  0.000165  0.001477
                                 0.008684  0.034268  0.100311  0.220790 -0.003556  0.327294  0.332169  0.203956 -0.036682  0.112309
                                -0.110012  0.079794 -0.005148  0.000504 -0.000250  0.000085 -0.000010  0.000002  0.000286  0.000000
                                -0.000294  0.000001  0.000085  0.000000  0.000002  0.000000  0.000039  0.000012 -0.000012 -0.000042
                                 0.000020  0.000007  0.000006 -0.000003 -0.000088 -0.000025 -0.000003

   4.3   2    -1.5146  -33.5551  0.000002  0.000008  0.000031  0.000116  0.000420  0.001450  0.004555  0.012819  0.029945  0.054508
                                 0.060772  0.009718 -0.025682 -0.092589 -0.117930 -0.016014 -0.257827  0.075236 -0.390390  0.713629
                                -0.203540  0.595319  0.294972  0.037557  0.045073 -0.000373  0.001223 -0.000304 -0.000000 -0.000001
                                -0.000004 -0.000013 -0.000039 -0.000049 -0.000058 -0.000134 -0.000233  0.000436 -0.001853  0.007749
                                -0.020740  0.020924 -0.006372 -0.002144 -0.001502 -0.001130 -0.000025 -0.000011 -0.000973 -0.002277
                                -0.002476 -0.005264 -0.003292 -0.003390 -0.000219  0.000094 -0.000141  0.000008 -0.000710  0.000070
                                -0.000136  0.000044  0.000517  0.001151  0.000730 -0.000346 -0.000224

   5.3   0     0.0114   -5.7588 -0.000000 -0.000001 -0.000004 -0.000013 -0.000048 -0.000161 -0.000523 -0.001416 -0.003476 -0.005810
                                -0.008621  0.035572 -0.057817  0.126789 -0.291424  0.586680 -0.638711  0.614570 -1.379230  1.808020
                                -1.072197  0.336187 -0.613635  0.538805 -0.121935  0.400404 -0.121867  0.902150  0.000003  0.000024
                                 0.000140  0.000555  0.001643  0.003610 -0.000035  0.005225  0.004853  0.000052 -0.003619 -0.001530
                                -0.036803  0.038564 -0.033351 -0.026437 -0.007438 -0.036668 -0.014533 -0.088065 -0.000419 -0.000306
                                -0.002203 -0.002211 -0.000964 -0.005881  0.008492 -0.003897  0.000095  0.000091  0.000442  0.000334
                                 0.000478  0.000394  0.000482  0.002417 -0.019958 -0.000005  0.002259

   6.3   0     0.0400   -6.0290  0.000000  0.000001  0.000002  0.000008  0.000026  0.000099  0.000277  0.000888  0.001745  0.004217
                                 0.000465  0.072962 -0.121854  0.223459 -0.611667  1.156766 -1.343309  1.243284 -2.860505  3.829990
                                -2.203941  0.895880 -1.096034  1.102743 -0.422588  0.277290 -0.939138  0.884082 -0.000011 -0.000090
                                -0.000562 -0.002102 -0.006743 -0.008317 -0.007230 -0.016448 -0.026424  0.049548 -0.312993  0.951572
                                -2.702117  2.531461 -0.430515  0.362101 -0.250282  0.351342 -0.281800  0.863856  0.000369  0.000169
                                 0.000192  0.001263 -0.003447  0.003235 -0.017351  0.002610 -0.000090 -0.000349 -0.000545 -0.001094
                                 0.001129 -0.000883  0.001270  0.006151  0.016662  0.000119 -0.005554

                                   1 3d2-    1 3d2-    1 3d2-    1 3d2-    1 3d2-    1 3d2-    1 3d2-    1 3d2-    1 3d2-    1 3d2- 
                                   1 3d2-    1 3d2-    1 3d2-    1 3d2-    1 3d2-    1 3d2-    1 3d2-    1 3d2-    1 3d2-    1 3d2- 
                                   1 4f2-    1 4f2-    1 4f2-    1 4f2-    1 5g2-    1 5g4-    1 5g2-    1 5g4-    1 5g2-    1 5g4- 
                                   2 3d2-    2 3d2- 

   1.4   2    -7.4138  -83.0235  0.000165  0.001477  0.008684  0.034268  0.100312  0.220772 -0.003536  0.327279  0.332223  0.204055
                                -0.036763  0.112041 -0.109167  0.078907 -0.004995  0.000537 -0.000243  0.000036 -0.000011  0.000002
                                 0.000155 -0.000089  0.000029 -0.000009  0.000046  0.000000 -0.000039 -0.000000  0.000010  0.000000
                                 0.000003 -0.000010

   2.4   0     0.0423   -4.7722 -0.000008 -0.000061 -0.000412 -0.001428 -0.005100 -0.000289 -0.012284 -0.007845 -0.026028  0.083395
                                -0.539298  1.592006 -4.673482  4.392611 -0.849239  0.493099 -0.424478  0.444003 -0.479776  1.160861
                                 0.000078 -0.000870 -0.001498 -0.010490 -0.000064 -0.000000 -0.000065 -0.000000  0.000974 -0.000000
                                 0.000242 -0.001075

   3.4   0     0.0766  -14.1193 -0.000025 -0.000237 -0.001320 -0.005554 -0.015020 -0.050863  0.020627 -0.061374 -0.026211 -0.136914
                                 0.933278 -2.581674  8.163448 -7.732579  1.876129 -0.402569  0.776165 -0.224500  0.916619 -0.723485
                                 0.000110 -0.002186 -0.008201 -0.019288 -0.000204 -0.000000  0.000054 -0.000000  0.001815 -0.000000
                                 0.000567 -0.001651

 HOMO     12.1    -0.320711 =      -8.7270eV
 LUMO     13.1     0.010435 =       0.2840eV
 LUMO-HOMO         0.331146 =       9.0109eV


 **********************************************************************************************************************************
 DATASETS  * FILE   NREC   LENGTH (MB)   RECORD NAMES
              1      22       21.76       500      610      700      900      950      970     1000      129      960     1700   
                                          VAR    BASINP    GEOM    SYMINP    ZMAT    AOBASIS   BASIS     P2S    ABASIS    OPER   
                                         1101     1401     1411     1412     1650     1100     1400     1410     1200     1210   
                                          SR      EKINR    POTR     PVPR    MOLCAS      S      EKIN      POT      H0       H01  
                                         1080     1600   
                                         AOSYM     SMH  

              2       4        3.56       700     1000      520     2100   
                                         GEOM     BASIS   MCVARS     RHF  

 PROGRAMS   *        TOTAL       RHF       INT
 CPU TIMES  *        61.58      2.76     58.52
 REAL TIME  *        63.88 SEC
 DISK USED  *         3.00 GB      
 SF USED    *         0.11 MB      
 GA USED    *         0.00 MB       (max)       0.00 MB       (current)
 **********************************************************************************************************************************
 SETTING SCF            =     -3596.78251678  AU                              
 SETTING _CC_NORM_MAX   =         2.00000000                                  


 PROGRAM * CCSD (Restricted open-shell coupled cluster)     Authors: C. Hampel, H.-J. Werner, 1991, M. Deegan, P.J. Knowles, 1992


 Convergence thresholds:  THRVAR = 1.00D-08  THRDEN = 1.00D-06

 CCSD(T)     terms to be evaluated (factor= 1.000)


 Number of closed-shell orbitals:  20 (  11   4   4   1 )
 Number of active  orbitals:        1 (   1   0   0   0 )
 Number of external orbitals:     274 ( 117  63  63  31 )

 Memory could be reduced to 193.38 Mwords without degradation in triples

 Number of N-1 electron functions:              41
 Number of N-2 electron functions:             820
 Number of singly external CSFs:              3784
 Number of doubly external CSFs:          12291180
 Total number of CSFs:                    12294964

 Molecular orbitals read from record     2100.2  Type=RHF/CANONICAL (state 1.1)

 Integral transformation finished. Total CPU:   5.68 sec, npass=  1  Memory used:  20.64 MW

 Starting RMP2 calculation

 Wavefunction is spin-projected

 ITER.      SQ.NORM     CORR.ENERGY   TOTAL ENERGY   ENERGY CHANGE        DEN1      VAR(S)    VAR(P)  DIIS     TIME
   1      1.12417550    -1.19228029 -3597.97479707    -1.19228029    -0.00677399  0.41D-04  0.34D-02  1  1     7.40
   2      1.13533908    -1.20005933 -3597.98257612    -0.00777904    -0.00031129  0.36D-05  0.26D-03  2  2     9.08
   3      1.13934765    -1.20152582 -3597.98404261    -0.00146649    -0.00001383  0.14D-06  0.12D-04  3  3    10.88
   4      1.14011364    -1.20168183 -3597.98419862    -0.00015601    -0.00000043  0.20D-08  0.36D-06  4  4    12.77
   5      1.14017573    -1.20169112 -3597.98420790    -0.00000929    -0.00000001  0.64D-10  0.11D-07  5  5    14.74
   6      1.14017899    -1.20169134 -3597.98420812    -0.00000022    -0.00000000  0.38D-11  0.39D-09  6  6    16.88

 Norm of t1 vector:      0.03041008      S-energy:    -0.00210387      T1 diagnostic:  0.00002359
 Norm of t2 vector:      0.37316781      P-energy:    -1.19958746
                                         Alpha-Beta:  -0.83277731
                                         Alpha-Alpha: -0.18988072
                                         Beta-Beta:   -0.17692943

 Spin contamination <S**2-Sz**2-Sz>     0.00000000
  Reference energy                  -3596.782516784727
  RHF-RMP2 correlation energy          -1.201691336249
 !RHF-RMP2 energy                   -3597.984208120976
 (NB above energy spin projected)

 Starting RCCSD calculation

 ITER.      SQ.NORM     CORR.ENERGY   TOTAL ENERGY   ENERGY CHANGE        DEN1      VAR(S)    VAR(P)  DIIS     TIME
   1      1.12331346    -1.15099081 -3597.93350760    -1.15099081    -0.01930702  0.12D-02  0.46D-02  0  0    33.71
   2      1.14126570    -1.16863542 -3597.95115220    -0.01764460    -0.00246170  0.45D-03  0.12D-02  1  1    50.59
   3      1.15245672    -1.17200489 -3597.95452168    -0.00336947    -0.00086548  0.25D-03  0.47D-03  2  2    66.14
   4      1.16853990    -1.17623365 -3597.95875044    -0.00422876    -0.00019076  0.81D-04  0.89D-04  3  3    81.86
   5      1.17950550    -1.17748754 -3597.96000433    -0.00125389    -0.00003585  0.20D-04  0.13D-04  4  4    98.02
   6      1.18365937    -1.17783957 -3597.96035636    -0.00035203    -0.00001102  0.69D-05  0.40D-05  5  5   114.47
   7      1.18534398    -1.17794967 -3597.96046646    -0.00011010    -0.00000444  0.29D-05  0.16D-05  6  6   130.81
   8      1.18618730    -1.17797470 -3597.96049149    -0.00002503    -0.00000158  0.12D-05  0.47D-06  7  7   146.95
   9      1.18659215    -1.17798634 -3597.96050312    -0.00001163    -0.00000075  0.61D-06  0.19D-06  8  8   164.37
  10      1.18679744    -1.17798820 -3597.96050498    -0.00000186    -0.00000037  0.30D-06  0.10D-06  9  9   186.35
  11      1.18691908    -1.17798791 -3597.96050469     0.00000029    -0.00000021  0.15D-06  0.71D-07 10 10   203.91
  12      1.18698254    -1.17798734 -3597.96050412     0.00000057    -0.00000013  0.85D-07  0.49D-07 11 11   223.35
  13      1.18704272    -1.17798741 -3597.96050420    -0.00000008    -0.00000007  0.41D-07  0.30D-07 12 12   241.97
  14      1.18707665    -1.17798725 -3597.96050404     0.00000016    -0.00000004  0.23D-07  0.20D-07 13 13   263.70
  15      1.18709151    -1.17798728 -3597.96050407    -0.00000003    -0.00000003  0.15D-07  0.14D-07 14 14   281.67
  16      1.18711591    -1.17798731 -3597.96050409    -0.00000002    -0.00000001  0.63D-08  0.68D-08 15 15   301.33
  17      1.18712468    -1.17798735 -3597.96050414    -0.00000005    -0.00000001  0.40D-08  0.48D-08 15  1   329.95

 Norm of t1 vector:      0.13319574      S-energy:    -0.00229943      T1 diagnostic:  0.01379200
                                                                       D1 diagnostic:  0.07762466
 Norm of t2 vector:      0.41156236      P-energy:    -1.17568792
                                         Alpha-Beta:  -0.83661470
                                         Alpha-Alpha: -0.17569490
                                         Beta-Beta:   -0.16337833

 Singles amplitudes (print threshold =  0.500E-01):

         I         SYM. A    A   T(IA) [Alpha-Alpha]

        11         1         2      0.06214727

 Doubles amplitudes (print threshold =  0.500E-01):

         I         J         SYM. A    SYM. B    A         B      T(IJ, AB) [Alpha-Beta]

        11        11         4         4         2         2     -0.05997934

 Spin contamination <S**2-Sz**2-Sz>     0.00000000

 Memory could be reduced to 211.65 Mwords without degradation in triples
 

  Correlated core orbitals:             1.1       2.1       3.1       4.1       5.1       6.1       7.1       8.1       9.1       1.2
                                        2.2       3.2       4.2       1.3       2.3       3.3       4.3       1.4
  Orbital energies:                  -665.1026  -94.8277  -84.3568  -16.7148  -13.1982   -7.4385   -7.4212   -2.5498   -1.5332  -84.3600
                                      -13.1999   -7.4146   -1.5520  -84.3600  -13.1999   -7.4146   -1.5520   -7.4146
 
  RCCSD core-core energy               -0.966704382004
  RCCSD core-valence energy            -0.121542854880
  RCCSD valence correlation energy     -0.089740117591
 

 RESULTS
 =======

  Reference energy                  -3596.782516784727
  RCCSD singles energy                 -0.002299432297
  RCCSD pair energy                    -1.175687922177
  RCCSD correlation energy             -1.177987354474
  Triples (T) contribution             -0.022254082746
  Total correlation energy             -1.200241437220
 
  RHF-RCCSD energy                  -3597.960504139201
  RHF-RCCSD[T] energy               -3597.983521705796
  RHF-RCCSD-T energy                -3597.982610985544
 !RHF-RCCSD(T) energy               -3597.982758221947

 Program statistics:

 Available memory in ccsd:               999996162
 Min. memory needed in ccsd:              34062063
 Max. memory used in ccsd:                49818044
 Max. memory used in cckext:              39674140 (17 integral passes)
 Max. memory used in cckint:              20642706 ( 1 integral passes)



 **********************************************************************************************************************************
 DATASETS  * FILE   NREC   LENGTH (MB)   RECORD NAMES
              1      22       21.76       500      610      700      900      950      970     1000      129      960     1700   
                                          VAR    BASINP    GEOM    SYMINP    ZMAT    AOBASIS   BASIS     P2S    ABASIS    OPER   
                                         1101     1401     1411     1412     1650     1100     1400     1410     1200     1210   
                                          SR      EKINR    POTR     PVPR    MOLCAS      S      EKIN      POT      H0       H01  
                                         1080     1600   
                                         AOSYM     SMH  

              2       4        3.56       700     1000      520     2100   
                                         GEOM     BASIS   MCVARS     RHF  

 PROGRAMS   *        TOTAL  RCCSD(T)       RHF       INT
 CPU TIMES  *       686.09    624.50      2.76     58.52
 REAL TIME  *      1125.04 SEC
 DISK USED  *        45.90 GB      
 SF USED    *         4.02 GB      
 GA USED    *         0.00 MB       (max)       0.00 MB       (current)
 **********************************************************************************************************************************
 SETTING CCSD           =     -3597.98275822  AU                              
 SETTING BIND           =        -0.08927037  AU                              
 Output type csv         
                                                                                                                                                                                                                                                                

  1.70,SCF,CCSD,BIND
   1.7,   -3596.782517,   -3597.982758,   -0.08927037
                                                  

 RCCSD(T)/USERDEF energy=  -3597.982758221947

        RCCSD(T)        RHF-SCF 
  -3597.98275822  -3596.78251678
 **********************************************************************************************************************************
 Molpro calculation terminated
 Variable memory released
