<?xml version="1.0"?>
<molpro xmlns="http://www.molpro.net/schema/molpro-output"
  xmlns:xsd="http://www.w3.org/1999/XMLSchema"
  xmlns:cml="http://www.xml-cml.org/schema"
  xmlns:stm="http://www.xml-cml.org/schema"
  xmlns:xhtml="http://www.w3.org/1999/xhtml">
 <!--

 Nodes     nprocs
 nid01405    11
 Number of processes for MPI-2 version of Molpro:   nprocs(total)=   12   nprocs(compute)=   11   nprocs(helper)=    1

 Using customized tuning parameters: mindgm=7; mindgv=16; mindgc=1; mindgr=1; noblas=0; minvec=7
 default implementation of scratch files=sf

 --><job>
  <!--

 Variables initialized (889), CPU time= 0.01 sec
 Commands  initialized (702), CPU time= 0.01 sec, 572 directives.
 Default parameters read. Elapsed time= 0.14 sec

 Checking input...
 Passed
1


                                         ***  PROGRAM SYSTEM MOLPRO  ***
                                       Copyright, TTI GmbH Stuttgart, 2015
                                    Version 2015.1 linked Dec 29 2018 15:55:43


 **********************************************************************************************************************************
 LABEL *   Calculation for GdO, singlet and triplet
  64 bit mpp version                                                                     DATE: 22-Nov-22          TIME: 10:45:17
 **********************************************************************************************************************************

 SHA1:             19cd028119e0e09f93f0674bd8af7968d9b3eff6
 **********************************************************************************************************************************
  -->
  <!--

 THRESHOLDS:

 ZERO    =  1.00D-12  ONEINT  =  1.00D-12  TWOINT  =  1.00D-15  PREFAC  =  1.00D-14  LOCALI  =  1.00D-09  EORDER  =  1.00D-04
 ENERGY  =  0.00D+00  ETEST   =  0.00D+00  EDENS   =  0.00D+00  THRDEDEF=  1.00D-06  GRADIENT=  1.00D-02  STEP    =  1.00D-03
 ORBITAL =  1.00D-05  CIVEC   =  1.00D-05  COEFF   =  1.00D-04  PRINTCI =  5.00D-02  PUNCHCI =  9.90D+01  OPTGRAD =  3.00D-04
 OPTENERG=  1.00D-06  OPTSTEP =  3.00D-04  THRGRAD =  1.00D-10  COMPRESS=  1.00D-11  VARMIN  =  1.00D-07  VARMAX  =  1.00D-03
 THRDOUB =  0.00D+00  THRDIV  =  1.00D-05  THRRED  =  1.00D-07  THRPSP  =  1.00D+00  THRDC   =  1.00D-10  THRCS   =  1.00D-10
 THRNRM  =  1.00D-08  THREQ   =  0.00D+00  THRDE   =  1.00D+00  THRREF  =  1.00D-05  SPARFAC =  1.00D+00  THRDLP  =  1.00D-07
 THRDIA  =  1.00D-10  THRDLS  =  1.00D-07  THRGPS  =  0.00D+00  THRKEX  =  0.00D+00  THRDIS  =  2.00D-01  THRVAR  =  1.00D-10
 THRLOC  =  1.00D-06  THRGAP  =  1.00D-06  THRLOCT = -1.00D+00  THRGAPT = -1.00D+00  THRORB  =  1.00D-06  THRMLTP =  0.00D+00
 THRCPQCI=  1.00D-10  KEXTA   =  0.00D+00  THRCOARS=  0.00D+00  SYMTOL  =  1.00D-06  GRADTOL =  1.00D-06  THROVL  =  1.00D-08
 THRORTH =  1.00D-08  GRID    =  1.00D-06  GRIDMAX =  1.00D-03  DTMAX   =  0.00D+00  THROCCDE=  1.00D-01  THROCCDE=  1.00D-01



 THRESHOLDS:

 ZERO    =  1.00D-12  ONEINT  =  1.00D-12  TWOINT  =  1.00D-15  PREFAC  =  1.00D-14  LOCALI  =  1.00D-09  EORDER  =  1.00D-04
 ENERGY  =  0.00D+00  ETEST   =  0.00D+00  EDENS   =  0.00D+00  THRDEDEF=  1.00D-06  GRADIENT=  1.00D-02  STEP    =  1.00D-03
 ORBITAL =  1.00D-05  CIVEC   =  1.00D-05  COEFF   =  1.00D-04  PRINTCI =  5.00D-02  PUNCHCI =  9.90D+01  OPTGRAD =  3.00D-04
 OPTENERG=  1.00D-06  OPTSTEP =  3.00D-04  THRGRAD =  1.00D-10  COMPRESS=  1.00D-11  VARMIN  =  1.00D-07  VARMAX  =  1.00D-03
 THRDOUB =  0.00D+00  THRDIV  =  1.00D-05  THRRED  =  1.00D-07  THRPSP  =  1.00D+00  THRDC   =  1.00D-10  THRCS   =  1.00D-10
 THRNRM  =  1.00D-08  THREQ   =  0.00D+00  THRDE   =  1.00D+00  THRREF  =  1.00D-05  SPARFAC =  1.00D+00  THRDLP  =  1.00D-07
 THRDIA  =  1.00D-10  THRDLS  =  1.00D-07  THRGPS  =  0.00D+00  THRKEX  =  0.00D+00  THRDIS  =  2.00D-01  THRVAR  =  1.00D-10
 THRLOC  =  1.00D-06  THRGAP  =  1.00D-06  THRLOCT = -1.00D+00  THRGAPT = -1.00D+00  THRORB  =  1.00D-06  THRMLTP =  0.00D+00
 THRCPQCI=  1.00D-10  KEXTA   =  0.00D+00  THRCOARS=  0.00D+00  SYMTOL  =  1.00D-06  GRADTOL =  1.00D-06  THROVL  =  1.00D-15
 THRORTH =  1.00D-08  GRID    =  1.00D-06  GRIDMAX =  1.00D-03  DTMAX   =  0.00D+00  THROCCDE=  1.00D-01  THROCCDE=  1.00D-01



 Variable memory set to 1000000000 words,  buffer space   230000 words

 SETTING BASIS          =    USERDEF
 SETTING GD_CCSD        =      -109.29937150
 SETTING O_CCSD         =       -15.86622096
 SETTING NE             =        24.00000000
 SETTING SYMM           =         4.00000000
 SETTING SS             =         8.00000000
 SETTING A1             =         7.00000000
 SETTING B1             =         4.00000000
 SETTING B2             =         4.00000000
 SETTING A2             =         1.00000000

Geometry recognized as XYZ

  --><jobstep command="RHF-SCF" commandset="SCFPRO">
   <!--


 Recomputing integrals since basis changed


 Using spherical harmonics



 PROGRAM * SEWARD (Integral evaluation for generally contracted gaussian basis sets)     Author: Roland Lindh, 1990

 Geometry written to block  1 of record 700


 Point group  C2v


   --><cml:molecule>
    <cml:symmetry pointGroup="C2v"/>
    <cml:atomArray>
     <cml:atom id="a1" elementType="Gd" x3="0.0" y3="0.0" z3="0.0"/>
     <cml:atom id="a2" elementType="O" x3="0.0" y3="0.0" z3="1.1"/>
    </cml:atomArray>
    <cml:bondArray>
     <cml:bond atomRefs2="a1 a2"/>
    </cml:bondArray>
   </cml:molecule><!--

 ATOMIC COORDINATES

 NR  ATOM    CHARGE       X              Y              Z

   1  GD     18.00    0.000000000    0.000000000    0.000000000
   2  O       6.00    0.000000000    0.000000000    2.078698737

 Bond lengths in Bohr (Angstrom)

 1-2  2.078698737
     ( 1.100000000)

 NUCLEAR CHARGE:                   24
 NUMBER OF PRIMITIVE AOS:         673
 NUMBER OF SYMMETRY AOS:          515
 NUMBER OF CONTRACTIONS:          515   ( 203A1  + 123B1  + 123B2  +  66A2  )
 NUMBER OF CORE ORBITALS:           0   (   0A1  +   0B1  +   0B2  +   0A2  )
 NUMBER OF VALENCE ORBITALS:       21   (   9A1  +   5B1  +   5B2  +   2A2  )


 NUCLEAR REPULSION ENERGY   51.95558071

 EXTRA SYMMETRY OF AOS IN SYMMETRY 1:   1 1 1 1 1 1 1 1 1 1   1 1 1 1 1 1 1 1 1 1   1 1 1 1 1 1 1 1 1 1   1 1 1 1 1 1 1 1 1 1
                                        1 1 1 1 1 1 1 1 1 1   1 1 1 1 1 1 1 1 1 1   1 1 1 2 1 2 1 2 1 2   1 2 1 2 1 2 1 2 1 2
                                        1 2 1 2 1 2 1 2 1 2   1 2 1 2 1 2 1 2 1 2   1 2 1 2 1 2 1 2 1 2   1 2 1 2 1 2 1 2 1 2
                                        1 2 1 2 1 2 1 2 1 2   1 2 1 2 1 3 2 1 3 2   1 3 2 1 3 2 1 3 2 1   3 2 1 3 2 1 3 2 1 3
                                        2 2 3 1 2 3 1 2 3 1   1 1 1 1 1 1 1 1 1 1   1 1 1 1 1 1 1 1 1 1   1 1 2 1 2 1 2 1 2 1
                                        2 1 2
 EXTRA SYMMETRY OF AOS IN SYMMETRY 2:   1 1 1 1 1 1 1 1 1 1   1 1 1 1 1 1 1 1 1 1   1 1 1 1 1 1 1 1 1 1   1 1 1 1 1 1 1 1 1 1
                                        1 1 1 1 1 1 1 1 1 1   1 1 1 2 1 2 1 2 1 2   1 2 1 2 1 2 1 2 1 2   1 2 1 2 1 2 1 2 1 2
                                        1 2 1 2 1 2 1 2 1 2   1 2 1 2 1 2 1 2 1 2   3 1 2 3 1 2 3 1 1 1   1 1 1 1 1 1 1 1 1 1
                                        2 1 2
 EXTRA SYMMETRY OF AOS IN SYMMETRY 3:   1 1 1 1 1 1 1 1 1 1   1 1 1 1 1 1 1 1 1 1   1 1 1 1 1 1 1 1 1 1   1 1 1 1 1 1 1 1 1 1
                                        1 1 1 1 1 1 1 1 1 1   1 1 1 2 1 2 1 2 1 2   1 2 1 2 1 2 1 2 1 2   1 2 1 2 1 2 1 2 1 2
                                        1 2 1 2 1 2 1 2 1 2   1 2 1 2 1 2 1 2 1 2   3 1 2 3 1 2 3 1 1 1   1 1 1 1 1 1 1 1 1 1
                                        2 1 2
 EXTRA SYMMETRY OF AOS IN SYMMETRY 4:   1 1 1 1 1 1 1 1 1 1   1 1 1 1 1 1 1 1 1 1   1 1 1 1 1 1 1 1 1 1   1 1 1 1 1 1 1 2 1 2
                                        1 2 1 2 1 2 1 2 1 2   1 2 1 2 2 1 2 1 2 1   1 1 1 1 1 1

 Eigenvalues of metric

         1 0.100E-06 0.213E-06 0.556E-06 0.617E-06 0.717E-06 0.727E-06 0.868E-06 0.112E-05
         2 0.613E-06 0.716E-06 0.434E-05 0.133E-04 0.198E-04 0.232E-04 0.579E-04 0.895E-04
         3 0.613E-06 0.716E-06 0.434E-05 0.133E-04 0.198E-04 0.232E-04 0.579E-04 0.895E-04
         4 0.727E-06 0.238E-04 0.148E-03 0.539E-03 0.816E-03 0.921E-03 0.415E-02 0.842E-02


 Contracted 2-electron integrals neglected if value below      1.0D-15
 AO integral compression algorithm  1   Integral accuracy      1.0D-15

     8748.794 MB (compressed) written to integral file ( 47.1%)

     Node minimum: 597.164 MB, node maximum: 962.068 MB


 NUMBER OF SORTED TWO-ELECTRON INTEGRALS:  203901303.     BUFFER LENGTH:  32768
 NUMBER OF SEGMENTS:   7  SEGMENT LENGTH:   31990770      RECORD LENGTH: 524288

 Memory used in sort:      32.55 MW

 SORT1 READ  2319806290. AND WROTE    94993414. INTEGRALS IN    275 RECORDS. CPU TIME:    42.27 SEC, REAL TIME:    62.29 SEC
 SORT2 READ  1037800907. AND WROTE  2243484243. INTEGRALS IN  33099 RECORDS. CPU TIME:     2.86 SEC, REAL TIME:     5.38 SEC

 Node minimum:   203897834.  Node maximum:   204073967. integrals

 OPERATOR DM      FOR CENTER  0  COORDINATES:    0.000000    0.000000    0.000000


 **********************************************************************************************************************************
 DATASETS  * FILE   NREC   LENGTH (MB)   RECORD NAMES
              1      19       23.11       500      610      700      900      950      970     1000      129      960     1100
                                          VAR    BASINP    GEOM    SYMINP    ZMAT    AOBASIS   BASIS     P2S    ABASIS      S
                                         1400     1410     1420     1200     1210     1080     1600     1650     1700
                                           T        V       ECP      H0       H01     AOSYM     SMH    MOLCAS    OPER

 PROGRAMS   *        TOTAL       INT
 CPU TIMES  *       159.03    158.75
 REAL TIME  *       183.69 SEC
 DISK USED  *        21.10 GB
 GA USED    *         0.00 MB       (max)       0.00 MB       (current)
 **********************************************************************************************************************************


 PROGRAM * RHF-SCF (OPEN SHELL)       Authors: W. Meyer, H.-J. Werner


 NUMBER OF ELECTRONS:      16+    8-    SPACE SYMMETRY=4    SPIN SYMMETRY: Nonet
 CONVERGENCE THRESHOLDS:    1.00E-05 (Density)    1.00E-07 (Energy)
 MAX. NUMBER OF ITERATIONS:      200
 INTERPOLATION TYPE:            DIIS
 INTERPOLATION STEPS:              2 (START)      1 (STEP)
 LEVEL SHIFTS:                 -0.60 (CLOSED) -0.30 (OPEN)

 Number of closed-shell orbitals:    8 (   4   2   2   0 )
 Number of open-shell orbitals:      8 (   3   2   2   1 )


 Guess basis ATOMIC-GUESS,GD=ECP46_GUESS,O=ECP2_GUESS not found. No density guess!


 Molecular orbital dump at record        2100.2

 ITERATION    DDIFF          GRAD             ENERGY        2-EL.EN.            DIPOLE MOMENTS         DIIS   ORB.
    1      0.000D+00      0.000D+00       -70.90843758    517.751541    0.00000    0.00000    3.66752    0    start
    2      0.000D+00      0.212D+00       -17.71566830     43.394886    0.00000    0.00000  -58.96151    0    diag,B
    3      0.129D+02      0.588D-01       -66.78022543    521.848047    0.00000    0.00000    8.26085    1    diag,B
    4      0.129D+02      0.216D+00       -77.43126824    500.359431    0.00000    0.00000    6.96150    2    diag,B
    5      0.127D+00      0.191D+00       -84.11152436    485.205453    0.00000    0.00000    6.24552    3    diag,B
    6      0.417D-01      0.173D+00       -85.68971805    481.551882    0.00000    0.00000    6.00551    4    diag,B
    7      0.619D-02      0.169D+00       -86.01789197    480.586560    0.00000    0.00000    6.04001    5    diag,B
    8      0.261D-02      0.168D+00       -86.45049469    479.546616    0.00000    0.00000    5.98123    6    diag,B
    9      0.360D-02      0.167D+00       -86.44836957    479.551108    0.00000    0.00000    5.98139    7    diag,B
   10      0.575D-04      0.167D+00       -86.43057275    479.567304    0.00000    0.00000    6.00881    8    orth
   11      0.135D-02      0.167D+00       -86.61699387    479.136302    0.00000    0.00000    5.97317    9    diag,B
   12      0.248D-02      0.166D+00       -86.43831787    479.719282    0.00000    0.00000    5.93875    9    diag,B
   13      0.212D-02      0.167D+00       -88.19917764    475.431450    0.00000    0.00000    5.73720    9    diag,B
   14      0.835D-02      0.161D+00       -89.32290697    472.392488    0.00000    0.00000    5.70358    9    diag,B
   15      0.687D-02      0.158D+00       -89.36553441    472.303048    0.00000    0.00000    5.68861    9    diag,B
   16      0.109D-02      0.158D+00       -88.97108445    473.356351    0.00000    0.00000    5.69094    9    diag,B
   17      0.835D-02      0.159D+00       -91.01482617    467.930511    0.00000    0.00000    5.55620    9    diag,B
   18      0.184D-01      0.153D+00       -90.87006990    468.299023    0.00000    0.00000    5.59043    9    diag,B
   19      0.260D-02      0.153D+00       -90.87680000    468.280204    0.00000    0.00000    5.59454    9    fixocc
   20      0.781D-03      0.153D+00       -90.96011414    468.086082    0.00000    0.00000    5.56290    9    orth
   21      0.647D-02      0.153D+00       -90.75739071    468.704221    0.00000    0.00000    5.53149    9    diag,B
   22      0.524D-02      0.154D+00       -91.76945958    465.942874    0.00000    0.00000    5.46096    9    diag,B
   23      0.106D-01      0.150D+00       -90.77329464    468.604296    0.00000    0.00000    5.52659    9    diag,B
   24      0.646D-02      0.154D+00       -92.04797247    465.212405    0.00000    0.00000    5.43494    9    diag,B
   25      0.125D-01      0.149D+00       -90.41505926    469.471443    0.00000    0.00000    5.59583    9    diag,B
   26      0.141D-01      0.155D+00       -91.94927632    465.297148    0.00000    0.00000    5.54244    9    diag,B
   27      0.177D-01      0.150D+00       -91.69946190    466.127124    0.00000    0.00000    5.47763    9    diag,B
   28      0.653D-02      0.151D+00       -91.03581561    468.008973    0.00000    0.00000    5.45187    9    diag,B
   29      0.209D-01      0.153D+00       -92.42377338    464.190995    0.00000    0.00000    5.38696    9    diag,B
   30      0.137D-01      0.148D+00       -91.93864236    465.502815    0.00000    0.00000    5.47853    9    orth
   31      0.913D-02      0.150D+00       -91.99389326    465.410401    0.00000    0.00000    5.38198    9    diag,B
   32      0.217D-01      0.150D+00       -91.95448066    465.527479    0.00000    0.00000    5.38707    9    diag,B
   33      0.164D-01      0.150D+00       -92.12831641    465.007689    0.00000    0.00000    5.40289    9    diag,B
   34      0.807D-02      0.149D+00       -92.74482503    463.400890    0.00000    0.00000    5.30046    9    diag,B
   35      0.864D-02      0.147D+00       -92.01937050    465.363306    0.00000    0.00000    5.35579    9    diag,B
   36      0.751D-02      0.149D+00       -90.85673901    468.328716    0.00000    0.00000    5.56805    9    diag,B
   37      0.230D-01      0.154D+00       -92.81171471    463.025916    0.00000    0.00000    5.38931    9    diag,B
   38      0.243D-01      0.147D+00       -91.26794920    467.129484    0.00000    0.00000    5.55619    9    diag,B
   39      0.171D-01      0.152D+00       -91.48662203    466.579787    0.00000    0.00000    5.54708    9    diag,B
   40      0.848D-02      0.152D+00       -91.99822454    465.157874    0.00000    0.00000    5.52974    9    orth
   41      0.147D-01      0.150D+00       -90.58928223    468.961831    0.00000    0.00000    5.63244    9    diag,B
   42      0.151D-01      0.154D+00       -91.96011957    465.271070    0.00000    0.00000    5.50210    9    diag,B
   43      0.926D-02      0.150D+00       -92.18433408    464.650477    0.00000    0.00000    5.48682    9    diag,B
   44      0.478D-02      0.150D+00       -91.85168729    465.620048    0.00000    0.00000    5.45325    9    diag,B
   45      0.112D-01      0.151D+00       -90.78977411    468.334635    0.00000    0.00000    5.68792    9    diag,B
   46      0.162D-01      0.154D+00       -91.47648221    466.506412    0.00000    0.00000    5.60714    9    diag,B
   47      0.905D-02      0.151D+00       -90.86358644    468.215247    0.00000    0.00000    5.58719    9    diag,B
   48      0.250D-01      0.154D+00       -92.00145597    465.176883    0.00000    0.00000    5.50259    9    diag,B
   49      0.231D-01      0.150D+00       -91.90412138    465.445867    0.00000    0.00000    5.52360    9    diag,B
   50      0.709D-02      0.150D+00       -90.43836430    469.346514    0.00000    0.00000    5.62463    9    orth
   51      0.351D-01      0.155D+00       -92.13979422    464.807814    0.00000    0.00000    5.47251    9    diag,B
   52      0.240D-01      0.150D+00       -91.71489028    465.963865    0.00000    0.00000    5.52596    9    diag,B
   53      0.993D-02      0.151D+00       -90.62330703    468.838113    0.00000    0.00000    5.61890    9    diag,B
   54      0.314D-01      0.155D+00       -92.20885720    464.592884    0.00000    0.00000    5.47799    9    diag,B
   55      0.216D-01      0.149D+00       -91.84925311    465.627009    0.00000    0.00000    5.47703    9    diag,B
   56      0.531D-02      0.151D+00       -90.82643134    468.283675    0.00000    0.00000    5.61350    9    diag,B
   57      0.163D-01      0.154D+00       -92.04919077    465.025464    0.00000    0.00000    5.48644    9    diag,B
   58      0.261D-01      0.150D+00       -90.73118236    468.631238    0.00000    0.00000    5.58088    9    diag,B
   59      0.984D-02      0.154D+00       -91.24851032    467.216803    0.00000    0.00000    5.54531    9    diag,B
   60      0.143D-01      0.152D+00       -92.67676928    463.335630    0.00000    0.00000    5.41321    9    orth
   61      0.778D-02      0.148D+00       -90.79700775    468.493724    0.00000    0.00000    5.56229    9    diag,B
   62      0.845D-02      0.154D+00       -92.40074315    464.137120    0.00000    0.00000    5.41005    9    diag,B
   63      0.791D-02      0.149D+00       -92.35273218    464.314240    0.00000    0.00000    5.37671    9    diag,B
   64      0.203D-01      0.149D+00       -90.15698572    470.222930    0.00000    0.00000    5.59814    9    diag,B
   65      0.148D-01      0.156D+00       -92.69855406    463.279075    0.00000    0.00000    5.42840    9    diag,B
   66      0.142D-01      0.147D+00       -90.91589867    468.098986    0.00000    0.00000    5.57695    9    diag,B
   67      0.232D-01      0.153D+00       -89.65834115    471.490105    0.00000    0.00000    5.67319    9    diag,B
   68      0.162D-01      0.157D+00       -92.55733440    463.681343    0.00000    0.00000    5.42578    9    diag,B
   69      0.923D-02      0.148D+00       -91.08348677    467.656167    0.00000    0.00000    5.56056    9    diag,B
   70      0.124D-01      0.153D+00       -91.84981757    465.601826    0.00000    0.00000    5.49703    9    orth
   71      0.108D-01      0.151D+00       -92.79608287    462.973267    0.00000    0.00000    5.42018    9    diag,B
   72      0.761D-02      0.147D+00       -90.37489588    469.528325    0.00000    0.00000    5.60989    9    diag,B
   73      0.101D-01      0.155D+00       -91.49232795    466.605705    0.00000    0.00000    5.51123    9    diag,B
   74      0.117D-01      0.152D+00       -92.94285388    462.581476    0.00000    0.00000    5.42454    9    diag,B
   75      0.835D-02      0.147D+00       -90.85762569    468.219800    0.00000    0.00000    5.64673    9    diag,B
   76      0.885D-02      0.153D+00       -90.54467569    469.153571    0.00000    0.00000    5.58822    9    diag,B
   77      0.158D-01      0.155D+00       -92.19215753    464.715475    0.00000    0.00000    5.47078    9    diag,B
   78      0.212D-01      0.149D+00       -91.54274218    466.423677    0.00000    0.00000    5.55143    9    diag,B
   79      0.996D-02      0.151D+00       -90.32619613    469.743019    0.00000    0.00000    5.59403    9    diag,B
   80      0.202D-01      0.155D+00       -91.96098496    465.319293    0.00000    0.00000    5.51176    9    orth
   81      0.238D-01      0.150D+00       -91.80803191    465.693699    0.00000    0.00000    5.53163    9    diag,B
   82      0.957D-02      0.150D+00       -90.02527572    470.529606    0.00000    0.00000    5.61961    9    diag,B
   83      0.224D-01      0.156D+00       -91.97904591    465.274678    0.00000    0.00000    5.50830    9    diag,B
   84      0.242D-01      0.150D+00       -92.08531939    464.943907    0.00000    0.00000    5.50476    9    diag,B
   85      0.824D-02      0.149D+00       -89.68911442    471.404528    0.00000    0.00000    5.65131    9    diag,B
   86      0.242D-01      0.157D+00       -91.88946333    465.526500    0.00000    0.00000    5.51284    9    diag,B
   87      0.248D-01      0.150D+00       -92.39754302    464.097092    0.00000    0.00000    5.47031    9    diag,B
   88      0.740D-02      0.148D+00       -89.63015897    471.547941    0.00000    0.00000    5.66257    9    diag,B
   89      0.243D-01      0.157D+00       -91.63336343    466.223321    0.00000    0.00000    5.53731    9    diag,B
   90      0.259D-01      0.151D+00       -92.63993782    463.436037    0.00000    0.00000    5.44203    9    orth
   91      0.760D-02      0.148D+00       -89.69055464    471.378055    0.00000    0.00000    5.66587    9    diag,B
   92      0.230D-01      0.157D+00       -91.35351593    466.975855    0.00000    0.00000    5.56628    9    diag,B
   93      0.265D-01      0.152D+00       -91.51034892    466.577740    0.00000    0.00000    5.49882    9    diag,B
   94      0.334D-01      0.152D+00       -90.42677911    469.515458    0.00000    0.00000    5.55090    9    diag,B
   95      0.155D-01      0.155D+00       -91.67573957    466.157016    0.00000    0.00000    5.50027    9    diag,B
   96      0.202D-01      0.151D+00       -91.44840649    466.705289    0.00000    0.00000    5.52720    9    diag,B
   97      0.353D-01      0.152D+00       -89.88736136    470.935297    0.00000    0.00000    5.59970    9    diag,B
   98      0.157D-01      0.156D+00       -91.36204736    467.014638    0.00000    0.00000    5.52328    9    diag,B
   99      0.222D-01      0.152D+00       -92.00572825    465.217053    0.00000    0.00000    5.46745    9    diag,B
  100      0.287D-01      0.150D+00       -90.14065523    470.259534    0.00000    0.00000    5.58320    9    orth
  101      0.103D-01      0.156D+00       -90.80185353    468.504969    0.00000    0.00000    5.58330    9    diag,B
  102      0.244D-01      0.153D+00       -92.06889587    465.054187    0.00000    0.00000    5.46020    9    diag,B
  103      0.258D-01      0.150D+00       -90.25564595    469.957296    0.00000    0.00000    5.57349    9    diag,B
  104      0.875D-02      0.155D+00       -90.79565482    468.519036    0.00000    0.00000    5.58456    9    diag,B
  105      0.228D-01      0.153D+00       -91.96213120    465.352843    0.00000    0.00000    5.47158    9    diag,B
  106      0.224D-01      0.150D+00       -90.12458371    470.310452    0.00000    0.00000    5.58314    9    diag,B
  107      0.868D-02      0.156D+00       -90.96162848    468.080914    0.00000    0.00000    5.56448    9    diag,B
  108      0.197D-01      0.153D+00       -91.85565488    465.654780    0.00000    0.00000    5.48059    9    diag,B
  109      0.174D-01      0.150D+00       -90.03201117    470.563635    0.00000    0.00000    5.58852    9    diag,B
  110      0.884D-02      0.156D+00       -91.11498742    467.672698    0.00000    0.00000    5.54609    9    orth
  111      0.157D-01      0.153D+00       -91.72009914    466.030696    0.00000    0.00000    5.49311    9    diag,B
  112      0.130D-01      0.151D+00       -89.97362153    470.725295    0.00000    0.00000    5.59103    9    diag,B
  113      0.909D-02      0.156D+00       -91.27490350    467.243581    0.00000    0.00000    5.52752    9    diag,B
  114      0.117D-01      0.152D+00       -91.58852152    466.390162    0.00000    0.00000    5.50618    9    diag,B
  115      0.991D-02      0.151D+00       -89.91075183    470.895874    0.00000    0.00000    5.59495    9    diag,B
  116      0.973D-02      0.156D+00       -91.39563702    466.917846    0.00000    0.00000    5.51316    9    diag,B
  117      0.921D-02      0.152D+00       -91.49707939    466.638311    0.00000    0.00000    5.51507    9    diag,B
  118      0.795D-02      0.152D+00       -89.87441127    470.994369    0.00000    0.00000    5.59773    9    diag,B
  119      0.109D-01      0.156D+00       -91.44702573    466.778131    0.00000    0.00000    5.50607    9    diag,B
  120      0.876D-02      0.152D+00       -91.43821627    466.797643    0.00000    0.00000    5.52004    9    orth
  121      0.692D-02      0.152D+00       -89.87318786    470.999438    0.00000    0.00000    5.59839    9    diag,B
  122      0.126D-01      0.156D+00       -91.44561927    466.781234    0.00000    0.00000    5.50434    9    diag,B
  123      0.987D-02      0.152D+00       -91.39742196    466.908437    0.00000    0.00000    5.52243    9    diag,B
  124      0.650D-02      0.152D+00       -89.89666768    470.938944    0.00000    0.00000    5.59769    9    diag,B
  125      0.144D-01      0.156D+00       -91.41434533    466.865863    0.00000    0.00000    5.50550    9    diag,B
  126      0.113D-01      0.152D+00       -91.36474614    466.998023    0.00000    0.00000    5.52331    9    diag,B
  127      0.643D-02      0.152D+00       -89.93789120    470.831226    0.00000    0.00000    5.59614    9    diag,B
  128      0.158D-01      0.156D+00       -91.36874397    466.990017    0.00000    0.00000    5.50803    9    diag,B
  129      0.124D-01      0.152D+00       -91.33312289    467.085478    0.00000    0.00000    5.52361    9    diag,B
  130      0.660D-02      0.152D+00       -89.99183017    470.689492    0.00000    0.00000    5.59396    9    orth
  131      0.168D-01      0.156D+00       -91.31898167    467.125982    0.00000    0.00000    5.51099    9    diag,B
  132      0.129D-01      0.152D+00       -91.29895660    467.180298    0.00000    0.00000    5.52394    9    diag,B
  133      0.691D-02      0.152D+00       -90.05366461    470.526425    0.00000    0.00000    5.59134    9    diag,B


 ?APPARENTLY NO CONVERGENCE, EXIT AFTER THREE FURTHER ITERATIONS


  134      0.172D-01      0.156D+00       -91.27072221    467.258158    0.00000    0.00000    5.51394    9    diag,B
  135      0.128D-01      0.152D+00       -91.26985940    467.479535    0.00000    0.00000    5.47414    9    orth
     Orbital  1.1 strongly deviates from fixed occupation: 1.11801  (now: 2.00)
     Orbital  2.1 strongly deviates from fixed occupation: 1.51421  (now: 2.00)
     Orbital  3.1 strongly deviates from fixed occupation: 1.11064  (now: 2.00)
     Orbital  4.1 strongly deviates from fixed occupation: 0.66453  (now: 2.00)
     Orbital  5.1 strongly deviates from fixed occupation: 0.38616  (now: 1.00)
     Orbital  6.1 strongly deviates from fixed occupation: 0.34929  (now: 1.00)
     Orbital  7.1 strongly deviates from fixed occupation: 0.44127  (now: 1.00)
     Orbital  1.2 strongly deviates from fixed occupation: 0.83032  (now: 2.00)
     Orbital  2.2 strongly deviates from fixed occupation: 1.15165  (now: 2.00)
     Orbital  3.2 strongly deviates from fixed occupation: 0.51036  (now: 1.00)
     Orbital  4.2 strongly deviates from fixed occupation: 0.49721  (now: 1.00)
     Orbital  1.3 strongly deviates from fixed occupation: 0.82643  (now: 2.00)
     Orbital  2.3 strongly deviates from fixed occupation: 1.14782  (now: 2.00)
     Orbital  3.3 strongly deviates from fixed occupation: 0.51334  (now: 1.00)
     Orbital  4.3 strongly deviates from fixed occupation: 0.49843  (now: 1.00)
     Orbital  1.4 strongly deviates from fixed occupation: 0.57112  (now: 1.00)
     Note:  Use {hf,nitord=N} to fix occupations at iteration N
            Use {gthresh,occdev=1.0} to suppress deviation warnings
  136      0.679D-02      0.153D+00       -75.73836485    277.422625    0.00000    0.00000   -5.30306    0    orth

 Final alpha occupancy:   7   4   4   1
 Final beta  occupancy:   4   2   2   0

 !RHF STATE 1.4 Energy                -75.738364852375
   --><property name="Energy" method="RHF" principal="true" stateSymmetry="4" stateNumber="1"
     value="-75.7383648523746"/><!--
 Nuclear energy                        51.95558071
 One-electron energy                 -266.40525796
 Two-electron energy                  138.71131236
 Virial quotient                       -0.42533235
 !RHF STATE 1.4 Dipole moment           0.00000000     0.00000000    -5.30306241
 Dipole moment /Debye                   0.00000000     0.00000000   -13.47815737
   --><property name="Dipole moment" method="RHF" principal="true" stateSymmetry="4"
     stateNumber="1" value="0.0 0.0 -5.30306241473059"/><!--

 ELECTRON ORBITALS
 =================


   Orb  Occ    Energy  Couls-En    Coefficients

                                   1 1s      1 1s      1 1s      1 1s      1 1s      1 1s      1 1s      1 1s      1 1s      1 1s
                                   1 1s      1 1s      1 1s      1 1s      1 1s      1 1s      1 1s      1 1s      1 1s      1 1s
                                   1 1s      1 1s      1 1s      1 1s      1 1s      1 1s      1 1s      1 1s      1 1s      1 1s
                                   1 1s      1 1s      1 2pz     1 2pz     1 2pz     1 2pz     1 2pz     1 2pz     1 2pz     1 2pz
                                   1 2pz     1 2pz     1 2pz     1 2pz     1 2pz     1 2pz     1 2pz     1 2pz     1 2pz     1 2pz
                                   1 2pz     1 2pz     1 2pz     1 2pz     1 2pz     1 2pz     1 2pz     1 2pz     1 2pz     1 2pz
                                   1 2pz     1 2pz     1 3d0     1 3d2+    1 3d0     1 3d2+    1 3d0     1 3d2+    1 3d0     1 3d2+
                                   1 3d0     1 3d2+    1 3d0     1 3d2+    1 3d0     1 3d2+    1 3d0     1 3d2+    1 3d0     1 3d2+
                                   1 3d0     1 3d2+    1 3d0     1 3d2+    1 3d0     1 3d2+    1 3d0     1 3d2+    1 3d0     1 3d2+
                                   1 3d0     1 3d2+    1 3d0     1 3d2+    1 3d0     1 3d2+    1 3d0     1 3d2+    1 3d0     1 3d2+
                                   1 3d0     1 3d2+    1 3d0     1 3d2+    1 3d0     1 3d2+    1 4f0     1 4f2+    1 4f0     1 4f2+
                                   1 4f0     1 4f2+    1 4f0     1 4f2+    1 4f0     1 4f2+    1 4f0     1 4f2+    1 4f0     1 4f2+
                                   1 4f0     1 4f2+    1 4f0     1 4f2+    1 4f0     1 4f2+    1 4f0     1 4f2+    1 4f0     1 4f2+
                                   1 4f0     1 4f2+    1 4f0     1 4f2+    1 5g0     1 5g4+    1 5g2+    1 5g0     1 5g4+    1 5g2+
                                   1 5g0     1 5g4+    1 5g2+    1 5g0     1 5g4+    1 5g2+    1 5g0     1 5g4+    1 5g2+    1 5g0
                                   1 5g4+    1 5g2+    1 5g0     1 5g4+    1 5g2+    1 5g0     1 5g4+    1 5g2+    1 5g0     1 5g4+
                                   1 5g2+    1 6h2+    1 6h4+    1 6h0     1 6h2+    1 6h4+    1 6h0     1 6h2+    1 6h4+    1 6h0
                                   2 1s      2 1s      2 1s      2 1s      2 1s      2 1s      2 1s      2 1s      2 1s      2 1s
                                   2 1s      2 1s      2 1s      2 2pz     2 2pz     2 2pz     2 2pz     2 2pz     2 2pz     2 2pz
                                   2 2pz     2 3d0     2 3d2+    2 3d0     2 3d2+    2 3d0     2 3d2+    2 3d0     2 3d2+    2 4f0
                                   2 4f2+    2 4f0     2 4f2+

   1.1   2    -1.6284  -13.7873 -0.000000  0.000000 -0.000000  0.000003  0.000014  0.000043  0.000090  0.000195 -0.000073  0.000207
                                -0.002833  0.025339 -0.035413  0.057743  0.266131  0.169687 -0.786278 -0.373064 -0.163284 -0.000006
                                -0.000025 -0.000073 -0.000203  0.002984 -0.024108 -0.289575  0.428518  0.106020  0.247868  0.007926
                                -0.004143  0.001311 -0.000000  0.000000 -0.000000  0.000000 -0.000001  0.000001 -0.000002  0.000005
                                -0.000019  0.000177  0.001919  0.002706  0.023074 -0.003058 -0.028736  0.093156  0.086341 -0.349567
                                -0.075336 -0.000711 -0.002758 -0.017386 -0.009684 -0.007347  0.060922  0.006541  0.048076 -0.022329
                                -0.002699  0.001129 -0.000001 -0.000000  0.000003  0.000000 -0.000011 -0.000000  0.000060  0.000000
                                -0.001129 -0.000001 -0.010839 -0.000013  0.026695  0.000031 -0.010629 -0.000024 -0.030335 -0.000024
                                 0.025241  0.000065  0.002726  0.000003  0.021400  0.000025 -0.034882 -0.000038  0.015463  0.000038
                                 0.036521  0.000096  0.004766  0.000010 -0.103046  0.000001 -0.025240 -0.000002  0.008989  0.000002
                                -0.001478 -0.000001  0.000375  0.000000 -0.000234 -0.000000  0.000001 -0.000000 -0.000006  0.000000
                                 0.000069 -0.000000  0.000690 -0.000007  0.000572 -0.000008  0.001540 -0.000002  0.011294  0.000001
                                 0.000790 -0.000002  0.001076 -0.000005  0.001186 -0.000005 -0.026452  0.000012 -0.010308 -0.000007
                                 0.003618  0.000004 -0.000911 -0.000001  0.000061  0.000001 -0.000000 -0.000150  0.000027 -0.000001
                                 0.000245 -0.000010 -0.000004 -0.000981  0.000090 -0.000007  0.001470  0.000211  0.000004 -0.000109
                                 0.000011 -0.000012 -0.002745  0.000012  0.000011 -0.004961 -0.000006 -0.000004  0.000897  0.000002
                                 0.000001  0.000000  0.000036 -0.000020 -0.000003  0.000080 -0.000013 -0.000010 -0.000024 -0.000653
                                -0.000001  0.000006 -0.000045  0.000277 -0.002163  0.069907 -0.072698  0.280937  0.623817  0.043815
                                 0.644866 -0.107716 -0.119538  0.004125  0.032145  0.145309  0.226148  0.194022 -0.070559  0.006250
                                -0.001043  0.001733  0.000096 -0.023065  0.000142 -0.044731  0.000002  0.000503  0.000010  0.000925
                                -0.000004  0.007358 -0.000020

   2.1   2    -0.6258  -15.4058  0.000000 -0.000000  0.000001 -0.000009 -0.000041 -0.000128 -0.000266 -0.000567  0.000198 -0.000354
                                 0.006750 -0.235350 -0.049671  0.347652  1.352612  0.131106 -1.423469 -0.592472 -0.270691  0.000017
                                 0.000074  0.000218  0.000595 -0.002155  0.346399 -1.555099  0.764002  0.257458  0.408867  0.010564
                                -0.005682  0.002698 -0.000000  0.000000 -0.000000  0.000001 -0.000002  0.000002 -0.000005  0.000015
                                -0.000062  0.000562  0.005985  0.007182 -0.024326  0.087412 -0.209710  0.006144  0.126995 -0.592279
                                -0.055576 -0.002249 -0.008354  0.002454  0.001930 -0.009506  0.342987 -0.003520  0.025223 -0.001968
                                -0.000676  0.001969 -0.000001 -0.000000  0.000005  0.000000 -0.000023 -0.000000  0.000124  0.000000
                                -0.002365 -0.000003 -0.022941 -0.000026  0.043014  0.000074 -0.007936 -0.000047 -0.132568 -0.000034
                                -0.024236  0.000132  0.005744  0.000007  0.044907  0.000053 -0.065876 -0.000094  0.079513 -0.000014
                                 0.145265  0.000183 -0.036569 -0.000001 -0.157706  0.000009 -0.031436 -0.000007  0.016910  0.000004
                                -0.004220 -0.000001  0.000879  0.000001  0.000233 -0.000000 -0.000001 -0.000000  0.000011  0.000000
                                -0.000166 -0.000001 -0.002866 -0.000009 -0.004255  0.000016 -0.014890  0.000038  0.040087  0.000089
                                -0.001377 -0.000016 -0.001204 -0.000045 -0.033703 -0.000016 -0.051454  0.000017 -0.010171 -0.000015
                                 0.005489  0.000008 -0.001532 -0.000003 -0.000066 -0.000004  0.000002 -0.000086 -0.000078  0.000004
                                -0.001245  0.000050  0.000014 -0.003583 -0.000034  0.000055  0.009444 -0.000349  0.000044 -0.004156
                                 0.000001 -0.000008 -0.011132 -0.000032  0.000008 -0.006127  0.000018 -0.000006  0.001648 -0.000006
                                 0.000002  0.000000 -0.000039 -0.000021  0.000003 -0.000097 -0.000165  0.000028  0.000068 -0.000086
                                -0.000000  0.000000 -0.000003  0.000016  0.000045 -0.011601  0.065530 -0.015805 -0.325400 -0.190444
                                 1.000009 -0.016743  0.014480  0.012064  0.104802  0.348434  0.621881  0.459736 -0.136010  0.006679
                                -0.003168  0.013142  0.000042 -0.051875  0.000149 -0.086561  0.000033  0.001342  0.000001  0.003134
                                -0.000031  0.021109 -0.000029

   3.1   2     6.0894   -6.1118  0.000000 -0.000000  0.000000 -0.000001 -0.000005 -0.000016 -0.000035 -0.000079  0.000033 -0.000135
                                 0.001722  0.012492  0.046599 -0.186782 -0.863418  0.004993 -1.038446 -0.488219 -0.186467  0.000002
                                 0.000009  0.000028  0.000081 -0.002920 -0.026583  0.931167  0.741003  0.690654  0.286172  0.007683
                                -0.002615  0.000554 -0.000000  0.000000 -0.000001  0.000003 -0.000004  0.000005 -0.000011  0.000032
                                -0.000133  0.001220  0.013434  0.018985  0.136580  0.179562  0.767366  0.306937  0.103341 -0.152094
                                -0.048335 -0.004939 -0.019427 -0.105461 -0.175673 -0.265038 -0.820792  0.011776  0.053661 -0.033946
                                -0.002945  0.000505  0.000000 -0.000029 -0.000002  0.000152  0.000008 -0.000639 -0.000043  0.003414
                                 0.000817 -0.063597  0.007941 -0.588418 -0.019239  1.260601  0.011039 -0.529260  0.083221 -1.947105
                                 0.023198 -0.270193 -0.001982  0.152446 -0.015718  1.133442  0.025407 -1.735085 -0.037985  1.351458
                                -0.124674  1.295391  0.093881  0.333116 -0.093793 -0.352260  0.016667  0.236732 -0.006693 -0.134354
                                 0.003111  0.047684 -0.001366 -0.019982  0.000392  0.005656 -0.000000  0.000145  0.000002 -0.001040
                                -0.000008  0.002084  0.000629 -0.340232  0.003331 -1.562445  0.004234 -1.631383 -0.051142  1.971071
                                -0.001028  0.477852 -0.003614  1.516304  0.037313 -1.291700 -0.011515  0.718417 -0.002552 -0.489967
                                 0.001884  0.250378 -0.000375 -0.081187 -0.000035 -0.000001 -0.000255  0.000141  0.000003 -0.002029
                                -0.000490 -0.000009  0.003864  0.001703  0.000052 -0.063859 -0.019766 -0.000112  0.165905  0.009685
                                 0.000091  0.154384 -0.001195 -0.000054 -0.150105 -0.001625  0.000026  0.051600  0.000614 -0.000008
                                -0.014938  0.000021  0.000008 -0.000031 -0.001229 -0.000037  0.000137 -0.003681  0.000090 -0.001296
                                 0.000000 -0.000001  0.000006 -0.000035  0.000223 -0.003831 -0.015919 -0.034943  0.155108 -0.323151
                                 0.302402  0.022034  0.008243  0.000034  0.000472 -0.000966 -0.088534  0.143149 -0.047008 -0.000416
                                -0.000014  0.000128 -0.019832  0.024611 -0.376577 -0.024996  0.048732 -0.000078 -0.000340 -0.001744
                                 0.086041  0.001163  0.268665

   4.1   2     6.4888   -3.3277  0.000006 -0.000038  0.000201 -0.003687 -0.016169 -0.050201 -0.106017 -0.235780  0.094752 -0.341526
                                 3.699451 18.725258 40.697482-97.319716********** 64.696363 33.130777 46.659341 12.623784  0.006452
                                 0.029078  0.085787  0.243396 -5.861913-33.318754340.420549 -4.671943-73.146806-18.832606 -0.577095
                                 0.202582 -0.043638 -0.000001  0.000004 -0.000018  0.000053 -0.000071  0.000093 -0.000202  0.000580
                                -0.002381  0.022029  0.245937  0.359575  2.887187  5.321315 45.392749 40.768825  3.829111 -6.363001
                                 9.372739 -0.089658 -0.359500 -2.166004 -4.593429-12.764395-59.876291 -0.469524 -3.032258  1.550800
                                 0.107493 -0.017527  0.000095 -0.000001 -0.000493  0.000003  0.002075 -0.000014 -0.011167  0.000076
                                 0.211500 -0.001412  2.035887 -0.013073 -4.812374  0.027975  2.485159 -0.011474 12.714301 -0.039099
                                13.547608 -0.012377 -0.511760  0.003386 -4.009724  0.025178  6.413332 -0.038520 -7.248681  0.027812
                               -14.961351  0.026877  1.324314  0.011009 -3.582855 -0.009251  4.780412  0.005815 -0.153575 -0.003245
                                 0.062498  0.001146 -0.025908 -0.000481  0.007239  0.000136 -0.000016  0.000000  0.000160 -0.000001
                                -0.005880  0.000003 -0.194450 -0.000289 -0.587019 -0.001375 -0.719744 -0.001367 -1.059066  0.001714
                                 0.106098  0.000434  0.404053  0.001358  4.047181 -0.000959 -2.218809  0.000427  1.714111 -0.000327
                                 0.086076  0.000171 -0.003705 -0.000056 -0.015661 -0.000030  0.000002  0.061797  0.000087 -0.000017
                                -0.199670 -0.000340  0.000050  0.595067  0.000448 -0.000264 -1.881316 -0.002798  0.000362  2.358942
                                 0.002446  0.000154 -1.251288 -0.001419 -0.000171  0.327379  0.000674  0.000033  0.156810 -0.000215
                                -0.000009  0.000003  0.000091  0.000287 -0.000016 -0.000173 -0.001031 -0.000004 -0.000388  0.034748
                                -0.000007  0.000080 -0.000581  0.003404 -0.021719  0.391233  1.399110  2.798021 -2.693791-29.167526
                                 1.411185 -1.939198 -0.829506 -0.014393 -0.183908 -0.062982 -4.525294 14.924554 -8.451815  0.083192
                                 0.004716 -0.269132  0.000176  3.531287 -0.000677 -1.491295  0.000228  0.002315  0.000004  0.319322
                                 0.000326 -1.116773  0.000237

   5.1   +     0.3934   -5.0564 -0.000000  0.000000 -0.000001  0.000011  0.000048  0.000150  0.000314  0.000682 -0.000254  0.000688
                                -0.013210  0.199890  0.041055 -0.393938 -1.435757  0.077377-10.548798 -8.171919-14.126651 -0.000019
                                -0.000087 -0.000255 -0.000710  0.014493 -0.309512  1.604321  6.042559 13.637495 16.926429  1.472215
                                -0.614688  0.135234 -0.000000  0.000000 -0.000001  0.000004 -0.000006  0.000008 -0.000016  0.000047
                                -0.000193  0.001766  0.019247  0.026418  0.149444  0.243909  0.849824  0.859430  1.586274 -0.283930
                                 3.878134 -0.007119 -0.027616 -0.124487 -0.196507 -0.285965 -1.206249  0.227246 -2.569027  0.744595
                                -0.098129  0.012175 -0.000000  0.000000  0.000000 -0.000000 -0.000001  0.000000  0.000003 -0.000002
                                -0.000027  0.000028  0.000257  0.000247 -0.006122 -0.000475  0.008263  0.000147  0.058520  0.000598
                                 0.136915  0.001315  0.000037 -0.000066 -0.001161 -0.000471  0.005003  0.000693 -0.016868 -0.000451
                                -0.143315 -0.000082  1.255428 -0.001613 -1.379694  0.003924  3.290012 -0.006542 -3.090283  0.010916
                                 3.553658 -0.013664 -2.302554  0.009097  0.723277 -0.002867 -0.000001 -0.000000  0.000004  0.000000
                                -0.000075 -0.000001 -0.001556 -0.000005 -0.003384  0.000009 -0.006221  0.000025 -0.063097  0.000104
                                -0.000052 -0.000008  0.001087 -0.000023  0.201882  0.000048  0.087973 -0.000218  0.030933  0.000873
                                 0.535405 -0.001035 -0.457324  0.001000 -0.000125  0.000003 -0.000002  0.000327  0.000096 -0.000005
                                -0.001421 -0.000131 -0.000012  0.001051  0.000308  0.000011 -0.020095  0.000998  0.000036  0.041471
                                 0.000017  0.000008  0.011647  0.000026 -0.000064 -0.004256 -0.000114  0.000096  0.078608  0.000063
                                 0.000106  0.000000 -0.000017 -0.000048  0.000002 -0.000063  0.000150  0.000006  0.000168 -0.001476
                                 0.000000 -0.000002  0.000014 -0.000083  0.000571 -0.013671 -0.011256 -0.068030 -0.007985 -2.758307
                                -3.054231  0.039369  0.025540  0.001984  0.017934  0.058899  0.001181  0.853292 -1.732676  0.000466
                                -0.000526  0.004750  0.000046  0.072410  0.000173 -0.027762  0.000551  0.000366  0.000003 -0.000444
                                -0.000004 -0.018685 -0.000002

   6.1   +     3.8447   -4.0224  0.000000 -0.000000  0.000000 -0.000002 -0.000011 -0.000033 -0.000069 -0.000151  0.000059 -0.000198
                                 0.001862  0.005938  0.000557  0.050849  0.596703 -0.117694  0.807927  0.334572  0.122464  0.000004
                                 0.000019  0.000056  0.000156 -0.002735 -0.007761 -0.508656 -0.666931 -0.705256 -0.187874 -0.005051
                                 0.001720 -0.000365  0.000000 -0.000000  0.000000 -0.000000  0.000000 -0.000001  0.000001 -0.000004
                                 0.000015 -0.000136 -0.001506 -0.002152 -0.015661 -0.022915 -0.173417 -0.266661 -0.168020  0.066795
                                -0.047215  0.000552  0.002186  0.012089  0.021247  0.038985  0.306316  0.005796  0.028996 -0.017436
                                -0.001397  0.000233 -0.000001 -0.000161  0.000003  0.000836 -0.000011 -0.003511  0.000061  0.018730
                                -0.001135 -0.347694 -0.010590 -3.197070  0.023266  6.789142 -0.010489 -2.785254 -0.050607 -9.320632
                                -0.098743 -7.004403  0.002726  0.832050  0.020499  6.138016 -0.031722 -9.353767  0.028042  6.460726
                                 0.079499  8.102273 -0.074638  6.562008  0.040415 -5.679856 -0.021562  3.551646  0.004041 -1.965238
                                -0.001171  0.686449  0.000446 -0.285864 -0.000120  0.080464 -0.000000 -0.000118  0.000001  0.000904
                                -0.000003 -0.008242  0.000321  0.007295  0.001568  0.369891  0.001697  0.264731  0.015361 -1.712854
                                -0.000486 -0.201872 -0.001624 -0.540490 -0.046863  0.682324  0.005298 -0.655616 -0.002780  0.400871
                                -0.000904 -0.201729  0.000200  0.064834 -0.000013 -0.000020 -0.000032  0.000044  0.000077 -0.000269
                                -0.000166 -0.000234 -0.001583  0.000575  0.000392  0.007302  0.002421 -0.001734 -0.147714 -0.007670
                                 0.002475 -0.711353 -0.001478 -0.001666  0.398007  0.001861  0.000813 -0.207396 -0.001083 -0.000258
                                 0.060994 -0.001381 -0.000003  0.000000  0.005572  0.000012 -0.000002 -0.033019 -0.000088  0.000217
                                -0.000000  0.000000 -0.000001  0.000007 -0.000042  0.000698  0.003041  0.007884 -0.007318  0.403661
                                -0.008765 -0.004245 -0.001499  0.000031  0.000381  0.000046  0.030543 -0.123104  0.022865 -0.000101
                                -0.000009 -0.000022  0.018382 -0.032190  0.986918  0.006226  0.399906 -0.000006  0.005823  0.000391
                                 0.058434  0.010630 -0.877105

   7.1   +     4.2900   -3.5908 -0.000002  0.000015 -0.000081  0.001480  0.006488  0.020143  0.042536  0.094608 -0.038043  0.137651
                                -1.505581 -7.826121-18.319619 47.078586186.395920-89.593212125.592160 24.270917 11.921385 -0.002589
                                -0.011668 -0.034420 -0.097659  2.396360 14.215977**********-94.558428-32.676650-19.167363 -0.403173
                                 0.127860 -0.026119  0.000001 -0.000003  0.000012 -0.000037  0.000050 -0.000065  0.000142 -0.000407
                                 0.001671 -0.015488 -0.173720 -0.256525 -2.124586 -4.001936-32.423452-68.436575-19.839118 38.778875
                               -10.520709  0.063152  0.254789  1.582011  3.443789  9.821187 45.786545  1.504790  5.711545 -4.019455
                                -0.391829  0.068407 -0.000121  0.000000  0.000632 -0.000002 -0.002656  0.000009  0.014219 -0.000047
                                -0.266085  0.000870 -2.493224  0.008013  5.529533 -0.017071 -2.507981  0.007020 -9.856442  0.024276
                               -25.497884  0.011303  0.639645 -0.002082  4.838017 -0.015401 -7.519862  0.023507  6.561151 -0.016664
                                 9.112223 -0.019965 -0.272484 -0.012300 11.533171  0.010069 -3.133787 -0.006395 -0.716534  0.003567
                                 0.146590 -0.001254 -0.053710  0.000524  0.014525 -0.000148 -0.000066 -0.000000  0.000517  0.000001
                                -0.006134 -0.000006 -0.059371  0.000057 -0.006865  0.000490 -0.059636  0.000448 -3.424439 -0.001599
                                -0.068668 -0.000211 -0.140602 -0.000598 -4.676523  0.000114  5.278906 -0.000598 -1.330705  0.000260
                                -0.262213 -0.000122  0.038413  0.000038  0.005044 -0.000047 -0.000005 -0.021928  0.000183  0.000022
                                 0.070418 -0.000520 -0.000069 -0.230263  0.001118  0.000194 -0.379239 -0.004327 -0.000801 -2.195819
                                 0.005040 -0.000139  1.828843 -0.003223 -0.000099  0.024089  0.001553 -0.000061 -0.237029 -0.000493
                                 0.000016 -0.000004  0.000135 -0.003107  0.000017  0.000028  0.014022 -0.000122 -0.000170 -0.148592
                                 0.000002 -0.000023  0.000170 -0.000990  0.006154 -0.091482 -0.542190 -1.515539 13.971974 76.233291
                               -44.155485  0.662308  0.206688 -0.002411 -0.033131  0.212704 -5.492093-49.114763 13.606394  0.039265
                                 0.001165  0.111075  0.000044 -1.186571  0.001034  8.686739  0.001014 -0.018681  0.000007 -0.217299
                                 0.000097  0.769232 -0.001178

   8.1   0    -0.0794   -4.6589 -0.000000  0.000000 -0.000000  0.000002  0.000010  0.000030  0.000063  0.000135 -0.000049  0.000113
                                -0.002193  0.048897  0.021110 -0.121258 -0.573314 -0.107752 -1.101446 -2.875600  0.470153 -0.000004
                                -0.000017 -0.000051 -0.000141  0.001885 -0.077329  0.590328  1.287952  1.315640  0.003058  0.093575
                                -0.012146  0.001554  0.000000 -0.000000  0.000000 -0.000001  0.000001 -0.000001  0.000002 -0.000007
                                 0.000029 -0.000263 -0.002833 -0.003814 -0.023453 -0.023013  0.020808  0.060177  0.771217 -0.929768
                                -2.098237  0.001055  0.004032  0.018861  0.024436  0.018134 -0.129982  0.288328  1.291621 -0.531837
                                -0.061025  0.010511  0.000001 -0.000000 -0.000005  0.000000  0.000019 -0.000000 -0.000102  0.000000
                                 0.001897 -0.000000  0.017639 -0.000002 -0.038494  0.000008  0.015860 -0.000007  0.062618 -0.000009
                                 0.082986  0.000104 -0.004551  0.000000 -0.034095  0.000004  0.052620 -0.000007 -0.037511  0.000004
                                -0.087443  0.000062  0.300941  0.000040 -0.234259  0.000055 -0.797352  0.000055  0.168587  0.000029
                                 0.077518  0.000015 -0.002591 -0.000001  0.001641  0.000001  0.000000  0.000000 -0.000000 -0.000000
                                -0.000001  0.000000 -0.000237  0.000001 -0.001263  0.000002 -0.001284  0.000002 -0.020355  0.000012
                                 0.000320 -0.000000  0.001335 -0.000001  0.065980  0.000010  0.041088  0.000018 -0.216335  0.000047
                                 0.032640  0.000018  0.022643  0.000006  0.000004  0.000001 -0.000000 -0.000043  0.000020 -0.000001
                                 0.000208 -0.000028 -0.000003 -0.000603  0.000066  0.000002 -0.002843  0.000239  0.000003  0.007310
                                -0.000021  0.000004  0.012159 -0.000047 -0.000002 -0.018467 -0.000044  0.000016 -0.003728 -0.000008
                                 0.000015  0.000000 -0.000001  0.000003  0.000000 -0.000012  0.000013  0.000001  0.000041 -0.000134
                                 0.000000 -0.000001  0.000009 -0.000053  0.000403 -0.012880  0.008929 -0.061526 -0.148714 -0.934137
                                 3.230196  0.024009  0.022970 -0.001438 -0.012112 -0.047412 -0.114114  0.170000  1.404394 -0.001297
                                 0.000371 -0.000355 -0.000010  0.035619 -0.000013  0.113710  0.000039 -0.000069 -0.000001  0.000201
                                 0.000002 -0.009509 -0.000007

   9.1   0    -0.0063   -1.6008 -0.000000  0.000000 -0.000000  0.000002  0.000008  0.000023  0.000049  0.000111 -0.000046  0.000183
                                -0.001415 -0.030992 -0.026647  0.082566  0.276947 -0.056643 -0.077801 -0.400386 -1.286477 -0.000003
                                -0.000014 -0.000040 -0.000114  0.002812  0.049748 -0.303091 -0.436336  2.320161  1.069321  0.116052
                                 0.009422  0.657656 -0.000000  0.000000 -0.000000  0.000001 -0.000001  0.000001 -0.000002  0.000006
                                -0.000023  0.000213  0.002303  0.003154  0.021424  0.021889  0.037869 -0.001687 -0.366969  0.773627
                                 0.538652 -0.000855 -0.003294 -0.016740 -0.023940 -0.022356 -0.008595  0.259375 -0.444034 -0.046588
                                -0.019365  0.621671 -0.000000  0.000000  0.000001 -0.000000 -0.000006  0.000000  0.000031 -0.000000
                                -0.000581  0.000000 -0.005398  0.000001  0.011905 -0.000005 -0.005070  0.000004 -0.018607  0.000005
                                -0.029194 -0.000053  0.001393 -0.000000  0.010438 -0.000002 -0.016175  0.000005  0.011427 -0.000002
                                 0.024314 -0.000032 -0.111000 -0.000018  0.161296 -0.000032  0.210778 -0.000027 -0.163512 -0.000021
                                 0.105831  0.000004  0.060746  0.000013  0.271084  0.000026  0.000000  0.000000 -0.000000 -0.000000
                                 0.000006  0.000000  0.000099 -0.000000  0.000253 -0.000000  0.000381 -0.000001  0.004994 -0.000008
                                 0.000006  0.000000 -0.000125  0.000001 -0.020365 -0.000003 -0.003981 -0.000010  0.064034 -0.000018
                                -0.069514 -0.000017  0.115342  0.000028  0.000016 -0.000000  0.000000 -0.000049 -0.000009  0.000000
                                 0.000139  0.000013  0.000001 -0.000287 -0.000035 -0.000002  0.001588 -0.000109 -0.000002 -0.004614
                                 0.000006 -0.000002  0.002304  0.000013  0.000003 -0.003491  0.000017 -0.000012  0.008904 -0.000005
                                 0.000001 -0.000000  0.000000 -0.000001 -0.000000  0.000006 -0.000001 -0.000000 -0.000019 -0.000004
                                -0.000000  0.000000 -0.000003  0.000018 -0.000137  0.004296 -0.002594  0.019653  0.050417  0.351194
                                -2.157466 -0.008191 -0.007682  0.000349  0.002860  0.012475  0.027166 -0.115231  0.035612  0.000473
                                -0.000088  0.000134  0.000002 -0.008383 -0.000002 -0.017496 -0.000025  0.000006  0.000000 -0.000152
                                -0.000001  0.001738  0.000002

                                   1 2px     1 2px     1 2px     1 2px     1 2px     1 2px     1 2px     1 2px     1 2px     1 2px
                                   1 2px     1 2px     1 2px     1 2px     1 2px     1 2px     1 2px     1 2px     1 2px     1 2px
                                   1 2px     1 2px     1 2px     1 2px     1 2px     1 2px     1 2px     1 2px     1 2px     1 2px
                                   1 3d1+    1 3d1+    1 3d1+    1 3d1+    1 3d1+    1 3d1+    1 3d1+    1 3d1+    1 3d1+    1 3d1+
                                   1 3d1+    1 3d1+    1 3d1+    1 3d1+    1 3d1+    1 3d1+    1 3d1+    1 3d1+    1 3d1+    1 3d1+
                                   1 3d1+    1 3d1+    1 4f1+    1 4f3+    1 4f1+    1 4f3+    1 4f1+    1 4f3+    1 4f1+    1 4f3+
                                   1 4f1+    1 4f3+    1 4f1+    1 4f3+    1 4f1+    1 4f3+    1 4f1+    1 4f3+    1 4f1+    1 4f3+
                                   1 4f1+    1 4f3+    1 4f1+    1 4f3+    1 4f1+    1 4f3+    1 4f1+    1 4f3+    1 4f1+    1 4f3+
                                   1 5g1+    1 5g3+    1 5g1+    1 5g3+    1 5g1+    1 5g3+    1 5g1+    1 5g3+    1 5g1+    1 5g3+
                                   1 5g1+    1 5g3+    1 5g1+    1 5g3+    1 5g1+    1 5g3+    1 5g1+    1 5g3+    1 6h1+    1 6h3+
                                   1 6h5+    1 6h1+    1 6h3+    1 6h5+    1 6h1+    1 6h3+    1 6h5+    2 2px     2 2px     2 2px
                                   2 2px     2 2px     2 2px     2 2px     2 2px     2 3d1+    2 3d1+    2 3d1+    2 3d1+    2 4f1+
                                   2 4f3+    2 4f1+    2 4f3+

   1.2   2    -0.6764  -13.2873 -0.000000  0.000000 -0.000000  0.000000 -0.000000  0.000000 -0.000001  0.000003 -0.000010  0.000096
                                 0.001045  0.001637  0.026857 -0.011359  0.100096 -0.012142 -0.138775 -0.013744 -0.055096 -0.000385
                                -0.001530 -0.017513 -0.015403 -0.024001 -0.080699  0.004509  0.020605 -0.010860 -0.002962  0.001053
                                 0.000000 -0.000002  0.000009 -0.000048  0.000874  0.007425 -0.006880 -0.003186  0.053749 -0.011221
                                -0.002061 -0.013376  0.015327 -0.034002 -0.010991 -0.082127 -0.009133 -0.016409 -0.006976  0.002665
                                -0.001393 -0.000097 -0.000001 -0.000000  0.000008  0.000002 -0.000062 -0.000018  0.000926 -0.000014
                                 0.008142  0.000752  0.014062  0.000926 -0.010689  0.002286 -0.002354 -0.000363 -0.010056 -0.001221
                                -0.016404 -0.000194 -0.026359  0.000353  0.000469 -0.000254 -0.005108  0.000142  0.001248 -0.000049
                                 0.000114 -0.000002 -0.000019  0.000004  0.000180 -0.000077  0.006129  0.000315 -0.007787  0.000611
                                -0.003978  0.000036 -0.000636  0.000031 -0.004542 -0.000008 -0.000010  0.000002 -0.000089  0.000049
                                 0.000004  0.000526  0.000009 -0.000007  0.000943  0.000167  0.000160  0.011922  0.100342  0.375126
                                 0.566172  0.313824  0.064895  0.012280 -0.003064  0.011987 -0.028506 -0.051973  0.001293  0.004323
                                 0.000133  0.018105  0.000166

   2.2   2     6.1059   -6.1112 -0.000000  0.000001 -0.000005  0.000015 -0.000020  0.000026 -0.000057  0.000164 -0.000672  0.006181
                                 0.067958  0.095834  0.688369  0.889799  3.082133  0.699205 -0.681438  0.302144 -0.255895 -0.025005
                                -0.098197 -0.531836 -0.877063 -1.219032 -2.880659  0.077960  0.294108 -0.208506 -0.020362  0.003569
                                 0.000000 -0.000001  0.000004 -0.000024  0.000543  0.007237 -0.028185  0.026292  0.256933 -0.203840
                                -0.001437 -0.016410  0.032864 -0.108513 -0.379800 -0.038735 -0.074061  0.066544 -0.039342  0.014281
                                -0.006042  0.001712 -0.000002 -0.000135  0.000013  0.000965 -0.000172 -0.001437 -0.002059  0.336916
                                -0.000040  1.514970  0.002441  1.575912 -0.221642 -1.683860 -0.001598 -0.457781 -0.006085 -1.449561
                                 0.000183  1.353156 -0.036160 -0.822678  0.019177  0.544548 -0.007881 -0.275962  0.002324  0.089207
                                -0.000851  0.002062  0.003308 -0.005997 -0.010664  0.021522  0.034357 -0.035424 -0.171234  0.185974
                                 0.068227 -0.170278 -0.034875  0.086081  0.018130 -0.039221 -0.004822  0.012183 -0.000331 -0.000159
                                -0.000011  0.000803  0.000680  0.000034 -0.007370  0.001370 -0.000162  0.001212  0.017891 -0.055694
                                 0.350302  0.399655 -0.000070 -0.016250 -0.000519 -0.000355 -0.302080 -0.160213 -0.000302 -0.016772
                                -0.038253  0.126763  0.033175

   3.2   +     3.5960   -6.1101 -0.000000  0.000001 -0.000003  0.000010 -0.000014  0.000018 -0.000038  0.000110 -0.000450  0.004135
                                 0.045262  0.063077  0.431255  0.547691  1.921517  0.872562 -0.509144  0.419606 -0.020762 -0.016700
                                -0.065167 -0.337714 -0.534215 -0.723557 -2.002744  0.079757  0.244026 -0.199525 -0.021511  0.003825
                                -0.000000  0.000000 -0.000000  0.000002 -0.000011  0.000383 -0.003235  0.004484  0.071402 -0.061958
                                -0.000005 -0.001248  0.003395 -0.025995 -0.120863  0.154298 -0.133009  0.228556 -0.050574  0.016523
                                -0.006753  0.001886 -0.000002  0.000153  0.000017 -0.001173 -0.000147  0.010667  0.000440 -0.009926
                                 0.007876 -0.473719  0.007490 -0.322721 -0.123986  1.934663 -0.003881  0.260669 -0.010942  0.687545
                                 0.106597 -1.994790 -0.050391  1.299257  0.067900 -0.858145 -0.004222  0.429547  0.001875 -0.137424
                                 0.000079  0.001874 -0.000285 -0.006504  0.000876  0.021026 -0.000922 -0.053347 -0.033429  0.203099
                                 0.032371 -0.180294 -0.007911  0.129798  0.003684 -0.066197  0.007676  0.021706 -0.000233  0.000368
                                 0.000003  0.000537 -0.001823 -0.000011 -0.005181  0.011239  0.000032  0.000159  0.001238  0.010816
                                 0.059609 -0.008570 -0.323376  0.001208 -0.000025  0.003104 -0.123834  0.015614 -0.000042  0.005556
                                 0.021041  0.050199 -0.030837

   4.2   +     6.0594   -2.0837 -0.000001  0.000005 -0.000022  0.000067 -0.000090  0.000117 -0.000254  0.000726 -0.002979  0.027442
                                 0.302625  0.429210  3.141671  4.248457 23.977454  3.663063  1.434002 -0.338168 -0.264381 -0.111160
                                -0.438118 -2.413582 -4.125327 -7.360777-26.371380 -0.011003  0.020167  0.015099  0.003553 -0.000673
                                -0.000024  0.000123 -0.000516  0.002726 -0.049188 -0.419438  0.687817 -0.026445  3.930458 -3.234608
                                 0.115731  0.766770 -1.044087 -0.962118 -7.368971  5.765270 -3.810181  2.028554 -1.204014  0.417716
                                -0.173797  0.048944 -0.000099  0.000004  0.000710 -0.000026 -0.001276  0.000046  0.241092 -0.008882
                                 1.134735 -0.040481  1.352557 -0.042458 -6.540780  0.041626 -0.340686  0.012410 -1.143774  0.039147
                                 3.039742 -0.033039 -0.366253  0.020061  0.211186 -0.013293 -0.143859  0.006745  0.044922 -0.002182
                                -0.000977  0.000005  0.004913 -0.000018 -0.016658  0.000099  0.174830 -0.000755 -2.696800 -0.000397
                                 0.871352  0.000847  0.198271 -0.000144 -0.086496  0.000032  0.019111 -0.000003 -0.006500  0.000073
                                 0.000045  0.030502 -0.000190  0.000197 -0.280317  0.000157  0.000146  0.015961  0.255511 -1.053062
                                 7.347483 -1.821156  0.455897 -0.250720 -0.007220  0.055365 -6.210151  0.114412  0.001207  0.326386
                                 0.000997  1.979552 -0.000961

   5.2   0    -0.0031   -2.3252 -0.000000  0.000000 -0.000000  0.000000 -0.000001  0.000001 -0.000002  0.000005 -0.000019  0.000177
                                 0.001924  0.002659  0.017857  0.021260  0.062874  0.024717 -0.336292  0.562147  2.388242 -0.000713
                                -0.002761 -0.014046 -0.021204 -0.025621 -0.064730 -0.840864 -1.647523  1.170730  0.183942 -0.478646
                                -0.000000  0.000001 -0.000004  0.000019 -0.000348 -0.003163  0.006830 -0.002825 -0.006006 -0.025502
                                 0.000830  0.006049 -0.009268  0.004377  0.006576 -0.144632  0.122663  0.903980 -0.078981 -0.250307
                                -0.105349 -0.284364  0.000000  0.000000 -0.000002 -0.000000  0.000023  0.000000  0.000038 -0.000005
                                -0.000609 -0.000028  0.000073 -0.000030  0.002575 -0.000125  0.000478  0.000010  0.000966  0.000031
                                -0.025474 -0.000001 -0.025091  0.000025  0.224078  0.000031  0.024743  0.000009 -0.218131 -0.000016
                                -0.000040  0.000000  0.000186  0.000000 -0.000510 -0.000001  0.001714  0.000009 -0.003201 -0.000006
                                 0.004266  0.000007 -0.019627  0.000025  0.043599  0.000020 -0.026361  0.000002 -0.000005  0.000002
                                 0.000000  0.000030  0.000001  0.000001  0.000169  0.000003 -0.000005  0.000650  0.005675  0.020290
                                 0.033088  0.189757 -2.284145  0.000384 -0.000170 -0.000065 -0.006539 -0.115139 -0.000017 -0.000778
                                -0.000001  0.002020  0.000007

   6.2   0     0.0065   -1.3911  0.000000 -0.000000  0.000000 -0.000002  0.000002 -0.000003  0.000006 -0.000016  0.000066 -0.000608
                                -0.006611 -0.009110 -0.061121 -0.071895 -0.202627 -0.117199  0.401219 -0.621513 -0.032701  0.002450
                                 0.009477  0.048030  0.072515  0.083593  0.204129 -3.302838 -2.054424  3.525280  3.261782 -2.225281
                                 0.000001 -0.000003  0.000011 -0.000060  0.001111  0.010056 -0.020835  0.008070  0.021423  0.041369
                                -0.002647 -0.019161  0.028865 -0.016280 -0.017189  0.060472  0.013177 -0.562036  0.302060 -0.146702
                                 0.651750 -0.655277 -0.000000 -0.000000  0.000001  0.000000 -0.000014 -0.000000 -0.000063  0.000003
                                 0.000203  0.000019 -0.000292  0.000020  0.000681  0.000089 -0.000251 -0.000007 -0.000428 -0.000021
                                 0.018828 -0.000000  0.019810 -0.000016 -0.100023 -0.000028  0.038687  0.000005  0.097509 -0.000008
                                 0.000021 -0.000000 -0.000103 -0.000000  0.000280  0.000001 -0.001043 -0.000007  0.002671  0.000004
                                -0.001580 -0.000005  0.009669 -0.000020 -0.018801 -0.000014  0.030731 -0.000003  0.000010 -0.000001
                                -0.000000 -0.000047 -0.000001 -0.000001  0.000047 -0.000003  0.000003 -0.000500 -0.004433 -0.014789
                                -0.027406 -0.153666  1.052346 -0.000134  0.000133 -0.000019  0.007809  0.093185  0.000015  0.000438
                                 0.000000 -0.003161 -0.000005

                                   1 2py     1 2py     1 2py     1 2py     1 2py     1 2py     1 2py     1 2py     1 2py     1 2py
                                   1 2py     1 2py     1 2py     1 2py     1 2py     1 2py     1 2py     1 2py     1 2py     1 2py
                                   1 2py     1 2py     1 2py     1 2py     1 2py     1 2py     1 2py     1 2py     1 2py     1 2py
                                   1 3d1-    1 3d1-    1 3d1-    1 3d1-    1 3d1-    1 3d1-    1 3d1-    1 3d1-    1 3d1-    1 3d1-
                                   1 3d1-    1 3d1-    1 3d1-    1 3d1-    1 3d1-    1 3d1-    1 3d1-    1 3d1-    1 3d1-    1 3d1-
                                   1 3d1-    1 3d1-    1 4f1-    1 4f3-    1 4f1-    1 4f3-    1 4f1-    1 4f3-    1 4f1-    1 4f3-
                                   1 4f1-    1 4f3-    1 4f1-    1 4f3-    1 4f1-    1 4f3-    1 4f1-    1 4f3-    1 4f1-    1 4f3-
                                   1 4f1-    1 4f3-    1 4f1-    1 4f3-    1 4f1-    1 4f3-    1 4f1-    1 4f3-    1 4f1-    1 4f3-
                                   1 5g1-    1 5g3-    1 5g1-    1 5g3-    1 5g1-    1 5g3-    1 5g1-    1 5g3-    1 5g1-    1 5g3-
                                   1 5g1-    1 5g3-    1 5g1-    1 5g3-    1 5g1-    1 5g3-    1 5g1-    1 5g3-    1 6h1-    1 6h3-
                                   1 6h5-    1 6h1-    1 6h3-    1 6h5-    1 6h1-    1 6h3-    1 6h5-    2 2py     2 2py     2 2py
                                   2 2py     2 2py     2 2py     2 2py     2 2py     2 3d1-    2 3d1-    2 3d1-    2 3d1-    2 4f1-
                                   2 4f3-    2 4f1-    2 4f3-

   1.3   2    -0.6698  -13.2795 -0.000000  0.000000 -0.000000  0.000000 -0.000000  0.000000 -0.000001  0.000003 -0.000010  0.000095
                                 0.001032  0.001620  0.026889 -0.011538  0.100177 -0.011547 -0.139458 -0.013442 -0.054021 -0.000380
                                -0.001513 -0.017497 -0.015440 -0.023985 -0.080153  0.004392  0.020032 -0.010520 -0.002931  0.001047
                                 0.000000 -0.000002  0.000009 -0.000048  0.000860  0.007298 -0.006577 -0.003388  0.053606 -0.010542
                                -0.002027 -0.013135  0.014945 -0.033844 -0.009990 -0.082712 -0.008978 -0.015975 -0.006971  0.002660
                                -0.001391 -0.000098 -0.000001  0.000000  0.000008 -0.000002 -0.000060  0.000020  0.000967  0.000029
                                 0.008223 -0.000749  0.014128 -0.000951 -0.010382 -0.002261 -0.002355  0.000378 -0.010072  0.001255
                                -0.016419  0.000232 -0.026595 -0.000361  0.000712  0.000261 -0.005129 -0.000146  0.001257  0.000051
                                 0.000113  0.000002 -0.000016 -0.000005  0.000169  0.000070  0.006120 -0.000366 -0.007753 -0.000656
                                -0.003921 -0.000032 -0.000734 -0.000033 -0.004521  0.000009  0.000015 -0.000003 -0.000089 -0.000050
                                 0.000005  0.000527 -0.000006 -0.000006  0.000959 -0.000177  0.000174  0.011897  0.100108  0.374245
                                 0.565494  0.315177  0.063833  0.012265 -0.003058  0.011975 -0.028243 -0.051950  0.001291  0.004341
                                -0.000119  0.018069 -0.000167

   2.3   2     6.1071   -6.0953  0.000000 -0.000002  0.000006 -0.000020  0.000026 -0.000034  0.000074 -0.000212  0.000869 -0.007999
                                -0.087946 -0.123993 -0.888999 -1.145570 -3.879653 -0.912583  0.849784 -0.394913  0.307422  0.032361
                                 0.127071  0.687200  1.130048  1.554658  3.589549 -0.099853 -0.371651  0.265788  0.026147 -0.004589
                                -0.000001  0.000003 -0.000012  0.000069 -0.001404 -0.015533  0.047814 -0.036565 -0.312951  0.223422
                                 0.003520  0.032749 -0.059006  0.139392  0.443787  0.057364  0.076389 -0.083561  0.043014 -0.015576
                                 0.006589 -0.001867  0.000002 -0.000135 -0.000014  0.000967  0.000194 -0.001462  0.002730  0.336697
                                 0.001761  1.515126 -0.000678  1.576133  0.246482 -1.684065  0.001338 -0.458074  0.005320 -1.450352
                                 0.003342  1.353148  0.041795 -0.822675 -0.025424  0.544548  0.008354 -0.275963 -0.002494  0.089208
                                 0.001020  0.002055 -0.003954 -0.005976  0.012765  0.021443 -0.040693 -0.035206  0.197240  0.185486
                                -0.080941 -0.169903  0.042626  0.085826 -0.022367 -0.039100  0.005312  0.012144  0.000350 -0.000160
                                -0.000011 -0.000882  0.000675  0.000067  0.007768  0.001322 -0.000175 -0.001373 -0.020223  0.062177
                                -0.393405 -0.463477  0.026653  0.018303  0.000587  0.000792  0.341066  0.184612  0.000358  0.020376
                                -0.038427 -0.144624  0.033294

   3.3   +     3.5939   -6.1125  0.000000 -0.000001  0.000004 -0.000011  0.000015 -0.000019  0.000041 -0.000118  0.000485 -0.004454
                                -0.048755 -0.067953 -0.464858 -0.589917 -2.088295 -0.943805  0.545805 -0.451084  0.015294  0.017989
                                 0.070199  0.363968  0.575716  0.782656  2.181998 -0.084793 -0.257892  0.211749  0.022889 -0.004072
                                -0.000000  0.000002 -0.000007  0.000040 -0.000773 -0.007663  0.019063 -0.011448 -0.102384  0.055138
                                 0.001885  0.015302 -0.025041  0.044243  0.156496 -0.159824  0.137332 -0.244636  0.052400 -0.017048
                                 0.006959 -0.001942  0.000002  0.000153 -0.000019 -0.001172  0.000169  0.010662 -0.000413 -0.009804
                                -0.008668 -0.472945 -0.008076 -0.321898  0.140707  1.933933  0.004371  0.260387  0.012231  0.686671
                                -0.121705 -1.995169  0.056629  1.299712 -0.075134 -0.858458  0.005047  0.429699 -0.002182 -0.137470
                                -0.000091  0.001871  0.000343 -0.006492 -0.001010  0.020987  0.001144 -0.053228  0.037366  0.202824
                                -0.036457 -0.180087  0.008295  0.129657 -0.003774 -0.066135 -0.008486  0.021686  0.000252  0.000366
                                 0.000006 -0.000614 -0.001826 -0.000021  0.005743  0.011202  0.000102 -0.000178 -0.001390 -0.012161
                                -0.067088  0.010028  0.353370 -0.001364  0.000028 -0.003413  0.140726 -0.016616  0.000053 -0.006190
                                 0.020991 -0.058029 -0.030754

   4.3   +     6.0606   -2.0893 -0.000001  0.000005 -0.000022  0.000066 -0.000089  0.000116 -0.000251  0.000717 -0.002941  0.027095
                                 0.298807  0.423822  3.103215  4.199436 23.832645  3.623226  1.457749 -0.353655 -0.253953 -0.109756
                                -0.432600 -2.383792 -4.076950 -7.297028-26.247659 -0.015039  0.005728  0.025686  0.004619 -0.000861
                                -0.000024  0.000125 -0.000524  0.002768 -0.049957 -0.426600  0.703386 -0.033104  3.906707 -3.239025
                                 0.117578  0.780610 -1.065407 -0.945656 -7.350491  5.769812 -3.813575  2.028912 -1.204951  0.418052
                                -0.173938  0.048984 -0.000099 -0.000004  0.000710  0.000029 -0.001271 -0.000053  0.241207  0.009773
                                 1.134996  0.044635  1.352938  0.046762 -6.538723 -0.045903 -0.340708 -0.013694 -1.143837 -0.043191
                                 3.039314  0.036312 -0.366352 -0.022112  0.210704  0.014654 -0.143921 -0.007436  0.044937  0.002406
                                -0.000954 -0.000008  0.004820  0.000032 -0.016342 -0.000128  0.173948  0.000875 -2.694314  0.000173
                                 0.869832 -0.000807  0.198847 -0.000034 -0.086963  0.000059  0.019158 -0.000027 -0.006508 -0.000088
                                 0.000044  0.030537  0.000253  0.000204 -0.280563 -0.000394  0.000094  0.015937  0.255198 -1.052601
                                 7.343878 -1.823946  0.459173 -0.250475 -0.007210  0.055683 -6.206744  0.116451  0.001217  0.327415
                                -0.001535  1.977244  0.001436

   5.3   0    -0.0031   -2.3214 -0.000000  0.000000 -0.000000  0.000000 -0.000001  0.000001 -0.000002  0.000005 -0.000019  0.000176
                                 0.001918  0.002651  0.017815  0.021179  0.062706  0.024700 -0.335581  0.561276  2.386711 -0.000710
                                -0.002752 -0.014009 -0.021148 -0.025549 -0.064508 -0.842620 -1.647808  1.172764  0.185997 -0.480790
                                -0.000000  0.000001 -0.000004  0.000019 -0.000347 -0.003152  0.006810 -0.002821 -0.005974 -0.025370
                                 0.000827  0.006027 -0.009237  0.004353  0.006593 -0.144403  0.122670  0.902950 -0.078439 -0.250332
                                -0.104830 -0.285444  0.000000 -0.000000 -0.000002  0.000000  0.000023 -0.000000  0.000038  0.000002
                                -0.000605  0.000026  0.000077  0.000032  0.002599  0.000136  0.000477 -0.000011  0.000960 -0.000036
                                -0.025426 -0.000006 -0.024989 -0.000041  0.223838 -0.000082  0.024930 -0.000036 -0.218209 -0.000078
                                -0.000040 -0.000000  0.000186 -0.000000 -0.000511  0.000001  0.001712 -0.000010 -0.003195  0.000003
                                 0.004270 -0.000004 -0.019613 -0.000043  0.043596 -0.000022 -0.026350 -0.000063 -0.000005 -0.000002
                                 0.000000  0.000030 -0.000001  0.000001  0.000169 -0.000005 -0.000006  0.000648  0.005657  0.020227
                                 0.033000  0.189394 -2.281634  0.000384 -0.000169 -0.000067 -0.006512 -0.114881 -0.000017 -0.000776
                                 0.000001  0.002013 -0.000009

   6.3   0     0.0065   -1.3919  0.000000 -0.000000  0.000000 -0.000002  0.000002 -0.000003  0.000006 -0.000016  0.000067 -0.000609
                                -0.006619 -0.009121 -0.061210 -0.071975 -0.202895 -0.117418  0.401557 -0.622325 -0.033290  0.002453
                                 0.009489  0.048097  0.072615  0.083702  0.204357 -3.306909 -2.056732  3.529180  3.265857 -2.226362
                                 0.000001 -0.000003  0.000011 -0.000060  0.001111  0.010062 -0.020849  0.008079  0.021431  0.041338
                                -0.002649 -0.019172  0.028883 -0.016285 -0.017229  0.060500  0.013047 -0.562754  0.302015 -0.146527
                                 0.652219 -0.654462 -0.000000  0.000000  0.000001 -0.000000 -0.000014  0.000000 -0.000063 -0.000002
                                 0.000201 -0.000019 -0.000295 -0.000022  0.000659 -0.000096 -0.000251  0.000008 -0.000425  0.000025
                                 0.018838  0.000004  0.019759  0.000034 -0.100142  0.000052  0.038505  0.000040  0.098025  0.000028
                                 0.000021  0.000000 -0.000103  0.000000  0.000281 -0.000001 -0.001044  0.000007  0.002673 -0.000002
                                -0.001591  0.000003  0.009688  0.000031 -0.018868  0.000019  0.030797  0.000043  0.000010  0.000001
                                -0.000000 -0.000047  0.000001 -0.000001  0.000046  0.000004  0.000004 -0.000500 -0.004430 -0.014778
                                -0.027402 -0.153718  1.053906 -0.000135  0.000133 -0.000017  0.007801  0.093208  0.000016  0.000438
                                -0.000001 -0.003160  0.000007

                                   1 3d2-    1 3d2-    1 3d2-    1 3d2-    1 3d2-    1 3d2-    1 3d2-    1 3d2-    1 3d2-    1 3d2-
                                   1 3d2-    1 3d2-    1 3d2-    1 3d2-    1 3d2-    1 3d2-    1 3d2-    1 3d2-    1 3d2-    1 3d2-
                                   1 3d2-    1 3d2-    1 4f2-    1 4f2-    1 4f2-    1 4f2-    1 4f2-    1 4f2-    1 4f2-    1 4f2-
                                   1 4f2-    1 4f2-    1 4f2-    1 4f2-    1 4f2-    1 4f2-    1 5g2-    1 5g4-    1 5g2-    1 5g4-
                                   1 5g2-    1 5g4-    1 5g2-    1 5g4-    1 5g2-    1 5g4-    1 5g2-    1 5g4-    1 5g2-    1 5g4-
                                   1 5g2-    1 5g4-    1 5g2-    1 5g4-    1 6h4-    1 6h2-    1 6h4-    1 6h2-    1 6h4-    1 6h2-
                                   2 3d2-    2 3d2-    2 3d2-    2 3d2-    2 4f2-    2 4f2-

   1.4   +     5.8946   -6.4144  0.000035 -0.000183  0.000768 -0.004106  0.076496  0.708002 -1.517400  0.635997  2.311046  0.405260
                                -0.183381 -1.363951  2.088293 -1.612230 -1.541248 -0.433563  0.440500 -0.291087  0.164482 -0.058290
                                 0.024428 -0.006912 -0.000150  0.001085 -0.002530  0.339613  1.581278  1.659437 -1.928770 -0.486212
                                -1.546212  1.267936 -0.694143  0.476340 -0.243727  0.079078 -0.000136 -0.000001  0.003459  0.000003
                                -0.008587 -0.000013  0.077800  0.000030 -0.200446 -0.000062 -0.115037  0.000045  0.129952 -0.000024
                                -0.040310  0.000011  0.011430 -0.000003 -0.000010  0.000014  0.000031  0.000417 -0.000119  0.004452
                                 0.020051  0.364768 -0.066682  0.000273 -0.103511 -0.246375

   2.4   0     0.0115   -1.0660 -0.000001  0.000004 -0.000017  0.000092 -0.001698 -0.015380  0.031590 -0.012098 -0.036378 -0.033825
                                 0.004047  0.029301 -0.043994  0.026853  0.029123  0.088230 -0.183806  0.349604 -0.480833  0.666532
                                -1.108502  1.600605 -0.000000  0.000001 -0.000009  0.000114  0.000804  0.000612 -0.001390 -0.000340
                                -0.000904  0.002523 -0.016625  0.036609 -0.064845  0.125606  0.000008  0.000000 -0.000029 -0.000000
                                 0.000078  0.000000 -0.000190 -0.000000  0.000461  0.000000 -0.001300 -0.000001  0.000509  0.000003
                                -0.004704 -0.000004  0.012668  0.000010  0.000000 -0.000000 -0.000000  0.000000  0.000000  0.000007
                                 0.000108 -0.000111  0.007421 -0.000002  0.000098 -0.000514

   3.4   0     0.0305   -1.5973 -0.000002  0.000008 -0.000034  0.000181 -0.003331 -0.030178  0.061968 -0.023752 -0.071831 -0.065696
                                 0.007941  0.057493 -0.086314  0.052992  0.057410  0.199683 -0.356146  0.679825 -0.959173  1.368743
                                -2.685335  1.413232  0.000000 -0.000003  0.000019 -0.000264 -0.001790 -0.001364  0.002765  0.000748
                                 0.001988 -0.005176  0.049389 -0.108711  0.181364 -0.463488 -0.000041 -0.000000  0.000157  0.000000
                                -0.000430 -0.000000  0.001058  0.000001 -0.002618 -0.000002  0.005800  0.000003 -0.004235 -0.000010
                                 0.021416  0.000012 -0.061358 -0.000040 -0.000000 -0.000002  0.000000  0.000010 -0.000000 -0.000069
                                -0.000492  0.000572 -0.027782  0.000001 -0.000255  0.000482

 HOMO      4.3     6.060563 =     164.9163eV
 LUMO      8.1    -0.079350 =      -2.1592eV
 LUMO-HOMO        -6.139913 =    -167.0755eV

 No convergence



 **********************************************************************************************************************************
 DATASETS  * FILE   NREC   LENGTH (MB)   RECORD NAMES
              1      19       23.19       500      610      700      900      950      970     1000      129      960     1100
                                          VAR    BASINP    GEOM    SYMINP    ZMAT    AOBASIS   BASIS     P2S    ABASIS      S
                                         1400     1410     1420     1200     1210     1080     1600     1650     1700
                                           T        V       ECP      H0       H01     AOSYM     SMH    MOLCAS    OPER

              2       4        4.99       700     1000      520     2100
                                         GEOM     BASIS   MCVARS     RHF

 PROGRAMS   *        TOTAL       RHF       INT
 CPU TIMES  *       298.64    139.61    158.75
 REAL TIME  *       333.85 SEC
 DISK USED  *        21.54 GB
 SF USED    *         0.31 MB
 GA USED    *         0.00 MB       (max)       0.00 MB       (current)
 **********************************************************************************************************************************
   -->
   <time start="10:45:17" end="10:50:50" cpu="298.64" system="33.83" real="333.85"/>
   <storage units="megabyte" memory="8001.84" sf="0.31" df="432.19" eaf="21104.74" ga="0.0"/>
  </jobstep><!--
 SETTING SCF            =       -75.73836485  AU
 SETTING _CC_NORM_MAX   =         2.00000000
  --><jobstep command="RCCSD(T)" commandset="CCSD">
   <!--


 PROGRAM * CCSD (Restricted open-shell coupled cluster)     Authors: C. Hampel, H.-J. Werner, 1991, M. Deegan, P.J. Knowles, 1992


 Convergence thresholds:  THRVAR = 1.00D-08  THRDEN = 1.00D-06

 CCSD(T)     terms to be evaluated (factor= 1.000)


 Number of closed-shell orbitals:   8 (   4   2   2   0 )
 Number of active  orbitals:        8 (   3   2   2   1 )
 Number of external orbitals:     499 ( 196 119 119  65 )

 Memory could be reduced to 771.69 Mwords without degradation in triples

 Number of N-1 electron functions:              24
 Number of N-2 electron functions:             276
 Number of singly external CSFs:              3707
 Number of doubly external CSFs:          13243967
 Total number of CSFs:                    13247674

 Molecular orbitals read from record     2100.2  Type=RHF/CANONICAL (state 1.4)

 ?Error: RHF not converged. This error exit can be avoided using the IGNORE_ERROR option on the ORBITAL directive
   --><error/><!--
  --></jobstep><!--
  -->
  <input>
  <!--
 --></job><!--
--></molpro>
