<?xml version="1.0"?>
<molpro xmlns="http://www.molpro.net/schema/molpro-output"
  xmlns:xsd="http://www.w3.org/1999/XMLSchema"
  xmlns:cml="http://www.xml-cml.org/schema"
  xmlns:stm="http://www.xml-cml.org/schema"
  xmlns:xhtml="http://www.w3.org/1999/xhtml">
 <!--

 Nodes     nprocs
 nid02148    11
 Number of processes for MPI-2 version of Molpro:   nprocs(total)=   12   nprocs(compute)=   11   nprocs(helper)=    1

 Using customized tuning parameters: mindgm=7; mindgv=16; mindgc=1; mindgr=1; noblas=0; minvec=7
 default implementation of scratch files=sf

 --><job>
  <!--

 Variables initialized (889), CPU time= 0.03 sec
 Commands  initialized (702), CPU time= 0.00 sec, 572 directives.
 Default parameters read. Elapsed time= 0.12 sec

 Checking input...
 Passed
1


                                         ***  PROGRAM SYSTEM MOLPRO  ***
                                       Copyright, TTI GmbH Stuttgart, 2015
                                    Version 2015.1 linked Dec 29 2018 15:55:43


 **********************************************************************************************************************************
 LABEL *   Calculation for GdO, singlet and triplet
  64 bit mpp version                                                                     DATE: 29-Nov-22          TIME: 20:59:25
 **********************************************************************************************************************************

 SHA1:             19cd028119e0e09f93f0674bd8af7968d9b3eff6
 **********************************************************************************************************************************
  -->
  <!--

 THRESHOLDS:

 ZERO    =  1.00D-12  ONEINT  =  1.00D-12  TWOINT  =  1.00D-15  PREFAC  =  1.00D-14  LOCALI  =  1.00D-09  EORDER  =  1.00D-04
 ENERGY  =  0.00D+00  ETEST   =  0.00D+00  EDENS   =  0.00D+00  THRDEDEF=  1.00D-06  GRADIENT=  1.00D-02  STEP    =  1.00D-03
 ORBITAL =  1.00D-05  CIVEC   =  1.00D-05  COEFF   =  1.00D-04  PRINTCI =  5.00D-02  PUNCHCI =  9.90D+01  OPTGRAD =  3.00D-04
 OPTENERG=  1.00D-06  OPTSTEP =  3.00D-04  THRGRAD =  1.00D-10  COMPRESS=  1.00D-11  VARMIN  =  1.00D-07  VARMAX  =  1.00D-03
 THRDOUB =  0.00D+00  THRDIV  =  1.00D-05  THRRED  =  1.00D-07  THRPSP  =  1.00D+00  THRDC   =  1.00D-10  THRCS   =  1.00D-10
 THRNRM  =  1.00D-08  THREQ   =  0.00D+00  THRDE   =  1.00D+00  THRREF  =  1.00D-05  SPARFAC =  1.00D+00  THRDLP  =  1.00D-07
 THRDIA  =  1.00D-10  THRDLS  =  1.00D-07  THRGPS  =  0.00D+00  THRKEX  =  0.00D+00  THRDIS  =  2.00D-01  THRVAR  =  1.00D-10
 THRLOC  =  1.00D-06  THRGAP  =  1.00D-06  THRLOCT = -1.00D+00  THRGAPT = -1.00D+00  THRORB  =  1.00D-06  THRMLTP =  0.00D+00
 THRCPQCI=  1.00D-10  KEXTA   =  0.00D+00  THRCOARS=  0.00D+00  SYMTOL  =  1.00D-06  GRADTOL =  1.00D-06  THROVL  =  1.00D-08
 THRORTH =  1.00D-08  GRID    =  1.00D-06  GRIDMAX =  1.00D-03  DTMAX   =  0.00D+00  THROCCDE=  1.00D-01  THROCCDE=  1.00D-01



 THRESHOLDS:

 ZERO    =  1.00D-12  ONEINT  =  1.00D-12  TWOINT  =  1.00D-15  PREFAC  =  1.00D-14  LOCALI  =  1.00D-09  EORDER  =  1.00D-04
 ENERGY  =  0.00D+00  ETEST   =  0.00D+00  EDENS   =  0.00D+00  THRDEDEF=  1.00D-06  GRADIENT=  1.00D-02  STEP    =  1.00D-03
 ORBITAL =  1.00D-05  CIVEC   =  1.00D-05  COEFF   =  1.00D-04  PRINTCI =  5.00D-02  PUNCHCI =  9.90D+01  OPTGRAD =  3.00D-04
 OPTENERG=  1.00D-06  OPTSTEP =  3.00D-04  THRGRAD =  1.00D-10  COMPRESS=  1.00D-11  VARMIN  =  1.00D-07  VARMAX  =  1.00D-03
 THRDOUB =  0.00D+00  THRDIV  =  1.00D-05  THRRED  =  1.00D-07  THRPSP  =  1.00D+00  THRDC   =  1.00D-10  THRCS   =  1.00D-10
 THRNRM  =  1.00D-08  THREQ   =  0.00D+00  THRDE   =  1.00D+00  THRREF  =  1.00D-05  SPARFAC =  1.00D+00  THRDLP  =  1.00D-07
 THRDIA  =  1.00D-10  THRDLS  =  1.00D-07  THRGPS  =  0.00D+00  THRKEX  =  0.00D+00  THRDIS  =  2.00D-01  THRVAR  =  1.00D-10
 THRLOC  =  1.00D-06  THRGAP  =  1.00D-06  THRLOCT = -1.00D+00  THRGAPT = -1.00D+00  THRORB  =  1.00D-06  THRMLTP =  0.00D+00
 THRCPQCI=  1.00D-10  KEXTA   =  0.00D+00  THRCOARS=  0.00D+00  SYMTOL  =  1.00D-06  GRADTOL =  1.00D-06  THROVL  =  1.00D-15
 THRORTH =  1.00D-08  GRID    =  1.00D-06  GRIDMAX =  1.00D-03  DTMAX   =  0.00D+00  THROCCDE=  1.00D-01  THROCCDE=  1.00D-01



 Variable memory set to 1000000000 words,  buffer space   230000 words

 SETTING BASIS          =    USERDEF
 SETTING GD_CCSD        =      -109.29937150
 SETTING O_CCSD         =       -15.86622096
 SETTING NE             =        24.00000000
 SETTING SYMM           =         4.00000000
 SETTING SS             =         8.00000000
 SETTING A1             =         7.00000000
 SETTING B1             =         4.00000000
 SETTING B2             =         4.00000000
 SETTING A2             =         1.00000000

Geometry recognized as XYZ

  --><jobstep command="RKS-SCF" commandset="SCFPRO">
   <!--


 Recomputing integrals since basis changed


 Using spherical harmonics



 PROGRAM * SEWARD (Integral evaluation for generally contracted gaussian basis sets)     Author: Roland Lindh, 1990

 Geometry written to block  1 of record 700


 Point group  C2v


   --><cml:molecule>
    <cml:symmetry pointGroup="C2v"/>
    <cml:atomArray>
     <cml:atom id="a1" elementType="Gd" x3="0.0" y3="0.0" z3="0.0"/>
     <cml:atom id="a2" elementType="O" x3="0.0" y3="0.0" z3="1.1"/>
    </cml:atomArray>
    <cml:bondArray>
     <cml:bond atomRefs2="a1 a2"/>
    </cml:bondArray>
   </cml:molecule><!--

 ATOMIC COORDINATES

 NR  ATOM    CHARGE       X              Y              Z

   1  GD     18.00    0.000000000    0.000000000    0.000000000
   2  O       6.00    0.000000000    0.000000000    2.078698737

 Bond lengths in Bohr (Angstrom)

 1-2  2.078698737
     ( 1.100000000)

 NUCLEAR CHARGE:                   24
 NUMBER OF PRIMITIVE AOS:         673
 NUMBER OF SYMMETRY AOS:          515
 NUMBER OF CONTRACTIONS:          515   ( 203A1  + 123B1  + 123B2  +  66A2  )
 NUMBER OF CORE ORBITALS:           0   (   0A1  +   0B1  +   0B2  +   0A2  )
 NUMBER OF VALENCE ORBITALS:       21   (   9A1  +   5B1  +   5B2  +   2A2  )


 NUCLEAR REPULSION ENERGY   51.95558071

 EXTRA SYMMETRY OF AOS IN SYMMETRY 1:   1 1 1 1 1 1 1 1 1 1   1 1 1 1 1 1 1 1 1 1   1 1 1 1 1 1 1 1 1 1   1 1 1 1 1 1 1 1 1 1
                                        1 1 1 1 1 1 1 1 1 1   1 1 1 1 1 1 1 1 1 1   1 1 1 2 1 2 1 2 1 2   1 2 1 2 1 2 1 2 1 2
                                        1 2 1 2 1 2 1 2 1 2   1 2 1 2 1 2 1 2 1 2   1 2 1 2 1 2 1 2 1 2   1 2 1 2 1 2 1 2 1 2
                                        1 2 1 2 1 2 1 2 1 2   1 2 1 2 1 3 2 1 3 2   1 3 2 1 3 2 1 3 2 1   3 2 1 3 2 1 3 2 1 3
                                        2 2 3 1 2 3 1 2 3 1   1 1 1 1 1 1 1 1 1 1   1 1 1 1 1 1 1 1 1 1   1 1 2 1 2 1 2 1 2 1
                                        2 1 2
 EXTRA SYMMETRY OF AOS IN SYMMETRY 2:   1 1 1 1 1 1 1 1 1 1   1 1 1 1 1 1 1 1 1 1   1 1 1 1 1 1 1 1 1 1   1 1 1 1 1 1 1 1 1 1
                                        1 1 1 1 1 1 1 1 1 1   1 1 1 2 1 2 1 2 1 2   1 2 1 2 1 2 1 2 1 2   1 2 1 2 1 2 1 2 1 2
                                        1 2 1 2 1 2 1 2 1 2   1 2 1 2 1 2 1 2 1 2   3 1 2 3 1 2 3 1 1 1   1 1 1 1 1 1 1 1 1 1
                                        2 1 2
 EXTRA SYMMETRY OF AOS IN SYMMETRY 3:   1 1 1 1 1 1 1 1 1 1   1 1 1 1 1 1 1 1 1 1   1 1 1 1 1 1 1 1 1 1   1 1 1 1 1 1 1 1 1 1
                                        1 1 1 1 1 1 1 1 1 1   1 1 1 2 1 2 1 2 1 2   1 2 1 2 1 2 1 2 1 2   1 2 1 2 1 2 1 2 1 2
                                        1 2 1 2 1 2 1 2 1 2   1 2 1 2 1 2 1 2 1 2   3 1 2 3 1 2 3 1 1 1   1 1 1 1 1 1 1 1 1 1
                                        2 1 2
 EXTRA SYMMETRY OF AOS IN SYMMETRY 4:   1 1 1 1 1 1 1 1 1 1   1 1 1 1 1 1 1 1 1 1   1 1 1 1 1 1 1 1 1 1   1 1 1 1 1 1 1 2 1 2
                                        1 2 1 2 1 2 1 2 1 2   1 2 1 2 2 1 2 1 2 1   1 1 1 1 1 1

 Eigenvalues of metric

         1 0.100E-06 0.213E-06 0.556E-06 0.617E-06 0.717E-06 0.727E-06 0.868E-06 0.112E-05
         2 0.613E-06 0.716E-06 0.434E-05 0.133E-04 0.198E-04 0.232E-04 0.579E-04 0.895E-04
         3 0.613E-06 0.716E-06 0.434E-05 0.133E-04 0.198E-04 0.232E-04 0.579E-04 0.895E-04
         4 0.727E-06 0.238E-04 0.148E-03 0.539E-03 0.816E-03 0.921E-03 0.415E-02 0.842E-02


 Contracted 2-electron integrals neglected if value below      1.0D-15
 AO integral compression algorithm  1   Integral accuracy      1.0D-15

     8749.056 MB (compressed) written to integral file ( 47.1%)

     Node minimum: 638.845 MB, node maximum: 1040.974 MB


 NUMBER OF SORTED TWO-ELECTRON INTEGRALS:  203904772.     BUFFER LENGTH:  32768
 NUMBER OF SEGMENTS:   7  SEGMENT LENGTH:   31990770      RECORD LENGTH: 524288

 Memory used in sort:      32.55 MW

 SORT1 READ  2319806290. AND WROTE    94638271. INTEGRALS IN    276 RECORDS. CPU TIME:    50.31 SEC, REAL TIME:    73.56 SEC
 SORT2 READ  1037800907. AND WROTE  2243484243. INTEGRALS IN  30976 RECORDS. CPU TIME:     5.76 SEC, REAL TIME:    17.54 SEC

 Node minimum:   203897834.  Node maximum:   204073967. integrals

 OPERATOR DM      FOR CENTER  0  COORDINATES:    0.000000    0.000000    0.000000


 **********************************************************************************************************************************
 DATASETS  * FILE   NREC   LENGTH (MB)   RECORD NAMES
              1      19       23.11       500      610      700      900      950      970     1000      129      960     1100
                                          VAR    BASINP    GEOM    SYMINP    ZMAT    AOBASIS   BASIS     P2S    ABASIS      S
                                         1400     1410     1420     1200     1210     1080     1600     1650     1700
                                           T        V       ECP      H0       H01     AOSYM     SMH    MOLCAS    OPER

 PROGRAMS   *        TOTAL       INT
 CPU TIMES  *       170.57    170.32
 REAL TIME  *       207.83 SEC
 DISK USED  *        21.09 GB
 GA USED    *         0.00 MB       (max)       0.00 MB       (current)
 **********************************************************************************************************************************

 Density functional group PBE0=PBEX+PBEC
 Functional: PBEX(Automatically generated (new) PBEX)                          Gradient terms: 1
 Functional: PBEC(Automatically generated (new) PBEC)                          Gradient terms: 1
 Use grid at  1800.2


 Exact exchange will be calculated, factor:  0.2500

 Functional: PBEX                      Factor:  0.7500
 Functional: PBEC                      Factor:  1.0000

 Generated new metagrid on record  1800.2 with target accuracy 1.0D-06 and 6531 points in CPU time    0.1
 Computed new grid on record 1800.1 in CPU time    0.1
  410982 words reserved for DFT integration

 PROGRAM * RKS-SCF (Restricted open shell Kohn-Sham)     Authors: W. Meyer, H.-J. Werner, P.J. Knowles, 1993

 NUMBER OF ELECTRONS:      15+    8-    SPACE SYMMETRY=4    SPIN SYMMETRY: Octet
 CONVERGENCE THRESHOLDS:    1.00E-05 (Density)    1.00E-06 (Energy)
 MAX. NUMBER OF ITERATIONS:      200
 INTERPOLATION TYPE:            DIIS
 INTERPOLATION STEPS:              2 (START)      1 (STEP)
 LEVEL SHIFTS:                 -0.60 (CLOSED) -0.30 (OPEN)

 Number of closed-shell orbitals:    8 (   4   2   2   0 )
 Number of open-shell orbitals:      7 (   2   2   2   1 )


 Use fine grid record 1800.2 for energy threshold  1.0D-06
 Guess basis ATOMIC-GUESS,GD=ECP46_GUESS,O=ECP2_GUESS not found. No density guess!


 Molecular orbital dump at record        2202.2

 ITERATION    DDIFF          GRAD             ENERGY        2-EL.EN.            DIPOLE MOMENTS         DIIS   ORB.
    1      0.000D+00      0.000D+00       -76.47219573    521.753778    0.00000    0.00000    5.53544    0    start
    2      0.000D+00      0.215D+00       -48.23918573    134.677503    0.00000    0.00000  -68.79070    0    diag,B
    3      0.284D+01      0.104D+00       -68.44614382    525.814938    0.00000    0.00000   12.50444    1    diag,B
    4      0.284D+01      0.222D+00       -88.25147810    481.670555    0.00000    0.00000   10.91259    2    diag,B
    5      0.452D-01      0.164D+00      -101.27309601    444.885972    0.00000    0.00000    9.23097    3    diag,B
    6      0.731D-01      0.126D+00      -109.38122020    417.295425    0.00000    0.00000    7.44544    4    diag,B
    7      0.271D-01      0.998D-01      -113.46241820    399.337821    0.00000    0.00000    6.84679    5    diag,B
    8      0.796D-02      0.849D-01      -116.69157272    387.971141    0.00000    0.00000    4.92917    6    diag,B
    9      0.104D-01      0.721D-01      -118.74472631    372.875538    0.00000    0.00000    5.23756    7    diag,B
   10      0.298D-01      0.599D-01      -122.33029648    354.024752    0.00000    0.00000    2.80508    8    orth
   11      0.291D-01      0.371D-01      -124.18207863    333.097591    0.00000    0.00000    1.84738    9    diag,B
   12      0.210D-01      0.213D-01      -125.00240065    320.174430    0.00000    0.00000    0.31467   10    diag,B
   13      0.366D-01      0.694D-02      -125.15858083    313.182058    0.00000    0.00000   -0.25832   11    diag,B
   14      0.170D-01      0.216D-02      -125.17182767    314.089971    0.00000    0.00000   -0.30723   12    diag,B
   15      0.111D-01      0.123D-02      -125.17575168    313.769331    0.00000    0.00000   -0.26870   13    diag,B
   16      0.537D-02      0.912D-03      -125.17771136    314.240161    0.00000    0.00000   -0.23620   14    diag,B
   17      0.434D-02      0.270D-03      -125.17787605    314.388864    0.00000    0.00000   -0.22178   15    diag,B
   18      0.485D-03      0.631D-04      -125.17789149    314.437657    0.00000    0.00000   -0.21626   16    diag,B
   19      0.161D-03      0.157D-04      -125.17789292    314.434923    0.00000    0.00000   -0.21605   17    diag,B
   20      0.757D-04      0.853D-05      -125.17789330    314.431553    0.00000    0.00000   -0.21631   18    orth
   21      0.174D-04      0.298D-05      -125.17789343    314.430964    0.00000    0.00000   -0.21640   19    diag,B
   22      0.425D-05      0.383D-05      -125.17789748    314.429826    0.00000    0.00000   -0.21647    0    orth

 Final alpha occupancy:   6   4   4   1
 Final beta  occupancy:   4   2   2   0

 !RKS STATE 1.4 Energy               -125.177897480778
   --><property name="Energy" method="RKS" principal="true" stateSymmetry="4" stateNumber="1"
     value="-125.177897480778"/><!--
 Nuclear energy                        51.95558071
 One-electron energy                 -321.70121078
 Two-electron energy                  157.21491302
 Density functional                   -12.64718044     PBEX=-15.63186331 PBEC= -0.92328295
 Virial quotient                       -0.77207964
 !RKS STATE 1.4 Dipole moment           0.00000000     0.00000000    -0.21646920
 Dipole moment /Debye                   0.00000000     0.00000000    -0.55017380
   --><property name="Dipole moment" method="RKS" principal="true" stateSymmetry="4"
     stateNumber="1" value="0.0 0.0 -0.216469204185357"/><!--

 ELECTRON ORBITALS
 =================


   Orb  Occ    Energy  Couls-En    Coefficients

                                   1 1s      1 1s      1 1s      1 1s      1 1s      1 1s      1 1s      1 1s      1 1s      1 1s
                                   1 1s      1 1s      1 1s      1 1s      1 1s      1 1s      1 1s      1 1s      1 1s      1 1s
                                   1 1s      1 1s      1 1s      1 1s      1 1s      1 1s      1 1s      1 1s      1 1s      1 1s
                                   1 1s      1 1s      1 2pz     1 2pz     1 2pz     1 2pz     1 2pz     1 2pz     1 2pz     1 2pz
                                   1 2pz     1 2pz     1 2pz     1 2pz     1 2pz     1 2pz     1 2pz     1 2pz     1 2pz     1 2pz
                                   1 2pz     1 2pz     1 2pz     1 2pz     1 2pz     1 2pz     1 2pz     1 2pz     1 2pz     1 2pz
                                   1 2pz     1 2pz     1 3d0     1 3d2+    1 3d0     1 3d2+    1 3d0     1 3d2+    1 3d0     1 3d2+
                                   1 3d0     1 3d2+    1 3d0     1 3d2+    1 3d0     1 3d2+    1 3d0     1 3d2+    1 3d0     1 3d2+
                                   1 3d0     1 3d2+    1 3d0     1 3d2+    1 3d0     1 3d2+    1 3d0     1 3d2+    1 3d0     1 3d2+
                                   1 3d0     1 3d2+    1 3d0     1 3d2+    1 3d0     1 3d2+    1 3d0     1 3d2+    1 3d0     1 3d2+
                                   1 3d0     1 3d2+    1 3d0     1 3d2+    1 3d0     1 3d2+    1 4f0     1 4f2+    1 4f0     1 4f2+
                                   1 4f0     1 4f2+    1 4f0     1 4f2+    1 4f0     1 4f2+    1 4f0     1 4f2+    1 4f0     1 4f2+
                                   1 4f0     1 4f2+    1 4f0     1 4f2+    1 4f0     1 4f2+    1 4f0     1 4f2+    1 4f0     1 4f2+
                                   1 4f0     1 4f2+    1 4f0     1 4f2+    1 5g0     1 5g4+    1 5g2+    1 5g0     1 5g4+    1 5g2+
                                   1 5g0     1 5g4+    1 5g2+    1 5g0     1 5g4+    1 5g2+    1 5g0     1 5g4+    1 5g2+    1 5g0
                                   1 5g4+    1 5g2+    1 5g0     1 5g4+    1 5g2+    1 5g0     1 5g4+    1 5g2+    1 5g0     1 5g4+
                                   1 5g2+    1 6h2+    1 6h4+    1 6h0     1 6h2+    1 6h4+    1 6h0     1 6h2+    1 6h4+    1 6h0
                                   2 1s      2 1s      2 1s      2 1s      2 1s      2 1s      2 1s      2 1s      2 1s      2 1s
                                   2 1s      2 1s      2 1s      2 2pz     2 2pz     2 2pz     2 2pz     2 2pz     2 2pz     2 2pz
                                   2 2pz     2 3d0     2 3d2+    2 3d0     2 3d2+    2 3d0     2 3d2+    2 3d0     2 3d2+    2 4f0
                                   2 4f2+    2 4f0     2 4f2+

   1.1   2    -2.3399  -18.4144 -0.000000  0.000001 -0.000004  0.000075  0.000329  0.001020  0.002135  0.004646 -0.001762  0.005339
                                -0.092395  0.413267 -0.124929  0.011715 -0.173418  0.342474  0.474133  0.291594  0.103519 -0.000132
                                -0.000592 -0.001737 -0.004834  0.142489 -0.794986  0.768377 -0.242299 -0.337057 -0.157070 -0.004516
                                 0.001575 -0.000339  0.000000 -0.000000  0.000001 -0.000002  0.000002 -0.000003  0.000007 -0.000019
                                 0.000077 -0.000701 -0.007675 -0.010804 -0.007594 -0.105164  0.101909  0.122918 -0.024847  0.106156
                                 0.039182  0.002814  0.011207  0.025174  0.001056  0.100803 -0.095141 -0.001442 -0.017132  0.006890
                                 0.000212 -0.000022 -0.000001  0.000000  0.000003 -0.000000 -0.000011  0.000000  0.000060 -0.000000
                                -0.001124  0.000000 -0.010739  0.000001  0.026652 -0.000004 -0.018492 -0.000001  0.062619  0.000002
                                 0.052170  0.000000  0.002727 -0.000000  0.020581 -0.000003 -0.032934  0.000005 -0.011550  0.000001
                                -0.040259  0.000002  0.004306 -0.000001  0.026028 -0.000000  0.018280 -0.000000 -0.003493  0.000000
                                 0.000675 -0.000000 -0.000229  0.000000  0.000059 -0.000000  0.000006  0.000000 -0.000050 -0.000000
                                 0.000773  0.000000  0.013970  0.000002  0.024296  0.000003  0.036034  0.000003  0.005735  0.000001
                                 0.001926  0.000001 -0.004035 -0.000000  0.017242 -0.000000  0.004869  0.000000  0.006468 -0.000000
                                -0.000821  0.000000  0.000210 -0.000000  0.000232 -0.000049  0.000000 -0.000609  0.000414  0.000000
                                 0.002494  0.000030 -0.000000  0.006225 -0.000653  0.000001 -0.000822 -0.000015 -0.000000  0.005223
                                 0.000463 -0.000000  0.000227 -0.000027 -0.000000  0.001475  0.000049  0.000000  0.000248 -0.000015
                                -0.000000  0.000000 -0.000017 -0.000074  0.000000  0.000125  0.000679  0.000000  0.000012  0.002038
                                -0.000000  0.000002 -0.000018  0.000108 -0.000795  0.028602 -0.057241  0.102723  0.236118  0.043100
                                -0.202998 -0.030598 -0.045128 -0.003849 -0.031764 -0.111302 -0.160687 -0.063621  0.004858 -0.004100
                                 0.001039  0.017368  0.000000  0.052142  0.000000  0.020437 -0.000000  0.001658 -0.000000 -0.005080
                                -0.000000 -0.011224  0.000000

   2.1   2    -1.6073  -15.4344  0.000000 -0.000001  0.000003 -0.000049 -0.000213 -0.000660 -0.001384 -0.003017  0.001148 -0.003514
                                 0.066426 -0.314339  0.066020 -0.136847 -1.247548 -0.284223 -0.058752 -0.067483 -0.033407  0.000085
                                 0.000383  0.001125  0.003137 -0.104643  0.624482  0.680390 -0.041674  0.398690  0.046359  0.001924
                                -0.000724  0.000162  0.000000 -0.000000  0.000001 -0.000002  0.000002 -0.000003  0.000007 -0.000020
                                 0.000082 -0.000734 -0.007969 -0.011244  0.054967 -0.118977  0.145683  0.248307 -0.028546  0.146210
                                 0.060091  0.002927  0.011700 -0.003573 -0.095177  0.160713  0.081933 -0.004887 -0.035076  0.017448
                                 0.001037 -0.000160 -0.000001  0.000000  0.000004 -0.000000 -0.000017 -0.000000  0.000089  0.000000
                                -0.001536 -0.000000 -0.011173 -0.000001  0.023412  0.000004 -0.017679  0.000000  0.041284 -0.000002
                                 0.060982 -0.000001  0.003468  0.000000  0.019391  0.000002 -0.028699 -0.000005 -0.004321 -0.000001
                                -0.028124 -0.000002 -0.005349  0.000000  0.037446  0.000000  0.023728  0.000000 -0.005709  0.000000
                                 0.001125 -0.000000 -0.000382  0.000000  0.000099 -0.000000  0.000009  0.000000 -0.000074 -0.000000
                                 0.001110  0.000000  0.018998  0.000008  0.030291  0.000011  0.043649  0.000010  0.014875  0.000005
                                 0.003859  0.000002 -0.001823  0.000000  0.015531 -0.000001  0.005025  0.000001  0.008586 -0.000001
                                -0.001547  0.000000  0.000379 -0.000000  0.000179  0.000036 -0.000000  0.000040 -0.000338 -0.000000
                                 0.002067  0.000009  0.000000  0.002704  0.000655  0.000000 -0.000600  0.000265  0.000001  0.005336
                                -0.000607  0.000000 -0.000210  0.000007 -0.000000  0.001966 -0.000062  0.000000  0.000182  0.000019
                                -0.000000  0.000001  0.000025 -0.000127  0.000000  0.000185  0.000834  0.000001 -0.000214  0.001430
                                -0.000000  0.000002 -0.000018  0.000111 -0.000810  0.029103 -0.055387  0.101755  0.273209  0.115351
                                -0.297733 -0.032389 -0.046814 -0.002503 -0.020785 -0.075370 -0.126554 -0.070691  0.015579 -0.002875
                                 0.000670  0.009805  0.000000  0.040907  0.000000  0.020885 -0.000000  0.000767  0.000000 -0.003314
                                -0.000000 -0.010135  0.000000

   3.1   2    -0.9663  -12.3897 -0.000000  0.000000 -0.000001  0.000025  0.000109  0.000338  0.000710  0.001554 -0.000601  0.001939
                                -0.026505  0.031997 -0.068370 -0.004338 -0.672377  0.092787  0.352610  0.201898  0.114740 -0.000044
                                -0.000196 -0.000576 -0.001613  0.041119 -0.083833  0.708653 -0.032429  0.245131 -0.176440 -0.004736
                                 0.001626 -0.000348  0.000000 -0.000000  0.000001 -0.000002  0.000003 -0.000004  0.000008 -0.000023
                                 0.000094 -0.000840 -0.009143 -0.013303 -0.012041 -0.109218  0.084713  0.232205  0.113309  0.259979
                                 0.105220  0.003350  0.013477  0.034053 -0.017652  0.142049 -0.038242 -0.016498 -0.092066  0.052081
                                 0.003889 -0.000647 -0.000001  0.000000  0.000004 -0.000000 -0.000018  0.000000  0.000095 -0.000000
                                -0.001673  0.000000 -0.013120  0.000000  0.019505 -0.000000 -0.007642 -0.000000  0.048137  0.000000
                                 0.035154  0.000001  0.003861 -0.000000  0.022894 -0.000000 -0.029383  0.000000 -0.002525  0.000001
                                -0.090813  0.000001  0.059691 -0.000001  0.057296  0.000000  0.028323 -0.000001 -0.014720  0.000000
                                 0.003118 -0.000000 -0.001109  0.000000  0.000295 -0.000000  0.000011  0.000000 -0.000091 -0.000000
                                 0.001335  0.000001  0.022040  0.000013  0.032509  0.000019  0.043775  0.000019  0.002842  0.000010
                                 0.005216  0.000003  0.001863  0.000001  0.026523 -0.000000  0.031260  0.000002  0.000563 -0.000001
                                -0.001110  0.000001 -0.000002 -0.000000  0.000194 -0.000009 -0.000000 -0.000328  0.000055 -0.000000
                                 0.002718  0.000003  0.000000  0.003520 -0.000137  0.000000 -0.001225  0.000134  0.000000  0.004606
                                -0.000288  0.000000  0.004546 -0.000166 -0.000000  0.004020 -0.000024  0.000000 -0.001677 -0.000001
                                -0.000000  0.000001 -0.000030 -0.000081  0.000000  0.000097  0.000818  0.000001 -0.000087  0.001924
                                 0.000000 -0.000004  0.000027 -0.000163  0.001145 -0.035965  0.056980 -0.108407 -0.380151 -0.644008
                                -0.656012  0.040268  0.058708 -0.007772 -0.067621 -0.231587 -0.334476 -0.140093  0.086906 -0.005720
                                 0.002111  0.019532  0.000000  0.062687 -0.000000  0.035097 -0.000000  0.001844  0.000000 -0.006687
                                -0.000000 -0.014350  0.000001

   4.1   2    -0.5434  -16.6760 -0.000000  0.000000 -0.000000  0.000000  0.000000  0.000000  0.000000  0.000001 -0.000000 -0.000001
                                 0.000032 -0.000253 -0.000154 -0.000440 -0.007276  0.001117 -0.000143  0.000436  0.000082 -0.000000
                                -0.000000 -0.000000 -0.000001 -0.000053  0.000542  0.006042 -0.000086  0.001783 -0.000136 -0.000002
                                 0.000001 -0.000000  0.000000 -0.000000  0.000000 -0.000000  0.000000 -0.000000  0.000000 -0.000000
                                 0.000000 -0.000001  0.000004 -0.000004 -0.000315 -0.000262 -0.000185  0.000689 -0.000580  0.000760
                                 0.000803  0.000002 -0.000007  0.000183  0.000526  0.000319 -0.001945 -0.000105 -0.000532  0.000314
                                 0.000026 -0.000004 -0.000000 -0.000000  0.000000  0.000001 -0.000000 -0.000005  0.000001  0.000022
                                -0.000014 -0.000354 -0.000120 -0.003274  0.000269  0.009374 -0.000160 -0.008319  0.000212  0.005756
                                 0.000822  0.041937  0.000033  0.000829  0.000226  0.006402 -0.000351 -0.010893  0.000106  0.003420
                                -0.000303  0.029323 -0.000014  0.011192  0.000236  0.014258  0.000270  0.001356 -0.000045  0.002104
                                 0.000008 -0.000580 -0.000003  0.000282  0.000001 -0.000084  0.000000  0.000137 -0.000003 -0.001098
                                 0.000040  0.015715  0.000639  0.253336  0.000889  0.378733  0.000940  0.382875  0.000424  0.232295
                                 0.000182  0.055918  0.000124  0.013576  0.000202  0.004584  0.000017  0.058181  0.000091 -0.031171
                                -0.000007  0.018967  0.000002 -0.006769  0.000001 -0.000000  0.000109 -0.000005 -0.000000  0.000153
                                 0.000023  0.000000  0.001204  0.000008  0.000002  0.005833 -0.000017  0.000000  0.004965  0.000067
                                -0.000005  0.003697 -0.000038 -0.000001 -0.004512  0.000028 -0.000001  0.002353  0.000002  0.000000
                                -0.000795  0.000596  0.000001 -0.000001  0.001020  0.000003  0.000007  0.005492  0.000003  0.000006
                                -0.000000  0.000000 -0.000000  0.000000 -0.000001  0.000044 -0.000099  0.000171  0.000531 -0.000402
                                -0.002293 -0.000048 -0.000072 -0.000008 -0.000072 -0.000281 -0.000642  0.000101 -0.000028 -0.000009
                                 0.000002  0.000062  0.011449  0.000335  0.018293  0.000048  0.009407  0.000004  0.000666 -0.000028
                                -0.008459 -0.000095  0.005069

   5.1   +    -0.7663  -15.9738 -0.000000  0.000000 -0.000000  0.000004  0.000020  0.000060  0.000124  0.000257 -0.000086  0.000160
                                -0.008843  0.087362  0.053017  0.144121  2.410291 -0.362387  0.040115 -0.144629 -0.028993 -0.000008
                                -0.000035 -0.000102 -0.000272  0.015265 -0.184531 -2.000270  0.029063 -0.601575  0.047731  0.000865
                                -0.000257  0.000050 -0.000000  0.000000 -0.000000  0.000001 -0.000002  0.000002 -0.000005  0.000014
                                -0.000054  0.000343  0.001504  0.003564  0.101946  0.090786  0.055706 -0.233698  0.186168 -0.258582
                                -0.266715 -0.000888 -0.002207 -0.058756 -0.173111 -0.103430  0.643105  0.035039  0.177583 -0.104781
                                -0.008645  0.001481  0.000002 -0.000000 -0.000011  0.000000  0.000045 -0.000000 -0.000237  0.000000
                                 0.004296 -0.000001  0.038522 -0.000010 -0.088127  0.000028  0.053220 -0.000026 -0.071279  0.000018
                                -0.274606  0.000126 -0.010177  0.000003 -0.073306  0.000020  0.114154 -0.000033 -0.034735  0.000012
                                 0.098374  0.000090  0.001141  0.000030 -0.079800  0.000041 -0.089559  0.000002  0.015192  0.000007
                                -0.002889 -0.000002  0.000942  0.000001 -0.000239 -0.000000 -0.000110  0.000000  0.000884 -0.000003
                                -0.012762  0.000048 -0.204042  0.000781 -0.286380  0.001166 -0.305850  0.001174 -0.139047  0.000707
                                -0.057841  0.000174 -0.039787  0.000045 -0.067938  0.000011 -0.006932  0.000174 -0.029898 -0.000094
                                 0.002235  0.000057 -0.000525 -0.000020 -0.000669 -0.000014  0.000000  0.001550 -0.000028  0.000000
                                -0.007589 -0.000153  0.000004 -0.002936 -0.000569  0.000017  0.005263  0.000095  0.000015 -0.022177
                                 0.001720  0.000012  0.012217  0.000481 -0.000014 -0.009135  0.000184  0.000007 -0.000493 -0.000027
                                -0.000002  0.000002 -0.000459  0.000272  0.000003 -0.000873 -0.002255  0.000016 -0.000622 -0.001865
                                 0.000000 -0.000001  0.000007 -0.000043  0.000332 -0.014454  0.032851 -0.055825 -0.173246  0.145518
                                 0.775337  0.015388  0.023472  0.003024  0.025729  0.099261  0.221779 -0.026631  0.005688  0.003125
                                -0.000810 -0.020784  0.000034 -0.111948  0.000052 -0.017097  0.000026 -0.001508  0.000002  0.009498
                                -0.000025  0.031761  0.000016

   6.1   +    -0.2977   -8.9608  0.000000 -0.000000  0.000000 -0.000000 -0.000000 -0.000000 -0.000000 -0.000000  0.000000 -0.000000
                                 0.000000 -0.000004 -0.000004  0.000002 -0.000054  0.000023 -0.000028  0.000003 -0.000006  0.000000
                                 0.000000  0.000000  0.000000 -0.000001  0.000008  0.000032  0.000033  0.000042  0.000010  0.000000
                                -0.000000  0.000000  0.000000 -0.000000  0.000000 -0.000000  0.000000 -0.000000  0.000000 -0.000000
                                 0.000000 -0.000000  0.000000  0.000000  0.000002 -0.000007 -0.000004  0.000036  0.000014  0.000010
                                 0.000018 -0.000000 -0.000000 -0.000000 -0.000001  0.000010  0.000007 -0.000003 -0.000010  0.000007
                                 0.000001 -0.000000  0.000000 -0.000001 -0.000000  0.000005  0.000000 -0.000021 -0.000000  0.000114
                                 0.000000 -0.002039  0.000002 -0.018166 -0.000005  0.055554  0.000007 -0.053786 -0.000004  0.011528
                                -0.000037  0.340433 -0.000000  0.004810 -0.000003  0.034888  0.000005 -0.061548  0.000000  0.017281
                                -0.000036  0.207983 -0.000032  0.290680 -0.000009  0.193180 -0.000000  0.139234  0.000000  0.004389
                                -0.000000  0.008005  0.000000 -0.003047 -0.000000  0.000877  0.000000 -0.000017 -0.000000  0.000135
                                 0.000001 -0.001912  0.000016 -0.030034  0.000021 -0.041570  0.000020 -0.039763  0.000008 -0.015093
                                 0.000005 -0.008312  0.000005 -0.006552 -0.000001  0.007727 -0.000002  0.002947  0.000002  0.003988
                                -0.000000 -0.000932  0.000000  0.000375  0.000000  0.000000 -0.000006 -0.000000  0.000000  0.000073
                                 0.000000  0.000000 -0.000277 -0.000001  0.000001  0.001627 -0.000001  0.000002  0.004209  0.000000
                                 0.000003  0.000452 -0.000001  0.000002  0.000896  0.000001  0.000001 -0.000571  0.000000  0.000000
                                -0.000330 -0.000099 -0.000000 -0.000000 -0.000152 -0.000000  0.000000 -0.000403  0.000000 -0.000000
                                 0.000000 -0.000000  0.000000 -0.000000  0.000000 -0.000002  0.000005 -0.000006 -0.000020 -0.000006
                                -0.000003  0.000001  0.000003  0.000000  0.000004  0.000013  0.000017  0.000022 -0.000006  0.000000
                                -0.000000 -0.000000  0.009033  0.000001  0.027912 -0.000002  0.011430 -0.000000  0.000679  0.000000
                                -0.003699 -0.000001 -0.001867

   7.1   0    -0.3201  -10.6573  0.000000 -0.000000  0.000000 -0.000002 -0.000009 -0.000027 -0.000055 -0.000118  0.000042 -0.000078
                                 0.002977 -0.037388 -0.025757 -0.020595 -0.725078  0.264733 -0.270976  0.061666 -0.066593  0.000003
                                 0.000015  0.000045  0.000123 -0.004886  0.077546  0.511643  0.238734  0.421571  0.134481  0.002902
                                -0.000984  0.000211  0.000000 -0.000000  0.000000 -0.000001  0.000001 -0.000001  0.000003 -0.000008
                                 0.000032 -0.000227 -0.001363 -0.002795 -0.012342 -0.047163 -0.019430  0.300479  0.065224  0.086643
                                 0.174135  0.000667  0.002062  0.014243  0.012031  0.070388 -0.048768 -0.024990 -0.094563  0.067450
                                 0.006705 -0.001215  0.000000  0.000000 -0.000002 -0.000000  0.000008  0.000000 -0.000044 -0.000000
                                 0.000728  0.000000  0.005699  0.000002 -0.026975 -0.000007  0.041827  0.000007 -0.015632 -0.000002
                                -0.196061 -0.000044 -0.001667 -0.000001 -0.010323 -0.000004  0.022826  0.000008  0.002999 -0.000002
                                -0.239391 -0.000026 -0.234880 -0.000039 -0.082314 -0.000033 -0.014172 -0.000027  0.001010 -0.000003
                                -0.002360 -0.000002  0.001005  0.000001 -0.000298 -0.000000  0.000065 -0.000000 -0.000521  0.000000
                                 0.007487 -0.000001  0.118385 -0.000009  0.162091 -0.000012  0.158940 -0.000011  0.082241 -0.000003
                                 0.034578 -0.000002  0.028527 -0.000002  0.011644  0.000003 -0.007950  0.000001  0.016484  0.000001
                                -0.000177  0.000000  0.000198 -0.000000  0.000191 -0.000001 -0.000000 -0.000586 -0.000003 -0.000000
                                 0.002083 -0.000003 -0.000000 -0.005757  0.000063 -0.000001 -0.005737 -0.000760 -0.000001  0.004125
                                 0.007079 -0.000001 -0.012873  0.006312 -0.000000  0.005593  0.004508  0.000000  0.000616  0.000901
                                 0.000000  0.000000  0.000293 -0.000104  0.000000  0.000290  0.000603  0.000000  0.000167 -0.000297
                                 0.000000 -0.000001  0.000006 -0.000038  0.000285 -0.011677  0.024365 -0.046081 -0.137367 -0.108866
                                -0.040184  0.012613  0.019228  0.002805  0.024626  0.080090  0.098254  0.191283 -0.039944  0.001606
                                -0.000766  0.001105 -0.000002  0.019790 -0.000005 -0.022945 -0.000002  0.000015 -0.000000 -0.000387
                                 0.000001 -0.008325  0.000000

   8.1   0    -0.2433   -6.7419  0.000000 -0.000000  0.000002 -0.000032 -0.000139 -0.000430 -0.000901 -0.001961  0.000752 -0.002451
                                 0.048007 -0.136777  0.055584 -0.067222 -0.419388 -0.479831  0.236555  0.338866 -0.059608  0.000055
                                 0.000250  0.000733  0.002040 -0.079872  0.328304  0.046703  0.066948  0.446381  0.296771  0.009461
                                -0.003027  0.000655  0.000000 -0.000000  0.000000 -0.000000  0.000000 -0.000000  0.000000 -0.000001
                                 0.000004 -0.000071 -0.001233 -0.001423  0.016573  0.003038  0.066837 -0.021817 -0.023996 -0.126391
                                -0.195788  0.000387  0.001778 -0.005398 -0.036824  0.008289  0.028355  0.013418  0.020041 -0.040899
                                -0.003764  0.000696 -0.000000  0.000000  0.000000 -0.000000 -0.000001  0.000000  0.000004 -0.000000
                                -0.000026  0.000000  0.000406  0.000000  0.003101  0.000000 -0.011124  0.000001  0.017313 -0.000001
                                 0.059594  0.000001  0.000014 -0.000000 -0.001230 -0.000000  0.000109 -0.000000 -0.006218 -0.000002
                                 0.052694 -0.000002  0.084082  0.000006  0.022134  0.000005 -0.023521  0.000006 -0.005957  0.000001
                                -0.000095  0.000001 -0.000040 -0.000000  0.000012  0.000000 -0.000021  0.000000  0.000165 -0.000000
                                -0.002364  0.000000 -0.037374  0.000002 -0.051292  0.000002 -0.048163  0.000002 -0.036000  0.000000
                                -0.010804  0.000001 -0.008886  0.000001 -0.006332 -0.000001 -0.004363 -0.000001 -0.014100  0.000000
                                -0.001442 -0.000000  0.000002  0.000000 -0.000042  0.000006 -0.000000  0.000146  0.000082  0.000000
                                -0.000385  0.000151 -0.000000  0.002136  0.000967 -0.000000 -0.000725 -0.001415  0.000000 -0.002502
                                 0.004271  0.000000  0.008289  0.006594 -0.000000 -0.006353  0.008582 -0.000000 -0.001262  0.003639
                                -0.000000 -0.000000 -0.000089  0.000025 -0.000000 -0.000140 -0.000183 -0.000000 -0.000106 -0.000234
                                 0.000000 -0.000000  0.000002 -0.000010  0.000057 -0.000378 -0.004032 -0.001052  0.019293 -0.092824
                                -0.172104  0.002537  0.000803 -0.002391 -0.021045 -0.071281 -0.116690 -0.130990  0.045107 -0.001635
                                 0.000649 -0.002383  0.000000 -0.010350 -0.000000  0.003517  0.000000 -0.000266  0.000000  0.000530
                                -0.000000  0.001578 -0.000000

                                   1 2px     1 2px     1 2px     1 2px     1 2px     1 2px     1 2px     1 2px     1 2px     1 2px
                                   1 2px     1 2px     1 2px     1 2px     1 2px     1 2px     1 2px     1 2px     1 2px     1 2px
                                   1 2px     1 2px     1 2px     1 2px     1 2px     1 2px     1 2px     1 2px     1 2px     1 2px
                                   1 3d1+    1 3d1+    1 3d1+    1 3d1+    1 3d1+    1 3d1+    1 3d1+    1 3d1+    1 3d1+    1 3d1+
                                   1 3d1+    1 3d1+    1 3d1+    1 3d1+    1 3d1+    1 3d1+    1 3d1+    1 3d1+    1 3d1+    1 3d1+
                                   1 3d1+    1 3d1+    1 4f1+    1 4f3+    1 4f1+    1 4f3+    1 4f1+    1 4f3+    1 4f1+    1 4f3+
                                   1 4f1+    1 4f3+    1 4f1+    1 4f3+    1 4f1+    1 4f3+    1 4f1+    1 4f3+    1 4f1+    1 4f3+
                                   1 4f1+    1 4f3+    1 4f1+    1 4f3+    1 4f1+    1 4f3+    1 4f1+    1 4f3+    1 4f1+    1 4f3+
                                   1 5g1+    1 5g3+    1 5g1+    1 5g3+    1 5g1+    1 5g3+    1 5g1+    1 5g3+    1 5g1+    1 5g3+
                                   1 5g1+    1 5g3+    1 5g1+    1 5g3+    1 5g1+    1 5g3+    1 5g1+    1 5g3+    1 6h1+    1 6h3+
                                   1 6h5+    1 6h1+    1 6h3+    1 6h5+    1 6h1+    1 6h3+    1 6h5+    2 2px     2 2px     2 2px
                                   2 2px     2 2px     2 2px     2 2px     2 2px     2 3d1+    2 3d1+    2 3d1+    2 3d1+    2 4f1+
                                   2 4f3+    2 4f1+    2 4f3+

   1.2   2    -1.2954  -14.6764  0.000000 -0.000000  0.000001 -0.000002  0.000003 -0.000003  0.000007 -0.000021  0.000088 -0.000840
                                -0.009369 -0.012029  0.080256 -0.102827  0.198143  0.241316 -0.118872  0.031435  0.016582  0.003446
                                 0.013358 -0.015961 -0.141399  0.132376  0.250858 -0.000560 -0.004407  0.001944  0.000131 -0.000022
                                -0.000000  0.000001 -0.000006  0.000030 -0.000527 -0.004132  0.013028 -0.012341  0.045608  0.003943
                                 0.001207  0.007568 -0.013599 -0.016550  0.019038 -0.115575  0.021082  0.008504  0.000401  0.000008
                                -0.000035  0.000014  0.000009  0.000001 -0.000075 -0.000012  0.001229  0.000168  0.024033  0.002619
                                 0.047848  0.003769  0.056976  0.003006  0.028658  0.001326 -0.000047  0.000677 -0.015745  0.000972
                                -0.032018  0.002314 -0.028812  0.000706  0.014805 -0.000007 -0.004217  0.000040  0.001348 -0.000013
                                 0.000107  0.000003  0.000130  0.000033  0.000342  0.000157  0.010472  0.000029 -0.002143  0.000186
                                -0.001547  0.000309 -0.010102  0.000065  0.001645  0.000028  0.000474 -0.000005 -0.000177  0.000178
                                 0.000060  0.000664  0.000350  0.000072  0.004712  0.000285 -0.000577  0.005428  0.046197  0.161073
                                 0.231093  0.269641 -0.026104  0.005204 -0.001467 -0.021150 -0.054407 -0.058956 -0.001640  0.008786
                                -0.000038  0.010620  0.000078

   2.2   2    -0.8123  -13.0900 -0.000000  0.000000 -0.000000  0.000001 -0.000002  0.000002 -0.000005  0.000013 -0.000056  0.000537
                                 0.006333  0.008191 -0.060385  0.049004 -0.056173 -0.270684 -0.384613  0.033424  0.046019 -0.002259
                                -0.009151  0.013718  0.117065 -0.099516 -0.289699 -0.005509 -0.023922  0.015040  0.001467 -0.000264
                                -0.000001  0.000003 -0.000012  0.000065 -0.001152 -0.009691  0.031404 -0.030781  0.042216  0.089703
                                 0.002678  0.018426 -0.033596 -0.005982  0.081161 -0.145293  0.044157  0.024070 -0.001321  0.000633
                                -0.000315  0.000097  0.000021 -0.000000 -0.000174  0.000001  0.002667  0.000004  0.046902  0.000247
                                 0.080148  0.000302  0.095657  0.000830  0.057278  0.000931  0.006229  0.000118 -0.012248 -0.000324
                                -0.032489 -0.002158 -0.044941 -0.000472  0.028506 -0.000222 -0.007750  0.000082  0.002540 -0.000030
                                 0.000231  0.000000  0.000059  0.000087  0.001404  0.000110  0.013777  0.000027  0.000383 -0.000183
                                 0.003122  0.000573 -0.016021  0.000252  0.002854  0.000108  0.001314 -0.000008 -0.000075  0.000169
                                -0.000017  0.001124 -0.000146  0.000035  0.004197 -0.000226  0.000580  0.008236  0.071171  0.246044
                                 0.375126  0.480756 -0.053332  0.006905 -0.002230 -0.016505 -0.048456 -0.082989 -0.001051  0.007855
                                -0.000074  0.010648  0.000095

   3.2   +    -0.6660  -16.8743 -0.000000  0.000000 -0.000000  0.000000 -0.000000  0.000000 -0.000000  0.000000 -0.000002  0.000061
                                 0.001740  0.002095  0.014163  0.021502  0.035704  0.009260  0.085638 -0.032192  0.002374 -0.000451
                                -0.002655 -0.010423 -0.021791 -0.016067 -0.024451 -0.005275 -0.015606  0.012832  0.001474 -0.000270
                                 0.000000 -0.000002  0.000007 -0.000039  0.000710  0.006402 -0.010415  0.000154  0.010948  0.044935
                                -0.001695 -0.012021  0.016550 -0.009380  0.019437  0.096149 -0.025904  0.011748 -0.010234  0.003810
                                -0.001667  0.000485 -0.000044 -0.000132  0.000349  0.001059 -0.005002 -0.015324 -0.080827 -0.251143
                                -0.115411 -0.367491 -0.112823 -0.357648 -0.060649 -0.196806 -0.020937 -0.059462 -0.011721 -0.024361
                                 0.026981  0.006358  0.005152 -0.048296 -0.003026  0.028900 -0.000296 -0.016748  0.000106  0.005900
                                -0.000106 -0.000072  0.000252 -0.000157 -0.001117 -0.001064  0.000115 -0.002748  0.000195 -0.002362
                                 0.003232 -0.000074  0.008212 -0.000126 -0.003839  0.000110  0.000904 -0.000019 -0.000165  0.000473
                                 0.000253 -0.000700  0.000111 -0.000009 -0.000912 -0.001780  0.000033  0.000673  0.006173  0.017727
                                 0.034918 -0.078323  0.019182 -0.000067 -0.000188  0.003607  0.004651  0.031619  0.000244 -0.002594
                                -0.001329 -0.000691 -0.000885

   4.2   +    -0.6555  -16.4117 -0.000000  0.000000 -0.000000  0.000001 -0.000001  0.000002 -0.000004  0.000011 -0.000047  0.000434
                                 0.005034  0.007145  0.042368  0.055741  0.093411  0.034984  0.277744 -0.081758  0.008079 -0.001796
                                -0.007379 -0.035568 -0.043061 -0.070858 -0.097756 -0.015369 -0.045341  0.037350  0.004299 -0.000789
                                 0.000001 -0.000005  0.000022 -0.000115  0.002107  0.018685 -0.030779  0.001231  0.028176  0.133135
                                -0.005000 -0.035042  0.048493 -0.027180  0.057507  0.288476 -0.076755  0.035595 -0.030425  0.011322
                                -0.004953  0.001442 -0.000129  0.000044  0.001031 -0.000353 -0.014803  0.005125 -0.239777  0.084128
                                -0.343062  0.123129 -0.337320  0.120313 -0.182856  0.067119 -0.060957  0.019630 -0.033723  0.008126
                                 0.075891 -0.000318  0.013468  0.017061 -0.008975 -0.009739 -0.000914  0.005703  0.000325 -0.002010
                                -0.000292  0.000006  0.000743  0.000083 -0.003251  0.000338  0.000312  0.000814  0.001225  0.000689
                                 0.008949  0.001510  0.024495  0.000595 -0.011518  0.000283  0.002757 -0.000012  0.000082 -0.000213
                                -0.000186 -0.001610  0.000456 -0.000128 -0.002365  0.000856 -0.000047  0.001815  0.016824  0.046609
                                 0.095148 -0.238973  0.056000 -0.000512 -0.000511  0.011991  0.017488  0.096339  0.000800 -0.008430
                                 0.000482 -0.003035  0.000006

   5.2   0    -0.1686   -5.3802 -0.000000  0.000000 -0.000000  0.000001 -0.000001  0.000001 -0.000003  0.000008 -0.000032  0.000317
                                 0.003703  0.005199 -0.019982  0.028802 -0.074847 -0.138370  0.002003  0.302998  0.564008 -0.001330
                                -0.005420 -0.002227  0.059931 -0.059588 -0.132614 -0.022621  0.073833  0.173895  0.009903 -0.001863
                                 0.000000 -0.000000  0.000002 -0.000011  0.000185  0.001537 -0.005365  0.006488 -0.012367 -0.032849
                                -0.000427 -0.002866  0.005347  0.002730 -0.021461 -0.022870 -0.020232 -0.003450 -0.009643 -0.000654
                                -0.000322  0.000097  0.000003 -0.000002 -0.000022  0.000018  0.000284 -0.000251  0.003791 -0.003701
                                 0.003045 -0.004399  0.002272 -0.003878  0.006841 -0.003556  0.002136 -0.001399  0.004137 -0.001808
                                 0.005278  0.007487  0.006008  0.014323  0.004309  0.022629 -0.003965  0.011160  0.000934 -0.000186
                                 0.000006  0.000001 -0.000054 -0.000001  0.000209  0.000007 -0.001062  0.000136  0.001158 -0.000083
                                 0.000038  0.000194 -0.002419 -0.000007  0.002486 -0.000748  0.001158 -0.000227 -0.000001  0.000001
                                 0.000006 -0.000130  0.000049  0.000086 -0.000449  0.000082  0.000259  0.000141  0.001397  0.002388
                                 0.006915  0.017940  0.002551 -0.000273 -0.000042  0.006294  0.021438  0.023946  0.000544 -0.002256
                                 0.000114 -0.005328 -0.000334

   6.2   0    -0.0830   -4.1104 -0.000000  0.000000 -0.000000  0.000000 -0.000000  0.000000 -0.000001  0.000003 -0.000012  0.000118
                                 0.001418  0.001993  0.001438  0.012887  0.016667 -0.033718 -0.100850  0.043595  0.096849 -0.000501
                                -0.002082 -0.005082  0.006827 -0.024796 -0.060731 -0.059002 -0.104220  0.026389  0.000200 -0.001423
                                 0.000000 -0.000001  0.000003 -0.000016  0.000289  0.002584 -0.006071  0.004099  0.006056 -0.045573
                                -0.000685 -0.004910  0.007728 -0.005114 -0.014698 -0.086281 -0.134691 -0.172540 -0.379475 -0.326711
                                -0.066192 -0.002378 -0.000018  0.000000  0.000142 -0.000002 -0.001997  0.000023 -0.031025  0.000364
                                -0.040334  0.000466 -0.034973  0.000527 -0.009290  0.000307 -0.009499  0.000087 -0.010027  0.000131
                                 0.014248 -0.001799  0.010977 -0.001782  0.057431 -0.003321  0.023981 -0.005186  0.016727 -0.001771
                                 0.000020  0.000005  0.000160 -0.000019 -0.000135  0.000077  0.003874 -0.000160  0.000802  0.000427
                                 0.004354 -0.001980 -0.002231 -0.001923  0.005495 -0.005027  0.019609 -0.018750 -0.000019 -0.000008
                                -0.000015 -0.000075  0.000069  0.000016  0.001057  0.000017  0.000005  0.002361  0.020959  0.069862
                                 0.121526  0.169302 -0.086390  0.001231 -0.000645 -0.000645 -0.007180 -0.014682 -0.000002  0.000412
                                -0.000149  0.001807  0.000633

                                   1 2py     1 2py     1 2py     1 2py     1 2py     1 2py     1 2py     1 2py     1 2py     1 2py
                                   1 2py     1 2py     1 2py     1 2py     1 2py     1 2py     1 2py     1 2py     1 2py     1 2py
                                   1 2py     1 2py     1 2py     1 2py     1 2py     1 2py     1 2py     1 2py     1 2py     1 2py
                                   1 3d1-    1 3d1-    1 3d1-    1 3d1-    1 3d1-    1 3d1-    1 3d1-    1 3d1-    1 3d1-    1 3d1-
                                   1 3d1-    1 3d1-    1 3d1-    1 3d1-    1 3d1-    1 3d1-    1 3d1-    1 3d1-    1 3d1-    1 3d1-
                                   1 3d1-    1 3d1-    1 4f1-    1 4f3-    1 4f1-    1 4f3-    1 4f1-    1 4f3-    1 4f1-    1 4f3-
                                   1 4f1-    1 4f3-    1 4f1-    1 4f3-    1 4f1-    1 4f3-    1 4f1-    1 4f3-    1 4f1-    1 4f3-
                                   1 4f1-    1 4f3-    1 4f1-    1 4f3-    1 4f1-    1 4f3-    1 4f1-    1 4f3-    1 4f1-    1 4f3-
                                   1 5g1-    1 5g3-    1 5g1-    1 5g3-    1 5g1-    1 5g3-    1 5g1-    1 5g3-    1 5g1-    1 5g3-
                                   1 5g1-    1 5g3-    1 5g1-    1 5g3-    1 5g1-    1 5g3-    1 5g1-    1 5g3-    1 6h1-    1 6h3-
                                   1 6h5-    1 6h1-    1 6h3-    1 6h5-    1 6h1-    1 6h3-    1 6h5-    2 2py     2 2py     2 2py
                                   2 2py     2 2py     2 2py     2 2py     2 2py     2 3d1-    2 3d1-    2 3d1-    2 3d1-    2 4f1-
                                   2 4f3-    2 4f1-    2 4f3-

   1.3   2    -1.2953  -14.6763  0.000000 -0.000000  0.000001 -0.000002  0.000003 -0.000003  0.000007 -0.000021  0.000088 -0.000840
                                -0.009368 -0.012028  0.080255 -0.102827  0.198143  0.241321 -0.118851  0.031430  0.016583  0.003446
                                 0.013358 -0.015962 -0.141395  0.132369  0.250853 -0.000562 -0.004412  0.001947  0.000132 -0.000022
                                -0.000000  0.000001 -0.000006  0.000030 -0.000526 -0.004129  0.013025 -0.012340  0.045610  0.003950
                                 0.001206  0.007564 -0.013593 -0.016552  0.019040 -0.115557  0.021076  0.008507  0.000399  0.000009
                                -0.000035  0.000014  0.000009 -0.000001 -0.000075  0.000012  0.001228 -0.000168  0.024008 -0.002616
                                 0.047816 -0.003765  0.056950 -0.002998  0.028646 -0.001321 -0.000054 -0.000677 -0.015748 -0.000974
                                -0.032012 -0.002315 -0.028811 -0.000706  0.014805  0.000007 -0.004217 -0.000040  0.001348  0.000013
                                 0.000107 -0.000003  0.000130 -0.000033  0.000342 -0.000157  0.010472 -0.000029 -0.002143 -0.000186
                                -0.001546 -0.000309 -0.010100 -0.000065  0.001644 -0.000028  0.000474  0.000005 -0.000179 -0.000177
                                 0.000060  0.000664 -0.000350  0.000072  0.004711 -0.000284 -0.000577  0.005428  0.046199  0.161078
                                 0.231102  0.269627 -0.026101  0.005204 -0.001467 -0.021149 -0.054406 -0.058950 -0.001640  0.008786
                                 0.000039  0.010620 -0.000078

   2.3   2    -0.8123  -13.0892  0.000000 -0.000000  0.000000 -0.000001  0.000002 -0.000002  0.000005 -0.000013  0.000056 -0.000537
                                -0.006332 -0.008191  0.060376 -0.049019  0.056141  0.270678  0.384554 -0.033404 -0.046024  0.002259
                                 0.009149 -0.013711 -0.117050  0.099532  0.289727  0.005514  0.023935 -0.015050 -0.001468  0.000264
                                 0.000001 -0.000003  0.000012 -0.000065  0.001151  0.009684 -0.031393  0.030779 -0.042226 -0.089734
                                -0.002676 -0.018413  0.033579  0.005991 -0.081171  0.145225 -0.044137 -0.024081  0.001329 -0.000636
                                 0.000316 -0.000098 -0.000021 -0.000000  0.000174  0.000001 -0.002663  0.000004 -0.046828  0.000248
                                -0.080049  0.000304 -0.095565  0.000835 -0.057230  0.000936 -0.006210  0.000119  0.012258 -0.000325
                                 0.032468 -0.002158  0.044938 -0.000471 -0.028505 -0.000222  0.007750  0.000082 -0.002540 -0.000030
                                -0.000232  0.000001 -0.000059  0.000087 -0.001403  0.000110 -0.013777  0.000026 -0.000383 -0.000184
                                -0.003124  0.000574  0.016016  0.000252 -0.002851  0.000108 -0.001315 -0.000008  0.000077  0.000168
                                 0.000017 -0.001125 -0.000147 -0.000035 -0.004196 -0.000227 -0.000580 -0.008236 -0.071177 -0.246061
                                -0.375159 -0.480706  0.053322 -0.006905  0.002230  0.016502  0.048453  0.082966  0.001050 -0.007854
                                -0.000074 -0.010648  0.000094

   3.3   +    -0.6660  -16.8740 -0.000000  0.000000 -0.000000  0.000000 -0.000000  0.000000 -0.000000  0.000000 -0.000002  0.000062
                                 0.001743  0.002099  0.014209  0.021584  0.035825  0.009308  0.086028 -0.032308  0.002382 -0.000452
                                -0.002658 -0.010458 -0.021860 -0.016138 -0.024561 -0.005295 -0.015665  0.012881  0.001480 -0.000272
                                 0.000000 -0.000002  0.000007 -0.000039  0.000713  0.006428 -0.010460  0.000158  0.010982  0.045106
                                -0.001702 -0.012070  0.016619 -0.009415  0.019506  0.096549 -0.026010  0.011794 -0.010275  0.003825
                                -0.001673  0.000487 -0.000044  0.000132  0.000351 -0.001058 -0.005022  0.015317 -0.081153  0.251030
                                -0.115879  0.367325 -0.113283  0.357486 -0.060899  0.196716 -0.021020  0.059435 -0.011765  0.024351
                                 0.027086 -0.006357  0.005175  0.048273 -0.003040 -0.028887 -0.000296  0.016741  0.000106 -0.005898
                                -0.000107  0.000072  0.000253  0.000156 -0.001122  0.001064  0.000114  0.002747  0.000196  0.002362
                                 0.003245  0.000072  0.008246  0.000126 -0.003854 -0.000111  0.000907  0.000019 -0.000166 -0.000472
                                 0.000254 -0.000703 -0.000113 -0.000006 -0.000917  0.001778  0.000036  0.000674  0.006188  0.017764
                                 0.035008 -0.078687  0.019261 -0.000069 -0.000189  0.003624  0.004680  0.031756  0.000245 -0.002606
                                 0.001328 -0.000696  0.000885

   4.3   +    -0.6555  -16.4128 -0.000000  0.000000 -0.000000  0.000001 -0.000001  0.000002 -0.000004  0.000011 -0.000047  0.000434
                                 0.005032  0.007143  0.042363  0.055704  0.093364  0.035027  0.277738 -0.081723  0.008062 -0.001796
                                -0.007375 -0.035561 -0.043048 -0.070829 -0.097672 -0.015360 -0.045313  0.037328  0.004297 -0.000789
                                 0.000001 -0.000005  0.000022 -0.000115  0.002106  0.018680 -0.030775  0.001240  0.028148  0.133049
                                -0.004998 -0.035032  0.048482 -0.027166  0.057455  0.288391 -0.076732  0.035572 -0.030411  0.011316
                                -0.004950  0.001441 -0.000129 -0.000044  0.001031  0.000355 -0.014797 -0.005146 -0.239684 -0.084464
                                -0.342932 -0.123620 -0.337196 -0.120792 -0.182791 -0.067384 -0.060931 -0.019709 -0.033703 -0.008158
                                 0.075864  0.000326  0.013474 -0.017127 -0.008980  0.009778 -0.000911 -0.005726  0.000325  0.002018
                                -0.000292 -0.000007  0.000743 -0.000083 -0.003249 -0.000339  0.000308 -0.000817  0.001226 -0.000691
                                 0.008944 -0.001510  0.024489 -0.000595 -0.011514 -0.000283  0.002755  0.000012  0.000081  0.000213
                                -0.000187 -0.001610 -0.000457 -0.000129 -0.002366 -0.000860 -0.000048  0.001811  0.016795  0.046511
                                 0.094989 -0.239005  0.055990 -0.000514 -0.000511  0.011992  0.017498  0.096321  0.000800 -0.008429
                                -0.000484 -0.003037 -0.000007

   5.3   0    -0.1686   -5.3801 -0.000000  0.000000 -0.000000  0.000001 -0.000001  0.000001 -0.000003  0.000008 -0.000032  0.000317
                                 0.003703  0.005198 -0.019982  0.028801 -0.074843 -0.138368  0.001985  0.302976  0.563995 -0.001329
                                -0.005419 -0.002226  0.059927 -0.059582 -0.132608 -0.022615  0.073860  0.173898  0.009902 -0.001863
                                 0.000000 -0.000000  0.000002 -0.000011  0.000185  0.001536 -0.005364  0.006487 -0.012366 -0.032846
                                -0.000427 -0.002865  0.005346  0.002730 -0.021457 -0.022871 -0.020232 -0.003459 -0.009644 -0.000654
                                -0.000322  0.000096  0.000003  0.000002 -0.000022 -0.000018  0.000284  0.000251  0.003791  0.003705
                                 0.003046  0.004404  0.002273  0.003881  0.006840  0.003558  0.002136  0.001400  0.004137  0.001809
                                 0.005278 -0.007482  0.006010 -0.014315  0.004309 -0.022626 -0.003965 -0.011159  0.000934  0.000186
                                 0.000006 -0.000001 -0.000054  0.000001  0.000209 -0.000007 -0.001062 -0.000136  0.001157  0.000083
                                 0.000038 -0.000194 -0.002419  0.000008  0.002485  0.000749  0.001158  0.000227 -0.000001 -0.000001
                                 0.000006 -0.000130 -0.000049  0.000086 -0.000449 -0.000082  0.000259  0.000141  0.001397  0.002387
                                 0.006914  0.017940  0.002562 -0.000273 -0.000042  0.006293  0.021437  0.023945  0.000544 -0.002256
                                -0.000113 -0.005328  0.000335

   6.3   0    -0.0830   -4.1103 -0.000000  0.000000 -0.000000  0.000000 -0.000000  0.000000 -0.000001  0.000003 -0.000012  0.000118
                                 0.001418  0.001993  0.001437  0.012886  0.016666 -0.033718 -0.100839  0.043584  0.096824 -0.000501
                                -0.002082 -0.005081  0.006827 -0.024794 -0.060726 -0.058998 -0.104202  0.026381  0.000199 -0.001423
                                 0.000000 -0.000001  0.000003 -0.000016  0.000289  0.002584 -0.006070  0.004098  0.006055 -0.045566
                                -0.000685 -0.004910  0.007727 -0.005113 -0.014695 -0.086267 -0.134688 -0.172544 -0.379477 -0.326723
                                -0.066199 -0.002378 -0.000018 -0.000000  0.000142  0.000002 -0.001997 -0.000023 -0.031024 -0.000363
                                -0.040333 -0.000465 -0.034972 -0.000527 -0.009291 -0.000308 -0.009498 -0.000087 -0.010027 -0.000131
                                 0.014248  0.001798  0.010976  0.001780  0.057426  0.003319  0.023982  0.005183  0.016728  0.001770
                                 0.000020 -0.000005  0.000160  0.000019 -0.000136 -0.000077  0.003874  0.000160  0.000802 -0.000427
                                 0.004353  0.001979 -0.002232  0.001922  0.005493  0.005026  0.019607  0.018748 -0.000019  0.000008
                                -0.000015 -0.000075 -0.000069  0.000016  0.001057 -0.000017  0.000005  0.002361  0.020957  0.069857
                                 0.121516  0.169286 -0.086366  0.001231 -0.000645 -0.000645 -0.007180 -0.014681 -0.000002  0.000412
                                 0.000149  0.001807 -0.000633

                                   1 3d2-    1 3d2-    1 3d2-    1 3d2-    1 3d2-    1 3d2-    1 3d2-    1 3d2-    1 3d2-    1 3d2-
                                   1 3d2-    1 3d2-    1 3d2-    1 3d2-    1 3d2-    1 3d2-    1 3d2-    1 3d2-    1 3d2-    1 3d2-
                                   1 3d2-    1 3d2-    1 4f2-    1 4f2-    1 4f2-    1 4f2-    1 4f2-    1 4f2-    1 4f2-    1 4f2-
                                   1 4f2-    1 4f2-    1 4f2-    1 4f2-    1 4f2-    1 4f2-    1 5g2-    1 5g4-    1 5g2-    1 5g4-
                                   1 5g2-    1 5g4-    1 5g2-    1 5g4-    1 5g2-    1 5g4-    1 5g2-    1 5g4-    1 5g2-    1 5g4-
                                   1 5g2-    1 5g4-    1 5g2-    1 5g4-    1 6h4-    1 6h2-    1 6h4-    1 6h2-    1 6h4-    1 6h2-
                                   2 3d2-    2 3d2-    2 3d2-    2 3d2-    2 4f2-    2 4f2-

   1.4   +    -0.6930  -17.0455 -0.000000  0.000001 -0.000004  0.000022 -0.000355 -0.002814  0.007112 -0.006502  0.004419  0.026828
                                 0.000797  0.005300 -0.008558  0.004805  0.022394 -0.001975  0.007258 -0.003528  0.002265 -0.000893
                                 0.000400 -0.000117  0.000136 -0.001092  0.015875  0.261314  0.385265  0.379846  0.215192  0.060394
                                 0.022165 -0.008354  0.045798 -0.028346  0.016368 -0.005771  0.000081  0.000000  0.000102  0.000000
                                 0.001035  0.000000  0.004764  0.000000  0.003859  0.000000  0.003246  0.000000 -0.004566  0.000000
                                 0.002156  0.000000 -0.000767 -0.000000  0.000001  0.000069  0.000001  0.001003  0.000002  0.004637
                                 0.009616  0.012381  0.005659  0.000534 -0.007348  0.005523

   2.4   0    -0.2023   -8.6057 -0.000001  0.000006 -0.000024  0.000126 -0.002270 -0.020334  0.059496 -0.055195  0.000979  0.321003
                                 0.005369  0.038977 -0.067366  0.024031  0.215746  0.254750  0.212549  0.163051  0.037982  0.013644
                                -0.003482  0.000992 -0.000010  0.000082 -0.001159 -0.017941 -0.023217 -0.021370 -0.003840 -0.005654
                                -0.006151  0.004392  0.003492  0.004478 -0.000524  0.000304  0.000009  0.000000  0.000039  0.000000
                                -0.000107  0.000000  0.002082  0.000001  0.004156  0.000002  0.003334  0.000002  0.004144  0.000002
                                 0.001757  0.000001  0.000146  0.000000 -0.000000 -0.000011 -0.000000 -0.000086  0.000000 -0.000257
                                 0.009378  0.029264  0.017414  0.000714 -0.003855 -0.002291

   3.4   0    -0.0592   -2.8286 -0.000000  0.000002 -0.000008  0.000043 -0.000773 -0.006917  0.019812 -0.018114 -0.001101  0.103682
                                 0.001827  0.013243 -0.022665  0.009003  0.071583  0.098736  0.047684  0.007797 -0.263252 -0.472276
                                -0.351592 -0.037006 -0.000003  0.000022 -0.000302 -0.004552 -0.005544 -0.004945 -0.000110 -0.001602
                                -0.002057  0.002556  0.003418  0.004359  0.006490  0.015423  0.000002  0.000000  0.000019  0.000000
                                -0.000045  0.000000  0.000732  0.000000  0.001332  0.000001  0.001068  0.000001  0.001790  0.000000
                                -0.001892 -0.000000  0.006192 -0.000002 -0.000000 -0.000002 -0.000000 -0.000027  0.000000 -0.000031
                                 0.002783  0.008495  0.003064  0.000208 -0.001316 -0.001033

 HOMO      6.1    -0.297675 =      -8.1001eV
 LUMO      7.1    -0.320054 =      -8.7091eV
 LUMO-HOMO        -0.022379 =      -0.6090eV


 **********************************************************************************************************************************
 DATASETS  * FILE   NREC   LENGTH (MB)   RECORD NAMES
              1      20       23.19       500      610      700      900      950      970     1000      129      960     1100
                                          VAR    BASINP    GEOM    SYMINP    ZMAT    AOBASIS   BASIS     P2S    ABASIS      S
                                         1400     1410     1420     1200     1210     1080     1600     1650     1700     1800
                                           T        V       ECP      H0       H01     AOSYM     SMH    MOLCAS    OPER     GRID

              2       5        4.99       700     1000      520     1800     2202
                                         GEOM     BASIS   MCVARS    GRID      RKS

 PROGRAMS   *        TOTAL       RKS       INT
 CPU TIMES  *       208.52     37.88    170.32
 REAL TIME  *       266.47 SEC
 DISK USED  *        21.72 GB
 SF USED    *         0.31 MB
 GA USED    *         0.27 MB       (max)       0.27 MB       (current)
 **********************************************************************************************************************************
   -->
   <time start="20:59:26" end="21:03:52" cpu="208.52" system="33.66" real="266.47"/>
   <storage units="megabyte" memory="8001.84" sf="0.31" df="633.75" eaf="21089.21"
     ga="0.27"/>
  </jobstep><!--
  --><jobstep command="RHF-SCF" commandset="SCFPRO">
   <!--


 PROGRAM * RHF-SCF (OPEN SHELL)       Authors: W. Meyer, H.-J. Werner


 NUMBER OF ELECTRONS:      15+    8-    SPACE SYMMETRY=4    SPIN SYMMETRY: Octet
 CONVERGENCE THRESHOLDS:    1.00E-05 (Density)    1.00E-07 (Energy)
 MAX. NUMBER OF ITERATIONS:      200
 INTERPOLATION TYPE:            DIIS
 INTERPOLATION STEPS:              2 (START)      1 (STEP)
 LEVEL SHIFTS:                 -0.60 (CLOSED) -0.30 (OPEN)

 Number of closed-shell orbitals:    8 (   4   2   2   0 )
 Number of open-shell orbitals:      7 (   2   2   2   1 )


 Molecular orbitals read from record     2202.2  Type=RKS/CANONICAL (state 1.4)

 Molecular orbital dump at record        3202.2

 ITERATION    DDIFF          GRAD             ENERGY        2-EL.EN.            DIPOLE MOMENTS         DIIS   ORB.
    1      0.000D+00      0.000D+00      -122.61227252    294.266715    0.00000    0.00000   -0.21647    0    start
    2      0.000D+00      0.549D-02      -122.65117241    290.594959    0.00000    0.00000   -0.26414    1    diag,B
    3      0.900D-02      0.294D-02      -122.66257741    292.218925    0.00000    0.00000   -0.20052    2    diag,B
    4      0.345D-02      0.767D-03      -122.66804839    291.857259    0.00000    0.00000   -0.20325    3    diag,B
    5      0.106D-02      0.590D-03      -122.67210245    291.846201    0.00000    0.00000   -0.18665    4    diag,B
    6      0.144D-02      0.299D-03      -122.67414756    291.757216    0.00000    0.00000   -0.18309    5    diag,B
    7      0.166D-02      0.142D-03      -122.67464543    291.688797    0.00000    0.00000   -0.17991    6    diag,B
    8      0.831D-03      0.803D-04      -122.67480223    291.676133    0.00000    0.00000   -0.18106    7    orth
    9      0.327D-03      0.775D-04      -122.67482600    291.675025    0.00000    0.00000   -0.18104    8    diag,B
   10      0.208D-04      0.804D-04      -122.67462115    291.669141    0.00000    0.00000   -0.18110    9    diag,B
   11      0.330D-03      0.308D-04      -122.67461441    291.664871    0.00000    0.00000   -0.18090    9    diag,B
   12      0.177D-03      0.122D-04      -122.67461713    291.661855    0.00000    0.00000   -0.18078    9    diag,B
   13      0.352D-04      0.564D-05      -122.67461801    291.660614    0.00000    0.00000   -0.18037    9    diag,B
   14      0.617D-05      0.281D-05      -122.67461822    291.660549    0.00000    0.00000   -0.18019    9    diag,B
   15      0.152D-04      0.124D-05      -122.67461826    291.660879    0.00000    0.00000   -0.18008    9    diag,B
   16      0.539D-05      0.506D-06      -122.67461827    291.660853    0.00000    0.00000   -0.18008    0    orth

 Final alpha occupancy:   6   4   4   1
 Final beta  occupancy:   4   2   2   0

 !RHF STATE 1.4 Energy               -122.674618265463
   --><property name="Energy" method="RHF" principal="true" stateSymmetry="4" stateNumber="1"
     value="-122.674618265463"/><!--
 Nuclear energy                        51.95558071
 One-electron energy                 -320.46062564
 Two-electron energy                  145.83042667
 Virial quotient                       -0.79007697
 !RHF STATE 1.4 Dipole moment           0.00000000     0.00000000    -0.18007927
 Dipole moment /Debye                   0.00000000     0.00000000    -0.45768587
   --><property name="Dipole moment" method="RHF" principal="true" stateSymmetry="4"
     stateNumber="1" value="0.0 0.0 -0.18007926892488"/><!--

 ELECTRON ORBITALS
 =================


   Orb  Occ    Energy  Couls-En    Coefficients

                                   1 1s      1 1s      1 1s      1 1s      1 1s      1 1s      1 1s      1 1s      1 1s      1 1s
                                   1 1s      1 1s      1 1s      1 1s      1 1s      1 1s      1 1s      1 1s      1 1s      1 1s
                                   1 1s      1 1s      1 1s      1 1s      1 1s      1 1s      1 1s      1 1s      1 1s      1 1s
                                   1 1s      1 1s      1 2pz     1 2pz     1 2pz     1 2pz     1 2pz     1 2pz     1 2pz     1 2pz
                                   1 2pz     1 2pz     1 2pz     1 2pz     1 2pz     1 2pz     1 2pz     1 2pz     1 2pz     1 2pz
                                   1 2pz     1 2pz     1 2pz     1 2pz     1 2pz     1 2pz     1 2pz     1 2pz     1 2pz     1 2pz
                                   1 2pz     1 2pz     1 3d0     1 3d2+    1 3d0     1 3d2+    1 3d0     1 3d2+    1 3d0     1 3d2+
                                   1 3d0     1 3d2+    1 3d0     1 3d2+    1 3d0     1 3d2+    1 3d0     1 3d2+    1 3d0     1 3d2+
                                   1 3d0     1 3d2+    1 3d0     1 3d2+    1 3d0     1 3d2+    1 3d0     1 3d2+    1 3d0     1 3d2+
                                   1 3d0     1 3d2+    1 3d0     1 3d2+    1 3d0     1 3d2+    1 3d0     1 3d2+    1 3d0     1 3d2+
                                   1 3d0     1 3d2+    1 3d0     1 3d2+    1 3d0     1 3d2+    1 4f0     1 4f2+    1 4f0     1 4f2+
                                   1 4f0     1 4f2+    1 4f0     1 4f2+    1 4f0     1 4f2+    1 4f0     1 4f2+    1 4f0     1 4f2+
                                   1 4f0     1 4f2+    1 4f0     1 4f2+    1 4f0     1 4f2+    1 4f0     1 4f2+    1 4f0     1 4f2+
                                   1 4f0     1 4f2+    1 4f0     1 4f2+    1 5g0     1 5g4+    1 5g2+    1 5g0     1 5g4+    1 5g2+
                                   1 5g0     1 5g4+    1 5g2+    1 5g0     1 5g4+    1 5g2+    1 5g0     1 5g4+    1 5g2+    1 5g0
                                   1 5g4+    1 5g2+    1 5g0     1 5g4+    1 5g2+    1 5g0     1 5g4+    1 5g2+    1 5g0     1 5g4+
                                   1 5g2+    1 6h2+    1 6h4+    1 6h0     1 6h2+    1 6h4+    1 6h0     1 6h2+    1 6h4+    1 6h0
                                   2 1s      2 1s      2 1s      2 1s      2 1s      2 1s      2 1s      2 1s      2 1s      2 1s
                                   2 1s      2 1s      2 1s      2 2pz     2 2pz     2 2pz     2 2pz     2 2pz     2 2pz     2 2pz
                                   2 2pz     2 3d0     2 3d2+    2 3d0     2 3d2+    2 3d0     2 3d2+    2 3d0     2 3d2+    2 4f0
                                   2 4f2+    2 4f0     2 4f2+

   1.1   2    -2.7445  -18.8219 -0.000000  0.000001 -0.000004  0.000068  0.000300  0.000930  0.001959  0.004318 -0.001675  0.005422
                                -0.095918  0.366320 -0.128462  0.008504 -0.238815  0.346667  0.469193  0.287546  0.100375 -0.000120
                                -0.000539 -0.001588 -0.004474  0.149682 -0.729554  0.786572 -0.246254 -0.307314 -0.152773 -0.004321
                                 0.001499 -0.000322  0.000000 -0.000000  0.000001 -0.000002  0.000002 -0.000003  0.000006 -0.000018
                                 0.000072 -0.000673 -0.007539 -0.010539 -0.006959 -0.107007  0.105017  0.132628 -0.032382  0.116647
                                 0.045368  0.002746  0.010973  0.024777 -0.000345  0.107114 -0.107101 -0.002046 -0.020790  0.008857
                                 0.000351 -0.000045 -0.000001  0.000000  0.000004 -0.000000 -0.000016  0.000000  0.000083 -0.000000
                                -0.001498  0.000000 -0.012791  0.000000  0.029925 -0.000000 -0.021949  0.000000  0.067165  0.000000
                                 0.058151 -0.000001  0.003519 -0.000000  0.023657 -0.000000 -0.036852  0.000001 -0.008305 -0.000000
                                -0.040421 -0.000002  0.001880 -0.000000  0.029031 -0.000000  0.020442 -0.000000 -0.003830 -0.000000
                                 0.000719  0.000000 -0.000238 -0.000000  0.000061  0.000000  0.000006 -0.000000 -0.000050  0.000000
                                 0.000768 -0.000000  0.013711 -0.000000  0.026136 -0.000000  0.039411 -0.000000  0.008874 -0.000000
                                 0.001075 -0.000000 -0.007189 -0.000000  0.018565 -0.000000  0.004802 -0.000000  0.007370  0.000000
                                -0.000942 -0.000000  0.000241  0.000000  0.000260  0.000007  0.000000 -0.000297  0.000038  0.000000
                                 0.002824 -0.000121  0.000000  0.007651 -0.000263  0.000000 -0.000211  0.000297 -0.000000  0.005818
                                 0.000597 -0.000000  0.000006  0.000155 -0.000000  0.001670  0.000024 -0.000000  0.000275 -0.000003
                                -0.000000  0.000000  0.000017 -0.000046  0.000000  0.000037  0.000910  0.000000  0.000036  0.002747
                                -0.000000  0.000002 -0.000014  0.000092 -0.000813  0.031145 -0.059757  0.108064  0.257770  0.053042
                                -0.226610 -0.032479 -0.049689 -0.003822 -0.029952 -0.108949 -0.166264 -0.066240  0.005227 -0.004504
                                 0.000993  0.018036 -0.000000  0.055773 -0.000000  0.021479 -0.000000  0.001667 -0.000000 -0.005459
                                 0.000000 -0.012443  0.000000

   2.1   2    -1.9079  -15.6773  0.000000 -0.000001  0.000003 -0.000051 -0.000222 -0.000690 -0.001454 -0.003211  0.001248 -0.004087
                                 0.076998 -0.303379  0.070583 -0.141535 -1.207583 -0.302919 -0.110222 -0.093886 -0.044352  0.000089
                                 0.000400  0.001178  0.003325 -0.122350  0.630101  0.638566 -0.017949  0.406724  0.063285  0.002358
                                -0.000868  0.000192  0.000000 -0.000000  0.000001 -0.000002  0.000002 -0.000003  0.000006 -0.000018
                                 0.000076 -0.000708 -0.008027 -0.011234  0.048969 -0.104703  0.131968  0.237600 -0.028791  0.124918
                                 0.053453  0.002904  0.011749  0.000111 -0.099082  0.158662  0.090627 -0.004203 -0.030304  0.015029
                                 0.000891 -0.000138 -0.000000 -0.000000  0.000003  0.000000 -0.000011 -0.000000  0.000058  0.000000
                                -0.001056 -0.000000 -0.009405 -0.000000  0.025353  0.000001 -0.020193 -0.000001  0.038285 -0.000000
                                 0.064589  0.000001  0.002503  0.000000  0.017834  0.000000 -0.029686 -0.000001  0.000049  0.000000
                                -0.011629  0.000002 -0.006710 -0.000000  0.032108  0.000000  0.021251 -0.000000 -0.004684  0.000000
                                 0.000890 -0.000000 -0.000293  0.000000  0.000075 -0.000000  0.000008 -0.000000 -0.000065  0.000000
                                 0.000962 -0.000000  0.015797 -0.000001  0.026448 -0.000001  0.038872 -0.000001  0.015412 -0.000002
                                 0.002798  0.000000 -0.002868  0.000000  0.014685 -0.000000  0.003220 -0.000000  0.008011  0.000000
                                -0.001357 -0.000000  0.000341  0.000000  0.000281 -0.000003 -0.000000 -0.000117 -0.000024 -0.000000
                                 0.002311  0.000138  0.000000  0.004072  0.000338  0.000000  0.000402 -0.000107  0.000000  0.005628
                                -0.000644  0.000000 -0.000377 -0.000256  0.000000  0.001654 -0.000028  0.000000  0.000244  0.000001
                                -0.000000 -0.000000  0.000035 -0.000105 -0.000000  0.000097  0.000545 -0.000000 -0.000032  0.001275
                                -0.000000  0.000002 -0.000014  0.000091 -0.000791  0.030076 -0.054302  0.100903  0.273443  0.128634
                                -0.253370 -0.032519 -0.048877 -0.002045 -0.015991 -0.059684 -0.104954 -0.060292  0.010748 -0.002591
                                 0.000528  0.008933 -0.000000  0.036956 -0.000000  0.018055 -0.000000  0.000678 -0.000000 -0.003118
                                 0.000000 -0.009108  0.000000

   3.1   2    -1.1932  -12.7038 -0.000000  0.000000 -0.000001  0.000021  0.000091  0.000282  0.000595  0.001317 -0.000519  0.001753
                                -0.024243  0.021450 -0.061677 -0.027277 -0.787027  0.107568  0.268686  0.144675  0.094713 -0.000036
                                -0.000163 -0.000482 -0.001363  0.037772 -0.063636  0.798312  0.054922  0.348182 -0.146754 -0.003761
                                 0.001269 -0.000269  0.000000 -0.000000  0.000001 -0.000002  0.000003 -0.000004  0.000008 -0.000023
                                 0.000094 -0.000874 -0.009850 -0.013959 -0.009855 -0.108150  0.106593  0.266214  0.136794  0.257316
[...]
                                -0.003104  0.004173  0.004216  0.003589 -0.002294  0.003050 -0.000003  0.000000  0.000006  0.000000
                                -0.000096 -0.000000  0.000653  0.000002  0.001447  0.000008  0.000665  0.000021 -0.000061  0.000009
                                 0.001479 -0.000008 -0.003246  0.000019  0.000000  0.000003 -0.000000 -0.000031  0.000003 -0.000003
                                 0.004163  0.012823  0.005834  0.000313 -0.001696  0.000175

 HOMO      7.1    -0.061913 =      -1.6847eV
 LUMO      8.1    -0.055387 =      -1.5072eV
 LUMO-HOMO         0.006526 =       0.1776eV


 **********************************************************************************************************************************
 DATASETS  * FILE   NREC   LENGTH (MB)   RECORD NAMES
              1      20       23.19       500      610      700      900      950      970     1000      129      960     1100
                                          VAR    BASINP    GEOM    SYMINP    ZMAT    AOBASIS   BASIS     P2S    ABASIS      S
                                         1400     1410     1420     1200     1210     1080     1600     1650     1700     1800
                                           T        V       ECP      H0       H01     AOSYM     SMH    MOLCAS    OPER     GRID

              2       7       16.10       700     1000      520     1800     2202     3202     4202
                                         GEOM     BASIS   MCVARS    GRID      RKS      RHF      RKS

 PROGRAMS   *        TOTAL       RKS       RHF       RKS       INT
 CPU TIMES  *       280.30     48.22     23.39     37.88    170.32
 REAL TIME  *       372.53 SEC
 DISK USED  *        21.89 GB
 SF USED    *         0.31 MB
 GA USED    *         0.27 MB       (max)       0.27 MB       (current)
 **********************************************************************************************************************************
   -->
   <time start="21:04:26" end="21:05:38" cpu="48.27" system="12.48" real="72.2"/>
   <storage units="megabyte" memory="8001.84" sf="0.31" df="802.97" eaf="21089.21"
     ga="0.27"/>
  </jobstep><!--
  --><jobstep command="RHF-SCF" commandset="SCFPRO">
   <!--


 PROGRAM * RHF-SCF (OPEN SHELL)       Authors: W. Meyer, H.-J. Werner


 NUMBER OF ELECTRONS:      16+    8-    SPACE SYMMETRY=4    SPIN SYMMETRY: Nonet
 CONVERGENCE THRESHOLDS:    1.00E-05 (Density)    1.00E-07 (Energy)
 MAX. NUMBER OF ITERATIONS:      200
 INTERPOLATION TYPE:            DIIS
 INTERPOLATION STEPS:              2 (START)      1 (STEP)
 LEVEL SHIFTS:                 -0.60 (CLOSED) -0.30 (OPEN)

 Number of closed-shell orbitals:    8 (   4   2   2   0 )
 Number of open-shell orbitals:      8 (   3   2   2   1 )


 Molecular orbitals read from record     4202.2  Type=RKS/CANONICAL (state 1.4)

 Molecular orbital dump at record        5202.2

 ITERATION    DDIFF          GRAD             ENERGY        2-EL.EN.            DIPOLE MOMENTS         DIIS   ORB.
    1      0.000D+00      0.000D+00      -122.79606875    307.265941    0.00000    0.00000   -0.45343    0    start
    2      0.000D+00      0.509D-02      -122.82332341    303.684923    0.00000    0.00000   -0.44444    1    diag,B
    3      0.132D-01      0.253D-02      -122.83100349    305.952927    0.00000    0.00000   -0.35960    2    diag,B
    4      0.403D-02      0.595D-03      -122.83253934    305.607953    0.00000    0.00000   -0.36458    3    diag,B
    5      0.170D-02      0.266D-03      -122.83315010    305.793718    0.00000    0.00000   -0.34226    4    diag,B
    6      0.466D-03      0.115D-03      -122.83342722    305.877670    0.00000    0.00000   -0.33843    5    diag,B
    7      0.198D-03      0.960D-04      -122.83361201    305.906219    0.00000    0.00000   -0.33613    6    diag,B
    8      0.136D-03      0.107D-03      -122.83336358    305.884737    0.00000    0.00000   -0.33522    7    orth
    9      0.166D-03      0.754D-04      -122.83330712    305.927454    0.00000    0.00000   -0.33242    8    diag,B
   10      0.234D-03      0.390D-04      -122.83336982    305.990101    0.00000    0.00000   -0.33313    9    diag,B
   11      0.107D-03      0.282D-04      -122.83342648    306.044865    0.00000    0.00000   -0.33542    9    diag,B
   12      0.171D-03      0.205D-04      -122.83345822    306.082793    0.00000    0.00000   -0.33757    9    diag,B
   13      0.156D-03      0.165D-04      -122.83348214    306.105333    0.00000    0.00000   -0.33926    9    diag,B
   14      0.133D-03      0.138D-04      -122.83350463    306.117877    0.00000    0.00000   -0.33969    9    diag,B
   15      0.119D-03      0.121D-04      -122.83352076    306.125124    0.00000    0.00000   -0.33902    9    diag,B
   16      0.953D-04      0.115D-04      -122.83354262    306.135636    0.00000    0.00000   -0.33689    9    diag,B
   17      0.155D-03      0.111D-04      -122.83355359    306.141595    0.00000    0.00000   -0.33538    9    diag,B
   18      0.801D-04      0.111D-04      -122.83356023    306.145411    0.00000    0.00000   -0.33441    9    orth
   19      0.450D-04      0.111D-04      -122.83355730    306.143107    0.00000    0.00000   -0.33491    9    diag,B
   20      0.153D-04      0.110D-04      -122.83356115    306.145385    0.00000    0.00000   -0.33438    9    diag,B
   21      0.313D-04      0.110D-04      -122.83356111    306.145135    0.00000    0.00000   -0.33438    9    diag,B
   22      0.873D-06      0.110D-04      -122.83356008    306.143264    0.00000    0.00000   -0.33443    9    diag,B
   23      0.993D-05      0.110D-04      -122.83355498    306.136987    0.00000    0.00000   -0.33433    9    diag,B
   24      0.449D-04      0.108D-04      -122.83355451    306.136776    0.00000    0.00000   -0.33432    9    diag,B
   25      0.339D-05      0.108D-04      -122.83355330    306.137388    0.00000    0.00000   -0.33434    9    diag,B
   26      0.956D-05      0.109D-04      -122.83355067    306.135945    0.00000    0.00000   -0.33460    9    diag,B
   27      0.192D-04      0.109D-04      -122.83355484    306.138088    0.00000    0.00000   -0.33410    9    diag,B
   28      0.300D-04      0.109D-04      -122.83355304    306.136964    0.00000    0.00000   -0.33433    9    orth
   29      0.124D-04      0.109D-04      -122.83355466    306.138393    0.00000    0.00000   -0.33406    9    diag,B
   30      0.984D-05      0.109D-04      -122.83355401    306.137229    0.00000    0.00000   -0.33438    9    diag,B
   31      0.473D-05      0.109D-04      -122.83355649    306.138075    0.00000    0.00000   -0.33425    9    diag,B
   32      0.210D-04      0.109D-04      -122.83355367    306.135295    0.00000    0.00000   -0.33469    9    diag,B
   33      0.195D-04      0.108D-04      -122.83355306    306.133746    0.00000    0.00000   -0.33484    9    diag,B
   34      0.620D-05      0.107D-04      -122.83355822    306.135347    0.00000    0.00000   -0.33407    9    diag,B
   35      0.408D-04      0.106D-04      -122.83357240    306.143722    0.00000    0.00000   -0.33219    9    diag,B
   36      0.116D-03      0.102D-04      -122.83368303    306.170216    0.00000    0.00000   -0.31361    9    diag,B
   37      0.103D-02      0.331D-04      -122.83364379    306.173681    0.00000    0.00000   -0.32111    9    diag,B
   38      0.379D-03      0.132D-04      -122.83362911    306.171838    0.00000    0.00000   -0.32351    9    orth
   39      0.130D-03      0.106D-04      -122.83363884    306.176138    0.00000    0.00000   -0.32208    9    diag,B
   40      0.916D-04      0.111D-04      -122.83363889    306.175522    0.00000    0.00000   -0.32240    9    diag,B
   41      0.526D-05      0.107D-04      -122.83360066    306.160264    0.00000    0.00000   -0.32763    9    diag,B
   42      0.336D-03      0.968D-05      -122.83360922    306.165129    0.00000    0.00000   -0.32651    9    diag,B
   43      0.760D-04      0.949D-05      -122.83360739    306.163848    0.00000    0.00000   -0.32538    9    diag,B
   44      0.125D-04      0.989D-05      -122.83360859    306.163251    0.00000    0.00000   -0.32542    9    diag,B
   45      0.105D-04      0.984D-05      -122.83361344    306.172959    0.00000    0.00000   -0.32391    9    diag,B
   46      0.500D-04      0.109D-04      -122.83361446    306.172434    0.00000    0.00000   -0.32384    9    diag,B
   47      0.689D-05      0.106D-04      -122.83362422    306.177676    0.00000    0.00000   -0.32307    9    diag,B
   48      0.762D-04      0.929D-05      -122.83365817    306.184527    0.00000    0.00000   -0.31832    9    orth
   49      0.297D-03      0.122D-04      -122.83361855    306.177364    0.00000    0.00000   -0.32213    9    diag,B
   50      0.341D-03      0.103D-04      -122.83356319    306.143121    0.00000    0.00000   -0.32704    9    diag,B
   51      0.470D-03      0.178D-04      -122.83362318    306.174671    0.00000    0.00000   -0.31904    9    diag,B
   52      0.529D-03      0.178D-04      -122.83366646    306.178099    0.00000    0.00000   -0.31337    9    diag,B
   53      0.404D-03      0.274D-04      -122.83359938    306.169281    0.00000    0.00000   -0.32190    9    diag,B
   54      0.623D-03      0.136D-04      -122.83357324    306.154527    0.00000    0.00000   -0.32617    9    diag,B
   55      0.237D-03      0.117D-04      -122.83381017    306.113667    0.00000    0.00000   -0.30265    9    diag,B
   56      0.177D-02      0.839D-04      -122.83347373    306.061248    0.00000    0.00000   -0.32955    9    diag,B
   57      0.234D-02      0.583D-04      -122.83372780    306.167399    0.00000    0.00000   -0.31105    9    fixocc
   58      0.184D-02      0.400D-04      -122.83369315    306.180972    0.00000    0.00000   -0.31243    9    orth
   59      0.210D-03      0.324D-04      -122.83362003    306.179422    0.00000    0.00000   -0.31693    9    diag,B
   60      0.597D-03      0.273D-04      -122.83341873    306.022454    0.00000    0.00000   -0.32805    9    diag,B
   61      0.120D-02      0.886D-04      -122.83364266    306.187870    0.00000    0.00000   -0.31436    9    diag,B
   62      0.141D-02      0.272D-04      -122.83367657    306.187496    0.00000    0.00000   -0.31102    9    diag,B
   63      0.297D-03      0.339D-04      -122.83356547    306.147247    0.00000    0.00000   -0.32121    9    diag,B
   64      0.956D-03      0.342D-04      -122.83387908    306.092445    0.00000    0.00000   -0.30516    9    diag,B
   65      0.192D-02      0.919D-04      -122.83344712    306.037327    0.00000    0.00000   -0.32868    9    diag,B
   66      0.258D-02      0.766D-04      -122.83361839    306.179023    0.00000    0.00000   -0.32161    9    diag,B
   67      0.105D-02      0.123D-04      -122.83354641    306.124180    0.00000    0.00000   -0.32568    9    diag,B
   68      0.561D-03      0.331D-04      -122.83357316    306.147148    0.00000    0.00000   -0.32422    9    orth
   69      0.190D-03      0.241D-04      -122.83358597    306.158593    0.00000    0.00000   -0.32192    9    diag,B
   70      0.119D-03      0.245D-04      -122.83362274    306.182813    0.00000    0.00000   -0.31971    9    diag,B
   71      0.301D-03      0.159D-04      -122.83356958    306.147852    0.00000    0.00000   -0.32790    9    diag,B
   72      0.480D-03      0.123D-04      -122.83396463    306.009433    0.00000    0.00000   -0.29173    9    diag,B
   73      0.249D-02      0.171D-03      -122.83377249    306.134466    0.00000    0.00000   -0.30553    9    diag,B
   74      0.881D-03      0.705D-04      -122.83351319    306.094723    0.00000    0.00000   -0.32757    9    diag,B
   75      0.195D-02      0.439D-04      -122.83381026    306.125642    0.00000    0.00000   -0.30711    9    diag,B
   76      0.206D-02      0.722D-04      -122.83371040    306.176466    0.00000    0.00000   -0.31374    9    diag,B
   77      0.541D-03      0.319D-04      -122.83345230    306.040305    0.00000    0.00000   -0.32949    9    diag,B
   78      0.180D-02      0.712D-04      -122.83363496    306.183873    0.00000    0.00000   -0.31855    9    orth
   79      0.122D-02      0.182D-04      -122.83364115    306.185249    0.00000    0.00000   -0.31611    9    diag,B
   80      0.766D-04      0.235D-04      -122.83372691    306.174745    0.00000    0.00000   -0.31325    9    diag,B
   81      0.595D-03      0.303D-04      -122.83367112    306.181510    0.00000    0.00000   -0.30881    9    diag,B
   82      0.270D-03      0.416D-04      -122.83366503    306.173115    0.00000    0.00000   -0.30769    9    diag,B
   83      0.466D-04      0.437D-04      -122.83362468    306.182271    0.00000    0.00000   -0.32208    9    diag,B
   84      0.489D-03      0.877D-05      -122.83346019    306.058355    0.00000    0.00000   -0.32989    9    diag,B
   85      0.108D-02      0.534D-04      -122.83335400    305.975311    0.00000    0.00000   -0.32647    9    diag,B
   86      0.254D-03      0.117D-03      -122.83365975    306.176655    0.00000    0.00000   -0.30842    9    diag,B
   87      0.178D-02      0.367D-04      -122.83371018    306.166144    0.00000    0.00000   -0.30703    9    diag,B
   88      0.335D-03      0.425D-04      -122.83322254    305.883269    0.00000    0.00000   -0.32705    9    orth
   89      0.241D-02      0.168D-03      -122.83382728    306.111331    0.00000    0.00000   -0.30254    9    diag,B
   90      0.300D-02      0.826D-04      -122.83367630    306.188840    0.00000    0.00000   -0.31477    9    diag,B
   91      0.912D-03      0.148D-04      -122.83355733    306.136770    0.00000    0.00000   -0.32131    9    diag,B
   92      0.952D-03      0.296D-04      -122.83362344    306.183746    0.00000    0.00000   -0.31887    9    diag,B
   93      0.503D-03      0.101D-04      -122.83368066    306.184756    0.00000    0.00000   -0.31097    9    diag,B
   94      0.538D-03      0.266D-04      -122.83350101    306.091503    0.00000    0.00000   -0.32453    9    diag,B
   95      0.138D-02      0.481D-04      -122.83413789    305.934493    0.00000    0.00000   -0.29066    9    diag,B
   96      0.316D-02      0.206D-03      -122.83375223    306.158029    0.00000    0.00000   -0.30645    9    diag,B
   97      0.131D-02      0.507D-04      -122.83356228    306.138113    0.00000    0.00000   -0.31894    9    diag,B
   98      0.145D-02      0.354D-04      -122.83357250    306.148796    0.00000    0.00000   -0.31918    9    orth
   99      0.619D-04      0.288D-04      -122.83374275    306.161224    0.00000    0.00000   -0.30711    9    diag,B
  100      0.133D-02      0.474D-04      -122.83358503    306.158549    0.00000    0.00000   -0.31866    9    diag,B
  101      0.124D-02      0.245D-04      -122.83351042    306.097012    0.00000    0.00000   -0.32212    9    diag,B
  102      0.470D-03      0.519D-04      -122.83360365    306.165246    0.00000    0.00000   -0.31492    9    diag,B
  103      0.647D-03      0.284D-04      -122.83367476    306.176327    0.00000    0.00000   -0.30889    9    diag,B
  104      0.622D-03      0.342D-04      -122.83353422    306.123212    0.00000    0.00000   -0.32526    9    diag,B
  105      0.121D-02      0.280D-04      -122.83381135    306.110717    0.00000    0.00000   -0.30102    9    diag,B
  106      0.203D-02      0.865D-04      -122.83386847    306.084246    0.00000    0.00000   -0.30006    9    diag,B
  107      0.209D-03      0.104D-03      -122.83361413    306.163814    0.00000    0.00000   -0.31322    9    diag,B
  108      0.156D-02      0.327D-04      -122.83355344    306.126007    0.00000    0.00000   -0.31652    9    orth
  109      0.443D-03      0.480D-04      -122.83374763    306.148306    0.00000    0.00000   -0.30469    9    diag,B
  110      0.146D-02      0.582D-04      -122.83350939    306.098959    0.00000    0.00000   -0.32274    9    diag,B
  111      0.177D-02      0.496D-04      -122.83388651    306.079698    0.00000    0.00000   -0.30104    9    diag,B
  112      0.234D-02      0.104D-03      -122.83365478    306.185196    0.00000    0.00000   -0.31285    9    diag,B
  113      0.125D-02      0.218D-04      -122.83361808    306.167998    0.00000    0.00000   -0.31356    9    diag,B
  114      0.305D-03      0.294D-04      -122.83350398    306.096532    0.00000    0.00000   -0.32619    9    diag,B
  115      0.879D-03      0.406D-04      -122.83368604    306.172972    0.00000    0.00000   -0.30862    9    diag,B
  116      0.146D-02      0.360D-04      -122.83375190    306.147701    0.00000    0.00000   -0.30568    9    diag,B
  117      0.415D-03      0.559D-04      -122.83357717    306.141662    0.00000    0.00000   -0.31519    9    diag,B
  118      0.131D-02      0.411D-04      -122.83320445    305.881103    0.00000    0.00000   -0.32447    9    orth
  119      0.131D-02      0.177D-03      -122.83364148    306.176380    0.00000    0.00000   -0.31164    9    diag,B
  120      0.183D-02      0.276D-04      -122.83367260    306.178207    0.00000    0.00000   -0.31078    9    diag,B
  121      0.246D-03      0.282D-04      -122.83252014    305.543610    0.00000    0.00000   -0.32816    9    diag,B
  122      0.295D-02      0.373D-03      -122.83367286    306.182053    0.00000    0.00000   -0.31177    9    diag,B
  123      0.294D-02      0.245D-04      -122.83365289    306.185020    0.00000    0.00000   -0.31349    9    diag,B
  124      0.167D-03      0.199D-04      -122.83354223    306.124255    0.00000    0.00000   -0.32085    9    diag,B
  125      0.875D-03      0.393D-04      -122.83371101    306.171874    0.00000    0.00000   -0.30961    9    diag,B
  126      0.132D-02      0.351D-04      -122.83360260    306.171145    0.00000    0.00000   -0.31705    9    diag,B
  127      0.875D-03      0.214D-04      -122.83286600    305.701803    0.00000    0.00000   -0.32920    9    diag,B
  128      0.202D-02      0.275D-03      -122.83354773    306.128271    0.00000    0.00000   -0.31630    9    orth
  129      0.168D-02      0.479D-04      -122.83356352    306.140357    0.00000    0.00000   -0.31546    9    diag,B
  130      0.982D-04      0.425D-04      -122.83368047    306.180938    0.00000    0.00000   -0.31171    9    diag,B
  131      0.896D-03      0.266D-04      -122.83362998    306.186951    0.00000    0.00000   -0.31878    9    diag,B
  132      0.458D-03      0.942D-05      -122.83352310    306.114796    0.00000    0.00000   -0.32507    9    diag,B
  133      0.802D-03      0.336D-04      -122.83365448    306.181398    0.00000    0.00000   -0.31024    9    diag,B
  134      0.110D-02      0.311D-04      -122.83377011    306.134967    0.00000    0.00000   -0.30383    9    diag,B
  135      0.773D-03      0.687D-04      -122.83349401    306.085719    0.00000    0.00000   -0.31368    9    diag,B
  136      0.179D-02      0.848D-04      -122.83357165    306.151014    0.00000    0.00000   -0.32238    9    diag,B
  137      0.244D-03      0.188D-04      -122.83378937    306.132750    0.00000    0.00000   -0.30299    9    diag,B
  138      0.167D-02      0.737D-04      -122.83373322    306.168316    0.00000    0.00000   -0.31016    9    orth
  139      0.386D-03      0.367D-04      -122.83317698    305.858416    0.00000    0.00000   -0.32820    9    diag,B
  140      0.259D-02      0.180D-03      -122.83372257    306.173722    0.00000    0.00000   -0.31139    9    diag,B
  141      0.251D-02      0.303D-04      -122.83359450    306.164917    0.00000    0.00000   -0.31956    9    diag,B
  142      0.101D-02      0.175D-04      -122.83282622    305.662781    0.00000    0.00000   -0.33101    9    diag,B
  143      0.204D-02      0.286D-03      -122.83350136    306.085417    0.00000    0.00000   -0.32257    9    diag,B
  144      0.145D-02      0.548D-04      -122.83358663    306.156901    0.00000    0.00000   -0.31919    9    diag,B
  145      0.529D-03      0.219D-04      -122.83360818    306.169054    0.00000    0.00000   -0.31829    9    diag,B
