<?xml version="1.0"?>
<molpro xmlns="http://www.molpro.net/schema/molpro-output"
  xmlns:xsd="http://www.w3.org/1999/XMLSchema"
  xmlns:cml="http://www.xml-cml.org/schema"
  xmlns:stm="http://www.xml-cml.org/schema"
  xmlns:xhtml="http://www.w3.org/1999/xhtml">
 <!--

 Nodes     nprocs
 nid01967    11
 Number of processes for MPI-2 version of Molpro:   nprocs(total)=   12   nprocs(compute)=   11   nprocs(helper)=    1

 Using customized tuning parameters: mindgm=7; mindgv=16; mindgc=1; mindgr=1; noblas=0; minvec=7
 default implementation of scratch files=sf

 --><job>
  <!--

 Variables initialized (889), CPU time= 0.01 sec
 Commands  initialized (702), CPU time= 0.04 sec, 572 directives.
 Default parameters read. Elapsed time= 0.20 sec

 Checking input...
 Passed
1


                                         ***  PROGRAM SYSTEM MOLPRO  ***
                                       Copyright, TTI GmbH Stuttgart, 2015
                                    Version 2015.1 linked Dec 29 2018 15:55:43


 **********************************************************************************************************************************
 LABEL *   Calculation for GdO, singlet and triplet
  64 bit mpp version                                                                     DATE: 23-Nov-22          TIME: 21:56:32
 **********************************************************************************************************************************

 SHA1:             19cd028119e0e09f93f0674bd8af7968d9b3eff6
 **********************************************************************************************************************************
  -->
  <!--

 THRESHOLDS:

 ZERO    =  1.00D-12  ONEINT  =  1.00D-12  TWOINT  =  1.00D-15  PREFAC  =  1.00D-14  LOCALI  =  1.00D-09  EORDER  =  1.00D-04
 ENERGY  =  0.00D+00  ETEST   =  0.00D+00  EDENS   =  0.00D+00  THRDEDEF=  1.00D-06  GRADIENT=  1.00D-02  STEP    =  1.00D-03
 ORBITAL =  1.00D-05  CIVEC   =  1.00D-05  COEFF   =  1.00D-04  PRINTCI =  5.00D-02  PUNCHCI =  9.90D+01  OPTGRAD =  3.00D-04
 OPTENERG=  1.00D-06  OPTSTEP =  3.00D-04  THRGRAD =  1.00D-10  COMPRESS=  1.00D-11  VARMIN  =  1.00D-07  VARMAX  =  1.00D-03
 THRDOUB =  0.00D+00  THRDIV  =  1.00D-05  THRRED  =  1.00D-07  THRPSP  =  1.00D+00  THRDC   =  1.00D-10  THRCS   =  1.00D-10
 THRNRM  =  1.00D-08  THREQ   =  0.00D+00  THRDE   =  1.00D+00  THRREF  =  1.00D-05  SPARFAC =  1.00D+00  THRDLP  =  1.00D-07
 THRDIA  =  1.00D-10  THRDLS  =  1.00D-07  THRGPS  =  0.00D+00  THRKEX  =  0.00D+00  THRDIS  =  2.00D-01  THRVAR  =  1.00D-10
 THRLOC  =  1.00D-06  THRGAP  =  1.00D-06  THRLOCT = -1.00D+00  THRGAPT = -1.00D+00  THRORB  =  1.00D-06  THRMLTP =  0.00D+00
 THRCPQCI=  1.00D-10  KEXTA   =  0.00D+00  THRCOARS=  0.00D+00  SYMTOL  =  1.00D-06  GRADTOL =  1.00D-06  THROVL  =  1.00D-08
 THRORTH =  1.00D-08  GRID    =  1.00D-06  GRIDMAX =  1.00D-03  DTMAX   =  0.00D+00  THROCCDE=  1.00D-01  THROCCDE=  1.00D-01



 THRESHOLDS:

 ZERO    =  1.00D-12  ONEINT  =  1.00D-12  TWOINT  =  1.00D-15  PREFAC  =  1.00D-14  LOCALI  =  1.00D-09  EORDER  =  1.00D-04
 ENERGY  =  0.00D+00  ETEST   =  0.00D+00  EDENS   =  0.00D+00  THRDEDEF=  1.00D-06  GRADIENT=  1.00D-02  STEP    =  1.00D-03
 ORBITAL =  1.00D-05  CIVEC   =  1.00D-05  COEFF   =  1.00D-04  PRINTCI =  5.00D-02  PUNCHCI =  9.90D+01  OPTGRAD =  3.00D-04
 OPTENERG=  1.00D-06  OPTSTEP =  3.00D-04  THRGRAD =  1.00D-10  COMPRESS=  1.00D-11  VARMIN  =  1.00D-07  VARMAX  =  1.00D-03
 THRDOUB =  0.00D+00  THRDIV  =  1.00D-05  THRRED  =  1.00D-07  THRPSP  =  1.00D+00  THRDC   =  1.00D-10  THRCS   =  1.00D-10
 THRNRM  =  1.00D-08  THREQ   =  0.00D+00  THRDE   =  1.00D+00  THRREF  =  1.00D-05  SPARFAC =  1.00D+00  THRDLP  =  1.00D-07
 THRDIA  =  1.00D-10  THRDLS  =  1.00D-07  THRGPS  =  0.00D+00  THRKEX  =  0.00D+00  THRDIS  =  2.00D-01  THRVAR  =  1.00D-10
 THRLOC  =  1.00D-06  THRGAP  =  1.00D-06  THRLOCT = -1.00D+00  THRGAPT = -1.00D+00  THRORB  =  1.00D-06  THRMLTP =  0.00D+00
 THRCPQCI=  1.00D-10  KEXTA   =  0.00D+00  THRCOARS=  0.00D+00  SYMTOL  =  1.00D-06  GRADTOL =  1.00D-06  THROVL  =  1.00D-15
 THRORTH =  1.00D-08  GRID    =  1.00D-06  GRIDMAX =  1.00D-03  DTMAX   =  0.00D+00  THROCCDE=  1.00D-01  THROCCDE=  1.00D-01



 Variable memory set to 1000000000 words,  buffer space   230000 words

 SETTING BASIS          =    USERDEF
 SETTING GD_CCSD        =      -109.29937150
 SETTING O_CCSD         =       -15.86622096
 SETTING NE             =        24.00000000
 SETTING SYMM           =         4.00000000
 SETTING SS             =         8.00000000
 SETTING A1             =         7.00000000
 SETTING B1             =         4.00000000
 SETTING B2             =         4.00000000
 SETTING A2             =         1.00000000

Geometry recognized as XYZ

  --><jobstep command="RKS-SCF" commandset="SCFPRO">
   <!--


 Recomputing integrals since basis changed


 Using spherical harmonics



 PROGRAM * SEWARD (Integral evaluation for generally contracted gaussian basis sets)     Author: Roland Lindh, 1990

 Geometry written to block  1 of record 700


 Point group  C2v


   --><cml:molecule>
    <cml:symmetry pointGroup="C2v"/>
    <cml:atomArray>
     <cml:atom id="a1" elementType="Gd" x3="0.0" y3="0.0" z3="0.0"/>
     <cml:atom id="a2" elementType="O" x3="0.0" y3="0.0" z3="1.1"/>
    </cml:atomArray>
    <cml:bondArray>
     <cml:bond atomRefs2="a1 a2"/>
    </cml:bondArray>
   </cml:molecule><!--

 ATOMIC COORDINATES

 NR  ATOM    CHARGE       X              Y              Z

   1  GD     18.00    0.000000000    0.000000000    0.000000000
   2  O       6.00    0.000000000    0.000000000    2.078698737

 Bond lengths in Bohr (Angstrom)

 1-2  2.078698737
     ( 1.100000000)

 NUCLEAR CHARGE:                   24
 NUMBER OF PRIMITIVE AOS:         673
 NUMBER OF SYMMETRY AOS:          515
 NUMBER OF CONTRACTIONS:          515   ( 203A1  + 123B1  + 123B2  +  66A2  )
 NUMBER OF CORE ORBITALS:           0   (   0A1  +   0B1  +   0B2  +   0A2  )
 NUMBER OF VALENCE ORBITALS:       21   (   9A1  +   5B1  +   5B2  +   2A2  )


 NUCLEAR REPULSION ENERGY   51.95558071

 EXTRA SYMMETRY OF AOS IN SYMMETRY 1:   1 1 1 1 1 1 1 1 1 1   1 1 1 1 1 1 1 1 1 1   1 1 1 1 1 1 1 1 1 1   1 1 1 1 1 1 1 1 1 1
                                        1 1 1 1 1 1 1 1 1 1   1 1 1 1 1 1 1 1 1 1   1 1 1 2 1 2 1 2 1 2   1 2 1 2 1 2 1 2 1 2
                                        1 2 1 2 1 2 1 2 1 2   1 2 1 2 1 2 1 2 1 2   1 2 1 2 1 2 1 2 1 2   1 2 1 2 1 2 1 2 1 2
                                        1 2 1 2 1 2 1 2 1 2   1 2 1 2 1 3 2 1 3 2   1 3 2 1 3 2 1 3 2 1   3 2 1 3 2 1 3 2 1 3
                                        2 2 3 1 2 3 1 2 3 1   1 1 1 1 1 1 1 1 1 1   1 1 1 1 1 1 1 1 1 1   1 1 2 1 2 1 2 1 2 1
                                        2 1 2
 EXTRA SYMMETRY OF AOS IN SYMMETRY 2:   1 1 1 1 1 1 1 1 1 1   1 1 1 1 1 1 1 1 1 1   1 1 1 1 1 1 1 1 1 1   1 1 1 1 1 1 1 1 1 1
                                        1 1 1 1 1 1 1 1 1 1   1 1 1 2 1 2 1 2 1 2   1 2 1 2 1 2 1 2 1 2   1 2 1 2 1 2 1 2 1 2
                                        1 2 1 2 1 2 1 2 1 2   1 2 1 2 1 2 1 2 1 2   3 1 2 3 1 2 3 1 1 1   1 1 1 1 1 1 1 1 1 1
                                        2 1 2
 EXTRA SYMMETRY OF AOS IN SYMMETRY 3:   1 1 1 1 1 1 1 1 1 1   1 1 1 1 1 1 1 1 1 1   1 1 1 1 1 1 1 1 1 1   1 1 1 1 1 1 1 1 1 1
                                        1 1 1 1 1 1 1 1 1 1   1 1 1 2 1 2 1 2 1 2   1 2 1 2 1 2 1 2 1 2   1 2 1 2 1 2 1 2 1 2
                                        1 2 1 2 1 2 1 2 1 2   1 2 1 2 1 2 1 2 1 2   3 1 2 3 1 2 3 1 1 1   1 1 1 1 1 1 1 1 1 1
                                        2 1 2
 EXTRA SYMMETRY OF AOS IN SYMMETRY 4:   1 1 1 1 1 1 1 1 1 1   1 1 1 1 1 1 1 1 1 1   1 1 1 1 1 1 1 1 1 1   1 1 1 1 1 1 1 2 1 2
                                        1 2 1 2 1 2 1 2 1 2   1 2 1 2 2 1 2 1 2 1   1 1 1 1 1 1

 Eigenvalues of metric

         1 0.100E-06 0.213E-06 0.556E-06 0.617E-06 0.717E-06 0.727E-06 0.868E-06 0.112E-05
         2 0.613E-06 0.716E-06 0.434E-05 0.133E-04 0.198E-04 0.232E-04 0.579E-04 0.895E-04
         3 0.613E-06 0.716E-06 0.434E-05 0.133E-04 0.198E-04 0.232E-04 0.579E-04 0.895E-04
         4 0.727E-06 0.238E-04 0.148E-03 0.539E-03 0.816E-03 0.921E-03 0.415E-02 0.842E-02


 Contracted 2-electron integrals neglected if value below      1.0D-15
 AO integral compression algorithm  1   Integral accuracy      1.0D-15

     8749.056 MB (compressed) written to integral file ( 47.1%)

     Node minimum: 678.167 MB, node maximum: 1019.740 MB


 NUMBER OF SORTED TWO-ELECTRON INTEGRALS:  203904772.     BUFFER LENGTH:  32768
 NUMBER OF SEGMENTS:   7  SEGMENT LENGTH:   31990770      RECORD LENGTH: 524288

 Memory used in sort:      32.55 MW

 SORT1 READ  2319806290. AND WROTE    94638271. INTEGRALS IN    276 RECORDS. CPU TIME:    46.68 SEC, REAL TIME:    68.30 SEC
 SORT2 READ  1037800907. AND WROTE  2243484243. INTEGRALS IN  36102 RECORDS. CPU TIME:     7.26 SEC, REAL TIME:    19.28 SEC

 Node minimum:   203897834.  Node maximum:   204073967. integrals

 OPERATOR DM      FOR CENTER  0  COORDINATES:    0.000000    0.000000    0.000000


 **********************************************************************************************************************************
 DATASETS  * FILE   NREC   LENGTH (MB)   RECORD NAMES
              1      19       23.11       500      610      700      900      950      970     1000      129      960     1100
                                          VAR    BASINP    GEOM    SYMINP    ZMAT    AOBASIS   BASIS     P2S    ABASIS      S
                                         1400     1410     1420     1200     1210     1080     1600     1650     1700
                                           T        V       ECP      H0       H01     AOSYM     SMH    MOLCAS    OPER

 PROGRAMS   *        TOTAL       INT
 CPU TIMES  *       169.60    169.02
 REAL TIME  *       205.15 SEC
 DISK USED  *        21.09 GB
 GA USED    *         0.00 MB       (max)       0.00 MB       (current)
 **********************************************************************************************************************************

 Density functional group PBE0=PBEX+PBEC
 Functional: PBEX(Automatically generated (new) PBEX)                          Gradient terms: 1
 Functional: PBEC(Automatically generated (new) PBEC)                          Gradient terms: 1
 Use grid at  1800.2


 Exact exchange will be calculated, factor:  0.2500

 Functional: PBEX                      Factor:  0.7500
 Functional: PBEC                      Factor:  1.0000

 Generated new metagrid on record  1800.2 with target accuracy 1.0D-06 and 6531 points in CPU time    0.1
 Computed new grid on record 1800.1 in CPU time    0.1
  410982 words reserved for DFT integration

 PROGRAM * RKS-SCF (Restricted open shell Kohn-Sham)     Authors: W. Meyer, H.-J. Werner, P.J. Knowles, 1993

 NUMBER OF ELECTRONS:      16+    8-    SPACE SYMMETRY=4    SPIN SYMMETRY: Nonet
 CONVERGENCE THRESHOLDS:    1.00E-05 (Density)    1.00E-06 (Energy)
 MAX. NUMBER OF ITERATIONS:      200
 INTERPOLATION TYPE:            DIIS
 INTERPOLATION STEPS:              2 (START)      1 (STEP)
 LEVEL SHIFTS:                 -0.60 (CLOSED) -0.30 (OPEN)

 Number of closed-shell orbitals:    8 (   4   2   2   0 )
 Number of open-shell orbitals:      8 (   3   2   2   1 )


 Use fine grid record 1800.2 for energy threshold  1.0D-06
 Guess basis ATOMIC-GUESS,GD=ECP46_GUESS,O=ECP2_GUESS not found. No density guess!


 Molecular orbital dump at record        2202.2

 ITERATION    DDIFF          GRAD             ENERGY        2-EL.EN.            DIPOLE MOMENTS         DIIS   ORB.
    1      0.000D+00      0.000D+00       -75.68396881    549.040193    0.00000    0.00000    3.66752    0    start
    2      0.000D+00      0.208D+00       -22.83063182     60.058762    0.00000    0.00000  -79.57211    0    diag,B
    3      0.140D+02      0.809D-01       -66.68211102    560.834452    0.00000    0.00000    9.91016    1    diag,B
    4      0.140D+02      0.213D+00       -83.34159597    525.016022    0.00000    0.00000    7.92801    2    diag,B
    5      0.341D+00      0.175D+00       -91.30427825    505.124107    0.00000    0.00000    6.98166    3    diag,B
    6      0.724D-01      0.156D+00       -95.74281182    493.506010    0.00000    0.00000    6.19818    4    diag,B
    7      0.217D-01      0.143D+00       -97.56160249    487.358348    0.00000    0.00000    6.30873    5    fixocc
    8      0.802D-02      0.138D+00      -101.02085139    477.278726    0.00000    0.00000    5.65237    6    diag,B
    9      0.166D-01      0.128D+00      -101.96345730    473.649414    0.00000    0.00000    5.71347    7    diag,B
   10      0.143D-01      0.125D+00      -101.98661271    473.613362    0.00000    0.00000    5.69748    8    orth
   11      0.159D-03      0.125D+00      -103.54780190    469.086364    0.00000    0.00000    5.26104    9    diag,B
   12      0.718D-02      0.120D+00      -106.17952747    458.378211    0.00000    0.00000    5.33453    9    diag,B
   13      0.122D-01      0.112D+00      -106.01147703    458.906297    0.00000    0.00000    5.38367    9    diag,B
   14      0.230D-02      0.112D+00      -109.12516674    446.744665    0.00000    0.00000    4.99780    9    diag,B
   15      0.126D-01      0.103D+00      -109.57369412    445.133536    0.00000    0.00000    4.90585    9    diag,B
   16      0.105D-01      0.102D+00      -110.44906873    441.913345    0.00000    0.00000    4.73705    9    diag,B
     Orbital  2.2 strongly deviates from fixed occupation: 1.82545  (now: 2.00)
     Orbital  3.2 strongly deviates from fixed occupation: 1.17270  (now: 1.00)
     Orbital  2.3 strongly deviates from fixed occupation: 1.82545  (now: 2.00)
     Orbital  3.3 strongly deviates from fixed occupation: 1.17270  (now: 1.00)
     Note:  Use {hf,nitord=N} to fix occupations at iteration N
            Use {gthresh,occdev=1.0} to suppress deviation warnings
   17      0.294D-02      0.981D-01      -113.95011386    427.548270    0.00000    0.00000    4.08477    9    diag,B
   18      0.279D-01      0.832D-01      -115.22583411    420.600867    0.00000    0.00000    4.15990    9    diag,B
   19      0.131D-01      0.785D-01      -115.26751051    420.475570    0.00000    0.00000    4.14249    9    diag,B
   20      0.851D-03      0.783D-01      -115.23387264    420.707544    0.00000    0.00000    4.15179    9    orth
   21      0.174D-02      0.786D-01      -115.48026908    419.169289    0.00000    0.00000    4.16021    9    diag,B
   22      0.329D-02      0.772D-01      -115.26326317    420.179100    0.00000    0.00000    4.21285    9    diag,B
   23      0.652D-02      0.773D-01      -115.79578238    418.314246    0.00000    0.00000    3.95293    9    diag,B
   24      0.113D-01      0.740D-01      -120.18494924    391.185001    0.00000    0.00000    3.38672    9    diag,B
     Orbital  3.1 strongly deviates from fixed occupation: 1.63599  (now: 2.00)
     Orbital  5.1 strongly deviates from fixed occupation: 1.31723  (now: 1.00)
     Orbital  2.2 strongly deviates from fixed occupation: 1.79464  (now: 2.00)
     Orbital  3.2 strongly deviates from fixed occupation: 1.19820  (now: 1.00)
     Orbital  2.3 strongly deviates from fixed occupation: 1.79464  (now: 2.00)
     Orbital  3.3 strongly deviates from fixed occupation: 1.19820  (now: 1.00)
   25      0.535D-01      0.495D-01      -124.10529301    358.957841    0.00000    0.00000    0.48865    9    diag,B
     Orbital  3.1 strongly deviates from fixed occupation: 1.79797  (now: 2.00)
     Orbital  5.1 strongly deviates from fixed occupation: 1.14377  (now: 1.00)
   26      0.286D-01      0.191D-01      -125.17658388    337.709030    0.00000    0.00000    0.18916    9    diag,B
   27      0.332D-01      0.611D-02      -125.37106931    328.684986    0.00000    0.00000   -0.27785    9    diag,B
   28      0.242D-01      0.256D-02      -125.39748876    328.774343    0.00000    0.00000   -0.35553    9    diag,B
   29      0.120D-01      0.160D-02      -125.40778214    328.649951    0.00000    0.00000   -0.34570    9    diag,B
   30      0.630D-02      0.707D-03      -125.41173467    328.538868    0.00000    0.00000   -0.33788    9    orth
   31      0.481D-02      0.169D-03      -125.41249532    328.329161    0.00000    0.00000   -0.37259    9    diag,B
   32      0.784D-03      0.115D-03      -125.41331185    328.053602    0.00000    0.00000   -0.41176    9    diag,B
   33      0.108D-02      0.854D-04      -125.41372859    327.883212    0.00000    0.00000   -0.43632    9    diag,B
   34      0.132D-02      0.452D-04      -125.41390802    327.786047    0.00000    0.00000   -0.44638    9    diag,B
   35      0.136D-02      0.236D-04      -125.41395900    327.756730    0.00000    0.00000   -0.44845    9    diag,B
   36      0.662D-03      0.138D-04      -125.41397559    327.740466    0.00000    0.00000   -0.44940    9    diag,B
   37      0.262D-03      0.136D-04      -125.41397574    327.740545    0.00000    0.00000   -0.44943    9    diag,B
   38      0.219D-05      0.139D-04      -125.41397912    327.742259    0.00000    0.00000   -0.44962    9    diag,B
   39      0.813D-04      0.765D-05      -125.41398272    327.740250    0.00000    0.00000   -0.45022    9    diag,B
   40      0.885D-04      0.495D-05      -125.41398440    327.737676    0.00000    0.00000   -0.45135    9    orth
   41      0.947D-04      0.273D-05      -125.41398488    327.738412    0.00000    0.00000   -0.45206    9    diag,B
   42      0.437D-04      0.168D-05      -125.41398515    327.739848    0.00000    0.00000   -0.45281    9    diag,B
   43      0.290D-04      0.101D-05      -125.41398521    327.739804    0.00000    0.00000   -0.45304    9    diag,B
   44      0.604D-05      0.800D-06      -125.41398523    327.740467    0.00000    0.00000   -0.45311    0    orth

 Final alpha occupancy:   7   4   4   1
 Final beta  occupancy:   4   2   2   0

 !RKS STATE 1.4 Energy               -125.413985232331
   --><property name="Energy" method="RKS" principal="true" stateSymmetry="4" stateNumber="1"
     value="-125.413985232331"/><!--
 Nuclear energy                        51.95558071
 One-electron energy                 -328.38265242
 Two-electron energy                  163.87023344
 Density functional                   -12.85714695     PBEX=-15.89035326 PBEC= -0.93938201
 Virial quotient                       -0.76834176
 !RKS STATE 1.4 Dipole moment           0.00000000     0.00000000    -0.45310847
 Dipole moment /Debye                   0.00000000     0.00000000    -1.15161143
   --><property name="Dipole moment" method="RKS" principal="true" stateSymmetry="4"
     stateNumber="1" value="0.0 0.0 -0.453108471717231"/><!--

 ELECTRON ORBITALS
 =================


   Orb  Occ    Energy  Couls-En    Coefficients

                                   1 1s      1 1s      1 1s      1 1s      1 1s      1 1s      1 1s      1 1s      1 1s      1 1s
                                   1 1s      1 1s      1 1s      1 1s      1 1s      1 1s      1 1s      1 1s      1 1s      1 1s
                                   1 1s      1 1s      1 1s      1 1s      1 1s      1 1s      1 1s      1 1s      1 1s      1 1s
                                   1 1s      1 1s      1 2pz     1 2pz     1 2pz     1 2pz     1 2pz     1 2pz     1 2pz     1 2pz
                                   1 2pz     1 2pz     1 2pz     1 2pz     1 2pz     1 2pz     1 2pz     1 2pz     1 2pz     1 2pz
                                   1 2pz     1 2pz     1 2pz     1 2pz     1 2pz     1 2pz     1 2pz     1 2pz     1 2pz     1 2pz
                                   1 2pz     1 2pz     1 3d0     1 3d2+    1 3d0     1 3d2+    1 3d0     1 3d2+    1 3d0     1 3d2+
                                   1 3d0     1 3d2+    1 3d0     1 3d2+    1 3d0     1 3d2+    1 3d0     1 3d2+    1 3d0     1 3d2+
                                   1 3d0     1 3d2+    1 3d0     1 3d2+    1 3d0     1 3d2+    1 3d0     1 3d2+    1 3d0     1 3d2+
                                   1 3d0     1 3d2+    1 3d0     1 3d2+    1 3d0     1 3d2+    1 3d0     1 3d2+    1 3d0     1 3d2+
                                   1 3d0     1 3d2+    1 3d0     1 3d2+    1 3d0     1 3d2+    1 4f0     1 4f2+    1 4f0     1 4f2+
                                   1 4f0     1 4f2+    1 4f0     1 4f2+    1 4f0     1 4f2+    1 4f0     1 4f2+    1 4f0     1 4f2+
                                   1 4f0     1 4f2+    1 4f0     1 4f2+    1 4f0     1 4f2+    1 4f0     1 4f2+    1 4f0     1 4f2+
                                   1 4f0     1 4f2+    1 4f0     1 4f2+    1 5g0     1 5g4+    1 5g2+    1 5g0     1 5g4+    1 5g2+
                                   1 5g0     1 5g4+    1 5g2+    1 5g0     1 5g4+    1 5g2+    1 5g0     1 5g4+    1 5g2+    1 5g0
                                   1 5g4+    1 5g2+    1 5g0     1 5g4+    1 5g2+    1 5g0     1 5g4+    1 5g2+    1 5g0     1 5g4+
                                   1 5g2+    1 6h2+    1 6h4+    1 6h0     1 6h2+    1 6h4+    1 6h0     1 6h2+    1 6h4+    1 6h0
                                   2 1s      2 1s      2 1s      2 1s      2 1s      2 1s      2 1s      2 1s      2 1s      2 1s
                                   2 1s      2 1s      2 1s      2 2pz     2 2pz     2 2pz     2 2pz     2 2pz     2 2pz     2 2pz
                                   2 2pz     2 3d0     2 3d2+    2 3d0     2 3d2+    2 3d0     2 3d2+    2 3d0     2 3d2+    2 4f0
                                   2 4f2+    2 4f0     2 4f2+

   1.1   2    -2.0558  -18.1240 -0.000000  0.000001 -0.000004  0.000074  0.000326  0.001008  0.002109  0.004580 -0.001731  0.005192
                                -0.089859  0.413297 -0.119146  0.000596 -0.213130  0.341431  0.485911  0.300569  0.107921 -0.000130
                                -0.000585 -0.001716 -0.004769  0.138278 -0.790456  0.799598 -0.245612 -0.339851 -0.163857 -0.004760
                                 0.001666 -0.000359  0.000000 -0.000000  0.000001 -0.000002  0.000002 -0.000003  0.000007 -0.000019
                                 0.000079 -0.000729 -0.008070 -0.011156 -0.006038 -0.104970  0.109624  0.125435 -0.026384  0.112264
                                 0.041353  0.002951  0.011727  0.024707 -0.001751  0.100086 -0.099391 -0.001550 -0.018370  0.007383
                                 0.000227 -0.000024 -0.000001 -0.000000  0.000003  0.000000 -0.000011 -0.000000  0.000058  0.000000
                                -0.001069 -0.000000 -0.009887 -0.000000  0.024468 -0.000000 -0.017483 -0.000000  0.063464  0.000000
                                 0.052623  0.000000  0.002569  0.000000  0.018747 -0.000000 -0.029929  0.000000 -0.013364  0.000000
                                -0.042949  0.000000  0.004813  0.000000  0.027569  0.000000  0.019540  0.000000 -0.003804  0.000000
                                 0.000770  0.000000 -0.000264 -0.000000  0.000069  0.000000  0.000006  0.000000 -0.000048 -0.000000
                                 0.000733  0.000000  0.013227  0.000000  0.023240  0.000000  0.035222  0.000000  0.005182  0.000000
                                 0.001767  0.000000 -0.004238 -0.000000  0.017489 -0.000000  0.005151  0.000000  0.006793 -0.000000
                                -0.000885  0.000000  0.000226 -0.000000  0.000234 -0.000049  0.000000 -0.000630  0.000412  0.000000
                                 0.002469  0.000020 -0.000000  0.005873 -0.000456  0.000000 -0.000854 -0.000086  0.000000  0.005397
                                 0.000255  0.000000  0.000304  0.000058  0.000000  0.001540 -0.000001  0.000000  0.000260 -0.000005
                                -0.000000  0.000000 -0.000014 -0.000086  0.000000  0.000137  0.000631  0.000000  0.000038  0.001859
                                -0.000000  0.000002 -0.000018  0.000110 -0.000809  0.029029 -0.057925  0.103395  0.241961  0.047483
                                -0.215849 -0.031047 -0.045812 -0.003869 -0.031925 -0.111530 -0.163051 -0.066905  0.005580 -0.004104
                                 0.001045  0.017062  0.000000  0.052579  0.000000  0.021287 -0.000000  0.001626  0.000000 -0.005000
                                -0.000000 -0.011424 -0.000000

   2.1   2    -1.3084  -15.0758  0.000000 -0.000001  0.000003 -0.000049 -0.000214 -0.000664 -0.001390 -0.003027  0.001149 -0.003506
                                 0.066599 -0.318635  0.069353 -0.135449 -1.155881 -0.318587 -0.040633 -0.072930 -0.035852  0.000086
                                 0.000385  0.001130  0.003149 -0.104875  0.630275  0.607976 -0.077829  0.377956  0.046999  0.001941
                                -0.000747  0.000168  0.000000 -0.000000  0.000001 -0.000002  0.000002 -0.000003  0.000007 -0.000019
                                 0.000079 -0.000727 -0.008000 -0.011011  0.053688 -0.114524  0.139671  0.222404 -0.034599  0.145417
                                 0.050973  0.002929  0.011661 -0.004013 -0.091137  0.150767  0.085214 -0.003394 -0.028876  0.013160
                                 0.000651 -0.000093 -0.000001 -0.000000  0.000004  0.000000 -0.000016 -0.000000  0.000087  0.000000
                                -0.001492 -0.000000 -0.010575 -0.000000  0.022168  0.000000 -0.018654  0.000000  0.043940 -0.000000
                                 0.056655  0.000000  0.003353  0.000000  0.018039  0.000000 -0.026561 -0.000000 -0.005830 -0.000000
                                -0.015017 -0.000000 -0.005346 -0.000000  0.039905  0.000000  0.022519 -0.000000 -0.005008 -0.000000
                                 0.001105 -0.000000 -0.000368  0.000000  0.000097 -0.000000  0.000007  0.000000 -0.000060 -0.000000
                                 0.000903  0.000000  0.015467  0.000000  0.024936  0.000000  0.036907  0.000000  0.010623  0.000000
                                 0.003074  0.000000 -0.001837 -0.000000  0.013141 -0.000000  0.004953  0.000000  0.008214 -0.000000
                                -0.001655  0.000000  0.000416 -0.000000  0.000165  0.000036 -0.000000  0.000090 -0.000349 -0.000000
                                 0.001820  0.000032  0.000000  0.003656  0.000479  0.000000 -0.000735  0.000339  0.000000  0.003907
                                -0.000311 -0.000000  0.000047 -0.000287 -0.000000  0.001741 -0.000152  0.000000  0.000178 -0.000062
                                 0.000000  0.000000  0.000026 -0.000125  0.000000  0.000183  0.000715  0.000000 -0.000184  0.001255
                                -0.000000  0.000003 -0.000019  0.000113 -0.000824  0.029692 -0.057191  0.102921  0.286885  0.153529
                                -0.284546 -0.032352 -0.047713 -0.002395 -0.019937 -0.071550 -0.120950 -0.079489  0.015830 -0.002666
                                 0.000642  0.008777  0.000000  0.036661  0.000000  0.021231  0.000000  0.000699  0.000000 -0.002871
                                -0.000000 -0.009041  0.000000

   3.1   2    -0.7139  -12.0720 -0.000000  0.000000 -0.000001  0.000023  0.000102  0.000315  0.000661  0.001446 -0.000557  0.001780
                                -0.023899  0.030533 -0.058589 -0.019702 -0.681928  0.081183  0.334991  0.186578  0.112141 -0.000041
                                -0.000183 -0.000537 -0.001501  0.036875 -0.078230  0.720473 -0.036300  0.281655 -0.176769 -0.004849
                                 0.001659 -0.000357  0.000000 -0.000000  0.000001 -0.000002  0.000003 -0.000004  0.000008 -0.000023
                                 0.000092 -0.000844 -0.009332 -0.013286 -0.009091 -0.106731  0.094911  0.228896  0.107460  0.264413
                                 0.107635  0.003404  0.013677  0.031999 -0.020494  0.136243 -0.044670 -0.017405 -0.096578  0.054436
                                 0.004133 -0.000693 -0.000001 -0.000000  0.000004  0.000000 -0.000018 -0.000000  0.000095  0.000000
                                -0.001667 -0.000000 -0.012846 -0.000000  0.019332  0.000000 -0.009262 -0.000000  0.050809  0.000000
                                 0.042389  0.000000  0.003834  0.000000  0.022181  0.000000 -0.028432 -0.000000 -0.004068  0.000000
                                -0.079295  0.000000  0.062970  0.000000  0.058498  0.000000  0.030498  0.000000 -0.014969  0.000000
                                 0.003409  0.000000 -0.001218  0.000000  0.000329  0.000000  0.000009  0.000000 -0.000076 -0.000000
                                 0.001121  0.000000  0.018519  0.000000  0.027558  0.000000  0.038636  0.000000 -0.000160  0.000000
                                 0.004295  0.000000  0.001202  0.000000  0.026297 -0.000000  0.031206  0.000000 -0.000064 -0.000000
                                -0.001003  0.000000 -0.000056 -0.000000  0.000195 -0.000009 -0.000000 -0.000301  0.000049  0.000000
                                 0.002648  0.000003  0.000000  0.004131 -0.000065  0.000000 -0.000940  0.000067  0.000000  0.004026
                                -0.000047  0.000000  0.005049 -0.000559 -0.000000  0.003661 -0.000242  0.000000 -0.001723 -0.000094
                                -0.000000  0.000000 -0.000021 -0.000092  0.000000  0.000108  0.000744  0.000000 -0.000071  0.001743
                                 0.000000 -0.000003  0.000026 -0.000156  0.001094 -0.034223  0.054042 -0.102171 -0.358550 -0.630067
                                -0.691276  0.038159  0.055842 -0.007897 -0.068550 -0.234803 -0.338585 -0.155620  0.089964 -0.005843
                                 0.002146  0.018733  0.000000  0.058753  0.000000  0.033483  0.000000  0.001757  0.000000 -0.006342
                                -0.000000 -0.013605  0.000000

   4.1   2    -0.2353  -16.1787  0.000000 -0.000000  0.000000 -0.000000 -0.000000 -0.000000 -0.000000 -0.000000  0.000000 -0.000000
                                 0.000001 -0.000006 -0.000003 -0.000012 -0.000186  0.000028 -0.000001  0.000015  0.000004  0.000000
                                 0.000000  0.000000  0.000000 -0.000001  0.000013  0.000155 -0.000002  0.000051 -0.000006 -0.000000
                                 0.000000 -0.000000  0.000000 -0.000000  0.000000 -0.000000  0.000000 -0.000000  0.000000 -0.000000
                                 0.000000 -0.000000 -0.000000 -0.000000 -0.000008 -0.000007 -0.000004  0.000019 -0.000014  0.000022
                                 0.000023  0.000000  0.000000  0.000005  0.000013  0.000008 -0.000049 -0.000003 -0.000016  0.000010
                                 0.000001 -0.000000 -0.000000 -0.000000  0.000000  0.000001 -0.000000 -0.000006  0.000000  0.000027
                                -0.000000 -0.000446 -0.000003 -0.004439  0.000006  0.012989 -0.000004 -0.011606  0.000006  0.006270
                                 0.000021  0.058709  0.000001  0.001070  0.000005  0.008732 -0.000008 -0.014914  0.000002  0.005229
                                -0.000009  0.042531  0.000001  0.025392  0.000007  0.030973  0.000008  0.013790 -0.000002  0.013186
                                 0.000000  0.006318 -0.000000  0.001074  0.000000 -0.000008  0.000000  0.000134 -0.000000 -0.001074
                                 0.000001  0.015384  0.000016  0.248508  0.000022  0.372591  0.000024  0.378734  0.000011  0.234147
                                 0.000005  0.054408  0.000003  0.012098  0.000006  0.008666  0.000001  0.071790  0.000003 -0.032623
                                -0.000000  0.024086  0.000000 -0.008998  0.000000 -0.000000  0.000166 -0.000000 -0.000000  0.000341
                                 0.000001  0.000000  0.001641  0.000000  0.000000  0.006819 -0.000000  0.000000  0.005801  0.000002
                                -0.000000  0.004248 -0.000001 -0.000000 -0.003968  0.000001 -0.000000  0.002598  0.000000  0.000000
                                -0.001128  0.000420  0.000000 -0.000000  0.000684  0.000000  0.000000  0.004922  0.000000  0.000000
                                -0.000000  0.000000 -0.000000  0.000000 -0.000000  0.000001 -0.000002  0.000004  0.000012 -0.000012
                                -0.000069 -0.000001 -0.000002 -0.000000 -0.000002 -0.000007 -0.000016  0.000002  0.000000 -0.000000
                                 0.000000  0.000002  0.012366  0.000009  0.021612  0.000001  0.010391  0.000000  0.000736 -0.000001
                                -0.008906 -0.000002  0.005026

   5.1   +    -0.4911  -15.7337  0.000000 -0.000000  0.000000 -0.000003 -0.000012 -0.000037 -0.000076 -0.000154  0.000048 -0.000088
                                 0.008567 -0.084863 -0.051977 -0.144150 -2.432369  0.367253 -0.018527  0.177180  0.049112  0.000005
                                 0.000022  0.000063  0.000164 -0.014972  0.179658  2.015628 -0.019413  0.703199 -0.077221 -0.001787
                                 0.000594 -0.000125  0.000000 -0.000000  0.000000 -0.000001  0.000001 -0.000002  0.000004 -0.000012
                                 0.000047 -0.000380 -0.002998 -0.005014 -0.102143 -0.090313 -0.053147  0.250841 -0.180957  0.297088
                                 0.309235  0.001298  0.004280  0.060440  0.169353  0.104068 -0.638101 -0.045013 -0.217807  0.131531
                                 0.011354 -0.001981 -0.000002  0.000000  0.000010 -0.000000 -0.000043  0.000000  0.000231 -0.000000
                                -0.004216  0.000000 -0.037809  0.000000  0.084956 -0.000001 -0.050032  0.000001  0.072090 -0.000000
                                 0.276104 -0.000004  0.010010 -0.000000  0.071591 -0.000001 -0.110548  0.000001  0.032709 -0.000000
                                -0.112634 -0.000003  0.009108 -0.000002  0.094735 -0.000002  0.104063 -0.000001 -0.020123 -0.000001
                                 0.004179 -0.000000 -0.001455 -0.000000  0.000384  0.000000  0.000113 -0.000000 -0.000909  0.000000
                                 0.013008 -0.000001  0.207209 -0.000019  0.290083 -0.000029  0.307935 -0.000029  0.140123 -0.000018
                                 0.058696 -0.000004  0.040776 -0.000001  0.075401 -0.000001  0.014422 -0.000005  0.032666  0.000002
                                -0.002413 -0.000002  0.000518  0.000001  0.000751  0.000016 -0.000000 -0.001428  0.000022 -0.000000
                                 0.007929  0.000194 -0.000000  0.002751  0.000498 -0.000001 -0.004988  0.000180 -0.000000  0.025158
                                -0.000663 -0.000000 -0.011007 -0.000812  0.000000  0.010368 -0.000180 -0.000000  0.000343 -0.000017
                                 0.000000 -0.000000  0.000461 -0.000181 -0.000000  0.000802  0.002130 -0.000000  0.000801  0.001402
                                -0.000000  0.000001 -0.000008  0.000050 -0.000374  0.015060 -0.029801  0.058991  0.160330 -0.171210
                                -0.918890 -0.018805 -0.024779 -0.002898 -0.024532 -0.095949 -0.215750  0.020156  0.006053 -0.003185
                                 0.000775  0.020591 -0.000001  0.113106 -0.000002  0.020161 -0.000001  0.001489 -0.000000 -0.009616
                                 0.000001 -0.031797 -0.000000

   6.1   +    -0.1642   -9.7757  0.000000 -0.000000  0.000000 -0.000003 -0.000013 -0.000039 -0.000081 -0.000169  0.000058 -0.000132
                                 0.005963 -0.055849 -0.024559 -0.022077 -0.648282  0.253015 -0.420708 -0.007529 -0.118397  0.000005
                                 0.000023  0.000067  0.000178 -0.010086  0.115605  0.430817  0.239876  0.069530  0.331541  0.013972
                                -0.004434  0.000974  0.000000 -0.000000  0.000000 -0.000001  0.000001 -0.000001  0.000003 -0.000009
                                 0.000039 -0.000353 -0.003459 -0.005293 -0.018389 -0.058291 -0.020324  0.285946  0.051696 -0.122682
                                 0.048972  0.001345  0.005037  0.021349  0.014759  0.078022 -0.011583  0.003718  0.045456 -0.007978
                                -0.000647  0.000093  0.000000 -0.000000 -0.000001  0.000000  0.000005 -0.000000 -0.000025  0.000000
                                 0.000366 -0.000000  0.002401 -0.000000 -0.019275  0.000000  0.035926 -0.000000 -0.016920 -0.000000
                                -0.189867  0.000000 -0.000787  0.000000 -0.004275  0.000000  0.013449 -0.000000  0.004751  0.000000
                                -0.204019  0.000000 -0.237821 -0.000000 -0.145419  0.000000 -0.077837  0.000000  0.003700  0.000000
                                -0.009884  0.000000  0.003345 -0.000000 -0.000990  0.000000  0.000061 -0.000000 -0.000485  0.000000
                                 0.006913 -0.000000  0.109212 -0.000000  0.150087 -0.000000  0.147084 -0.000000  0.076639 -0.000000
                                 0.031445 -0.000000  0.025103 -0.000000 -0.001611  0.000000 -0.027936 -0.000000  0.010548  0.000000
                                 0.000622 -0.000000  0.000396  0.000000  0.000181  0.000004 -0.000000 -0.000439 -0.000012 -0.000000
                                 0.001696  0.000080 -0.000000 -0.003770 -0.000119 -0.000000 -0.005680 -0.000044 -0.000000 -0.001661
                                 0.001493 -0.000000 -0.016451  0.009594 -0.000000  0.003214  0.008456 -0.000000  0.001111  0.003391
                                -0.000000  0.000000  0.000259 -0.000034  0.000000  0.000248  0.000556  0.000000  0.000073  0.000364
                                 0.000000 -0.000001  0.000009 -0.000052  0.000369 -0.013066  0.020318 -0.050248 -0.129278 -0.080348
                                 0.482728  0.018139  0.021973  0.001976  0.017227  0.056378  0.071480  0.218484 -0.082099  0.001293
                                -0.000539  0.001477 -0.000000  0.012719 -0.000000 -0.034795  0.000000  0.000110 -0.000000  0.000043
                                 0.000000 -0.007459 -0.000000

   7.1   +    -0.0620   -7.3622  0.000000 -0.000000  0.000000 -0.000000 -0.000000 -0.000000 -0.000000 -0.000000  0.000000 -0.000000
                                 0.000000 -0.000000  0.000001 -0.000001 -0.000002 -0.000005  0.000012  0.000013  0.000009  0.000000
                                 0.000000  0.000000  0.000000 -0.000001  0.000002  0.000001 -0.000005 -0.000002 -0.000007  0.000000
                                 0.000000 -0.000000  0.000000 -0.000000  0.000000 -0.000000  0.000000 -0.000000  0.000000 -0.000000
                                 0.000000 -0.000000 -0.000000 -0.000000  0.000000  0.000000  0.000000 -0.000002 -0.000001  0.000004
                                 0.000002  0.000000  0.000000 -0.000000 -0.000000  0.000000  0.000001 -0.000001 -0.000003  0.000001
                                 0.000000 -0.000000  0.000000 -0.000001 -0.000000  0.000004  0.000000 -0.000016 -0.000000  0.000088
                                 0.000000 -0.001583  0.000000 -0.014137 -0.000000  0.042700 -0.000000 -0.040150  0.000000  0.007502
                                 0.000000  0.246246 -0.000000  0.003739 -0.000000  0.027164  0.000000 -0.047690 -0.000000  0.012674
                                 0.000001  0.152933  0.000001  0.207362  0.000001  0.219948  0.000001  0.200072 -0.000000  0.158072
                                 0.000000  0.105351 -0.000000  0.006632  0.000000  0.002316 -0.000000 -0.000024  0.000000  0.000196
                                -0.000000 -0.002796 -0.000001 -0.044678 -0.000001 -0.063939 -0.000001 -0.062405 -0.000001 -0.030589
                                -0.000000 -0.011389 -0.000000 -0.006791 -0.000000  0.006532  0.000000  0.004095  0.000000  0.006747
                                 0.000000 -0.002084  0.000000 -0.000454 -0.000000  0.000000 -0.000035  0.000000  0.000000  0.000028
                                -0.000000  0.000000 -0.000450  0.000000  0.000000  0.000579 -0.000000  0.000000  0.001721 -0.000000
                                 0.000000 -0.000005  0.000000  0.000000 -0.002310  0.000000  0.000000 -0.005415 -0.000000  0.000000
                                -0.004858 -0.000101 -0.000000 -0.000000 -0.000131 -0.000000 -0.000000 -0.000399  0.000000 -0.000000
                                -0.000000  0.000000 -0.000000  0.000000 -0.000000  0.000000 -0.000000  0.000000  0.000000  0.000000
                                -0.000014 -0.000000 -0.000000 -0.000000 -0.000000 -0.000001 -0.000001 -0.000003  0.000001 -0.000000
                                 0.000000 -0.000000  0.006233 -0.000000  0.021350  0.000000  0.008175 -0.000000  0.000489  0.000000
                                -0.002161  0.000000 -0.001212

   8.1   0    -0.0555   -5.6829 -0.000000  0.000000 -0.000001  0.000021  0.000093  0.000289  0.000605  0.001317 -0.000503  0.001630
                                -0.032475  0.098763 -0.033026  0.022093  0.125614  0.447007 -0.810269 -1.087467 -0.938257 -0.000037
                                -0.000168 -0.000492 -0.001370  0.054026 -0.232611  0.105575  0.349296 -0.022632  0.626432 -0.129846
                                 0.005922 -0.002042 -0.000000  0.000000 -0.000000  0.000000 -0.000000  0.000000 -0.000000  0.000001
                                -0.000005  0.000059  0.000911  0.001049 -0.012223 -0.002201 -0.015302  0.114998  0.088160 -0.337473
                                -0.199999 -0.000293 -0.001316  0.004051  0.026645 -0.011115 -0.072134  0.081061  0.320965 -0.080339
                                -0.009749  0.002663  0.000000 -0.000000 -0.000000  0.000000  0.000002 -0.000000 -0.000008  0.000000
                                 0.000091 -0.000000  0.000215 -0.000000 -0.005465  0.000000  0.013796 -0.000000 -0.014789  0.000000
                                -0.060976  0.000002 -0.000166  0.000000 -0.000060  0.000000  0.002416 -0.000000  0.004089  0.000000
                                -0.065731  0.000001 -0.092157  0.000002 -0.135249  0.000002 -0.152095  0.000002  0.039568  0.000002
                                -0.001085  0.000001  0.004467  0.000000 -0.001187  0.000000  0.000025 -0.000000 -0.000197  0.000000
                                 0.002809 -0.000000  0.044438 -0.000000  0.061432 -0.000000  0.058696 -0.000000  0.039177 -0.000000
                                 0.012597 -0.000000  0.009683 -0.000000  0.004749  0.000000 -0.020340  0.000000 -0.018681  0.000000
                                 0.000304  0.000000 -0.000331  0.000000  0.000054 -0.000020 -0.000000 -0.000122  0.000007  0.000000
                                 0.000413 -0.000279 -0.000000 -0.001721 -0.000165  0.000000 -0.000487 -0.000544  0.000000 -0.001596
                                 0.001244 -0.000000 -0.016775 -0.007307 -0.000000 -0.011316 -0.008422 -0.000000 -0.002436 -0.013206
                                -0.000000 -0.000000  0.000104 -0.000006  0.000000  0.000143  0.000158 -0.000000  0.000099  0.000281
                                 0.000000 -0.000000  0.000001 -0.000003  0.000029 -0.001721  0.003426 -0.007272 -0.023434 -0.009902
                                 1.222695  0.002652  0.002986  0.002128  0.018652  0.062644  0.101831  0.240853  0.008627  0.001439
                                -0.000579  0.001431  0.000000  0.006190  0.000000 -0.028163  0.000000  0.000188  0.000000  0.000094
                                -0.000000 -0.002457 -0.000000

   9.1   0    -0.0022   -2.1026  0.000000 -0.000000  0.000001 -0.000010 -0.000043 -0.000134 -0.000281 -0.000617  0.000240 -0.000800
                                 0.012343 -0.011543  0.034804 -0.057182 -0.183703 -0.020115  2.479151  3.913685  4.544852  0.000017
                                 0.000078  0.000228  0.000640 -0.020026  0.037958  0.128924 -0.818342 -3.219750 -5.213396 -0.899967
                                 0.273258 -0.772805  0.000000 -0.000000  0.000000 -0.000000  0.000000 -0.000000  0.000001 -0.000002
                                 0.000010 -0.000091 -0.000996 -0.001416 -0.003343 -0.012325 -0.037774 -0.044659 -0.105579  0.391274
                                 0.375883  0.000368  0.001445  0.004735  0.000707  0.021553  0.076365 -0.454845 -0.602014  0.414258
                                 0.032386 -0.189389 -0.000000  0.000000  0.000000 -0.000000  0.000000  0.000000  0.000000 -0.000000
                                -0.000016  0.000000 -0.000335  0.000000 -0.000527 -0.000000  0.003361  0.000000 -0.010957 -0.000000
                                -0.048496 -0.000000  0.000054 -0.000000  0.000778 -0.000000 -0.000653  0.000000  0.004050 -0.000000
                                -0.011407 -0.000000 -0.058171 -0.000000  0.098339 -0.000000  0.082092 -0.000000 -0.050499  0.000000
                                 0.033509 -0.000000  0.047299 -0.000000  0.026292  0.000000  0.000003  0.000000 -0.000026 -0.000000
                                 0.000365  0.000000  0.005691  0.000000  0.007624  0.000000  0.007066  0.000000  0.004695  0.000000
                                 0.001720  0.000000  0.001596  0.000000 -0.008254  0.000000  0.020474 -0.000000  0.028027 -0.000000
                                -0.008073 -0.000000  0.022684  0.000000 -0.000000 -0.000009 -0.000000 -0.000025  0.000049  0.000000
                                -0.000033 -0.000079 -0.000000 -0.000653  0.000366 -0.000000 -0.000484 -0.000808 -0.000000 -0.001715
                                 0.002042  0.000000  0.003969 -0.001246  0.000000  0.007019  0.008793  0.000000 -0.000197 -0.015264
                                 0.000000  0.000000  0.000014  0.000001  0.000000  0.000004 -0.000005  0.000000 -0.000025 -0.000104
                                -0.000000  0.000000 -0.000000  0.000002 -0.000014  0.000280 -0.000128 -0.000456  0.008093  0.149527
                                -1.129245 -0.000189 -0.000456  0.000387  0.003371  0.011982  0.014931 -0.095390  0.100553  0.000321
                                -0.000105 -0.001163 -0.000000 -0.004090 -0.000000  0.016438 -0.000000 -0.000123 -0.000000  0.000443
                                 0.000000  0.000689  0.000000

                                   1 2px     1 2px     1 2px     1 2px     1 2px     1 2px     1 2px     1 2px     1 2px     1 2px
                                   1 2px     1 2px     1 2px     1 2px     1 2px     1 2px     1 2px     1 2px     1 2px     1 2px
                                   1 2px     1 2px     1 2px     1 2px     1 2px     1 2px     1 2px     1 2px     1 2px     1 2px
                                   1 3d1+    1 3d1+    1 3d1+    1 3d1+    1 3d1+    1 3d1+    1 3d1+    1 3d1+    1 3d1+    1 3d1+
                                   1 3d1+    1 3d1+    1 3d1+    1 3d1+    1 3d1+    1 3d1+    1 3d1+    1 3d1+    1 3d1+    1 3d1+
                                   1 3d1+    1 3d1+    1 4f1+    1 4f3+    1 4f1+    1 4f3+    1 4f1+    1 4f3+    1 4f1+    1 4f3+
                                   1 4f1+    1 4f3+    1 4f1+    1 4f3+    1 4f1+    1 4f3+    1 4f1+    1 4f3+    1 4f1+    1 4f3+
                                   1 4f1+    1 4f3+    1 4f1+    1 4f3+    1 4f1+    1 4f3+    1 4f1+    1 4f3+    1 4f1+    1 4f3+
                                   1 5g1+    1 5g3+    1 5g1+    1 5g3+    1 5g1+    1 5g3+    1 5g1+    1 5g3+    1 5g1+    1 5g3+
                                   1 5g1+    1 5g3+    1 5g1+    1 5g3+    1 5g1+    1 5g3+    1 5g1+    1 5g3+    1 6h1+    1 6h3+
                                   1 6h5+    1 6h1+    1 6h3+    1 6h5+    1 6h1+    1 6h3+    1 6h5+    2 2px     2 2px     2 2px
                                   2 2px     2 2px     2 2px     2 2px     2 2px     2 3d1+    2 3d1+    2 3d1+    2 3d1+    2 4f1+
                                   2 4f3+    2 4f1+    2 4f3+

   1.2   2    -1.0181  -14.3522  0.000000 -0.000000  0.000001 -0.000002  0.000003 -0.000003  0.000007 -0.000021  0.000087 -0.000833
                                -0.009266 -0.011843  0.078995 -0.102335  0.196910  0.236768 -0.111477  0.034128  0.016924  0.003413
                                 0.013192 -0.015899 -0.137378  0.128407  0.240481 -0.000876 -0.005132  0.002691  0.000226 -0.000040
                                -0.000000  0.000001 -0.000005  0.000028 -0.000485 -0.003711  0.012353 -0.012597  0.047170  0.005226
                                 0.001103  0.006751 -0.012460 -0.017153  0.021166 -0.114459  0.021055  0.009406 -0.000161  0.000264
                                -0.000154  0.000050  0.000008  0.000002 -0.000069 -0.000012  0.001138  0.000173  0.022447  0.002780
                                 0.045206  0.004214  0.053911  0.003461  0.026158  0.001520 -0.000269  0.000585 -0.015420  0.000677
                                -0.032011  0.001271 -0.029814  0.001384  0.015345 -0.000196 -0.004619  0.000274  0.001488 -0.000074
                                 0.000117  0.000006  0.000162  0.000043  0.000374  0.000173  0.010983  0.000070 -0.001787  0.000258
                                -0.001632  0.000112 -0.010164  0.000194  0.001558  0.000021  0.000522  0.000009 -0.000192  0.000158
                                 0.000051  0.000583  0.000335  0.000088  0.004390  0.000285 -0.000498  0.005522  0.047047  0.163638
                                 0.236143  0.276027 -0.025002  0.005234 -0.001493 -0.020712 -0.053752 -0.058747 -0.001597  0.008591
                                -0.000039  0.010713  0.000148

   2.2   2    -0.5406  -12.7225 -0.000000  0.000000 -0.000000  0.000001 -0.000002  0.000002 -0.000005  0.000014 -0.000058  0.000562
                                 0.006600  0.008463 -0.059483  0.051609 -0.055513 -0.270968 -0.395246  0.022830  0.032601 -0.002361
                                -0.009503  0.012959  0.115036 -0.100990 -0.286644 -0.005208 -0.019342  0.013206  0.001462 -0.000273
                                -0.000001  0.000003 -0.000011  0.000061 -0.001086 -0.009035  0.029519 -0.028997  0.042007  0.083194
                                 0.002517  0.017134 -0.031388 -0.006881  0.074426 -0.143662  0.052483  0.022396 -0.001834  0.001115
                                -0.000562  0.000178  0.000020 -0.000000 -0.000163  0.000003  0.002510 -0.000028  0.044479 -0.000373
                                 0.076997 -0.000732  0.092735 -0.000159  0.057354  0.000448  0.005479  0.000060 -0.013042 -0.000164
                                -0.031212 -0.001104 -0.042124 -0.001159  0.028471 -0.000074 -0.008640 -0.000147  0.002885  0.000026
                                 0.000233 -0.000003  0.000073  0.000080  0.001409  0.000088  0.012992  0.000020 -0.000449 -0.000119
                                 0.003181  0.000247 -0.015840  0.000589  0.003323  0.000159  0.001078  0.000042 -0.000095  0.000148
                                -0.000020  0.001024 -0.000145  0.000014  0.004237 -0.000208  0.000515  0.008144  0.070411  0.243147
                                 0.372121  0.488293 -0.037895  0.006797 -0.002205 -0.015187 -0.045153 -0.080981 -0.000936  0.007461
                                -0.000052  0.010742  0.000011

   3.2   +    -0.3667  -16.5805 -0.000000  0.000000 -0.000000  0.000000 -0.000000  0.000000 -0.000000  0.000001 -0.000006  0.000029
                                -0.000494 -0.000426 -0.005237 -0.009922 -0.016654 -0.005198 -0.038516  0.020220  0.002304  0.000036
                                 0.000821  0.002885  0.012755  0.001839  0.005391  0.002484  0.007000 -0.005742 -0.000725  0.000138
                                -0.000000  0.000001 -0.000003  0.000017 -0.000312 -0.002866  0.004673 -0.000081 -0.005205 -0.019656
                                 0.000749  0.005390 -0.007407  0.004335 -0.007732 -0.045375  0.010279 -0.006158  0.005119 -0.002071
                                 0.000934 -0.000279  0.000019  0.000137 -0.000151 -0.001098  0.002160  0.015905  0.034804  0.260962
                                 0.049743  0.382265  0.048737  0.373547  0.026885  0.208322  0.009116  0.061760  0.005043  0.025279
                                -0.011842 -0.003258 -0.003235  0.058354  0.001545 -0.032438  0.000077  0.020779 -0.000055 -0.007509
                                 0.000061  0.000120 -0.000070  0.000257  0.000571  0.001316  0.000167  0.003082  0.000131  0.002629
                                -0.001467  0.000915 -0.003879  0.000358  0.001698 -0.000064 -0.000398  0.000008  0.000177 -0.000486
                                -0.000319  0.000356 -0.000108 -0.000023  0.000448  0.001628 -0.000014 -0.000272 -0.002491 -0.007151
                                -0.014446  0.036951 -0.012093  0.000023  0.000076 -0.001542 -0.002020 -0.014790 -0.000109  0.001080
                                 0.001516  0.000190  0.000614

   4.2   +    -0.3460  -15.9235 -0.000000  0.000000 -0.000000  0.000001 -0.000001  0.000002 -0.000004  0.000011 -0.000047  0.000468
                                 0.005756  0.007825  0.043802  0.060280  0.091758  0.033084  0.328051 -0.098165 -0.017057 -0.002019
                                -0.008367 -0.037022 -0.046249 -0.070615 -0.096215 -0.017138 -0.041193  0.038980  0.005034 -0.000958
                                 0.000001 -0.000005  0.000023 -0.000119  0.002196  0.019746 -0.033198  0.002543  0.027414  0.140070
                                -0.005231 -0.037106  0.051617 -0.029826  0.054195  0.335794 -0.075070  0.040478 -0.036772  0.015001
                                -0.006781  0.002030 -0.000132  0.000019  0.001060 -0.000150 -0.015247  0.002193 -0.247465  0.036175
                                -0.355012  0.053004 -0.351503  0.052179 -0.194437  0.029639 -0.062850  0.008368 -0.033968  0.003509
                                 0.080553  0.000609  0.017547  0.009554 -0.014741 -0.004402 -0.001304  0.003117  0.000448 -0.001093
                                -0.000396  0.000005  0.000553  0.000052 -0.003797  0.000164 -0.001153  0.000348  0.001170  0.000259
                                 0.010108  0.000825  0.028141  0.001286 -0.012867  0.000553  0.002759  0.000113  0.000079 -0.000094
                                -0.000125 -0.001478  0.000457 -0.000102 -0.002309  0.000500 -0.000100  0.001629  0.015247  0.040886
                                 0.086955 -0.284925  0.099613 -0.000704 -0.000461  0.013820  0.023170  0.113834  0.000940 -0.009314
                                 0.000252 -0.003525 -0.000136

   5.2   0    -0.0192   -3.7521  0.000000 -0.000000  0.000000 -0.000000  0.000000 -0.000001  0.000001 -0.000004  0.000016 -0.000156
                                -0.001826 -0.002567  0.014201 -0.014504  0.048114  0.075215  0.009761 -0.080558 -0.052894  0.000655
                                 0.002677 -0.000950 -0.036416  0.030872  0.066667 -0.310647 -0.313123 -0.131315 -0.119810 -0.026109
                                 0.000000 -0.000000  0.000001 -0.000005  0.000093  0.000931 -0.001066 -0.001401  0.010573  0.012355
                                -0.000230 -0.001826  0.002357 -0.004717  0.004864  0.005200  0.006555  0.063010  0.001204  0.009789
                                 0.006674  0.002127 -0.000004  0.000002  0.000034 -0.000015 -0.000476  0.000210 -0.007202  0.003381
                                -0.008761  0.004783 -0.008056  0.004378 -0.006740  0.001731 -0.002576  0.000864 -0.003338  0.000555
                                 0.000703 -0.000859  0.007288 -0.010780  0.024408 -0.024312  0.012863 -0.015540  0.015792 -0.034368
                                -0.000013 -0.000000  0.000043  0.000005 -0.000214  0.000004  0.000806 -0.000042 -0.000800  0.000020
                                 0.000560 -0.000175  0.004135  0.000218  0.003494 -0.001478  0.000388  0.003152  0.000002 -0.000003
                                -0.000006  0.000037 -0.000020 -0.000051  0.000304 -0.000034 -0.000140  0.000087  0.000702  0.003294
                                 0.004516 -0.008278 -0.143522  0.000192 -0.000022 -0.003131 -0.011270 -0.016376 -0.000273  0.001010
                                -0.000066  0.003418  0.000166

   6.2   0     0.0053   -1.1879  0.000000 -0.000000  0.000000 -0.000001  0.000001 -0.000002  0.000004 -0.000011  0.000043 -0.000396
                                -0.004285 -0.005926 -0.049969 -0.049241 -0.161428 -0.124888  0.136691 -0.193114  1.604929  0.001590
                                 0.006141  0.036000  0.065759  0.052005  0.123327 -3.316907 -2.944000  4.085266  2.591300 -2.080543
                                -0.000000  0.000000 -0.000000  0.000000 -0.000003 -0.000050 -0.000211  0.000736 -0.002042 -0.004633
                                 0.000009  0.000109 -0.000016  0.000855 -0.003847 -0.003801 -0.007641  0.241023 -0.038146  0.043776
                                -0.050357  0.131166  0.000001 -0.000000 -0.000011  0.000004  0.000153 -0.000058  0.002358 -0.000992
                                 0.002970 -0.001536  0.002733 -0.001375  0.000581 -0.000163  0.000785 -0.000177  0.000938  0.000029
                                 0.001366 -0.000628 -0.013865  0.006127  0.067694  0.000286  0.001402  0.020593  0.006507 -0.019927
                                -0.000003  0.000001  0.000013 -0.000006 -0.000007  0.000012 -0.000076 -0.000015 -0.000887  0.000069
                                 0.001715 -0.000122 -0.006921  0.000331  0.009274 -0.000299  0.010868  0.000495 -0.000004  0.000001
                                 0.000002  0.000003  0.000006  0.000016 -0.000223  0.000011  0.000044 -0.000044 -0.000379 -0.001370
                                -0.001386  0.011413 -0.478968 -0.000029  0.000012  0.001022  0.002064  0.007242  0.000089 -0.000126
                                 0.000020 -0.000765 -0.000047

                                   1 2py     1 2py     1 2py     1 2py     1 2py     1 2py     1 2py     1 2py     1 2py     1 2py
                                   1 2py     1 2py     1 2py     1 2py     1 2py     1 2py     1 2py     1 2py     1 2py     1 2py
                                   1 2py     1 2py     1 2py     1 2py     1 2py     1 2py     1 2py     1 2py     1 2py     1 2py
                                   1 3d1-    1 3d1-    1 3d1-    1 3d1-    1 3d1-    1 3d1-    1 3d1-    1 3d1-    1 3d1-    1 3d1-
                                   1 3d1-    1 3d1-    1 3d1-    1 3d1-    1 3d1-    1 3d1-    1 3d1-    1 3d1-    1 3d1-    1 3d1-
                                   1 3d1-    1 3d1-    1 4f1-    1 4f3-    1 4f1-    1 4f3-    1 4f1-    1 4f3-    1 4f1-    1 4f3-
                                   1 4f1-    1 4f3-    1 4f1-    1 4f3-    1 4f1-    1 4f3-    1 4f1-    1 4f3-    1 4f1-    1 4f3-
                                   1 4f1-    1 4f3-    1 4f1-    1 4f3-    1 4f1-    1 4f3-    1 4f1-    1 4f3-    1 4f1-    1 4f3-
                                   1 5g1-    1 5g3-    1 5g1-    1 5g3-    1 5g1-    1 5g3-    1 5g1-    1 5g3-    1 5g1-    1 5g3-
                                   1 5g1-    1 5g3-    1 5g1-    1 5g3-    1 5g1-    1 5g3-    1 5g1-    1 5g3-    1 6h1-    1 6h3-
                                   1 6h5-    1 6h1-    1 6h3-    1 6h5-    1 6h1-    1 6h3-    1 6h5-    2 2py     2 2py     2 2py
                                   2 2py     2 2py     2 2py     2 2py     2 2py     2 3d1-    2 3d1-    2 3d1-    2 3d1-    2 4f1-
                                   2 4f3-    2 4f1-    2 4f3-

   1.3   2    -1.0181  -14.3522 -0.000000  0.000000 -0.000001  0.000002 -0.000003  0.000003 -0.000007  0.000021 -0.000087  0.000833
                                 0.009266  0.011843 -0.078995  0.102335 -0.196909 -0.236768  0.111477 -0.034128 -0.016924 -0.003413
                                -0.013192  0.015899  0.137378 -0.128407 -0.240481  0.000876  0.005132 -0.002691 -0.000226  0.000040
                                 0.000000 -0.000001  0.000005 -0.000028  0.000485  0.003711 -0.012353  0.012597 -0.047170 -0.005227
                                -0.001103 -0.006750  0.012460  0.017153 -0.021166  0.114459 -0.021055 -0.009406  0.000161 -0.000264
                                 0.000154 -0.000050 -0.000008  0.000002  0.000069 -0.000012 -0.001138  0.000173 -0.022446  0.002780
                                -0.045205  0.004214 -0.053911  0.003461 -0.026158  0.001520  0.000269  0.000585  0.015420  0.000677
                                 0.032011  0.001271  0.029814  0.001384 -0.015345 -0.000196  0.004619  0.000274 -0.001488 -0.000074
                                -0.000117  0.000006 -0.000162  0.000043 -0.000374  0.000173 -0.010983  0.000070  0.001787  0.000258
                                 0.001632  0.000112  0.010164  0.000194 -0.001558  0.000021 -0.000522  0.000009  0.000192  0.000158
                                -0.000051 -0.000583  0.000335 -0.000088 -0.004390  0.000285  0.000498 -0.005522 -0.047047 -0.163638
                                -0.236143 -0.276027  0.025002 -0.005234  0.001493  0.020712  0.053752  0.058747  0.001597 -0.008591
                                -0.000039 -0.010713  0.000148

   2.3   2    -0.5406  -12.7225 -0.000000  0.000000 -0.000000  0.000001 -0.000002  0.000002 -0.000005  0.000014 -0.000058  0.000562
                                 0.006600  0.008463 -0.059483  0.051610 -0.055513 -0.270968 -0.395245  0.022829  0.032601 -0.002361
                                -0.009503  0.012959  0.115036 -0.100991 -0.286645 -0.005208 -0.019342  0.013206  0.001462 -0.000273
                                -0.000001  0.000003 -0.000011  0.000061 -0.001086 -0.009035  0.029519 -0.028997  0.042007  0.083194
                                 0.002517  0.017134 -0.031388 -0.006881  0.074427 -0.143661  0.052483  0.022396 -0.001834  0.001115
                                -0.000562  0.000178  0.000020  0.000000 -0.000163 -0.000003  0.002510  0.000028  0.044478  0.000373
                                 0.076996  0.000731  0.092734  0.000159  0.057353 -0.000448  0.005479 -0.000060 -0.013042  0.000164
                                -0.031212  0.001104 -0.042124  0.001159  0.028471  0.000074 -0.008640  0.000147  0.002885 -0.000026
                                 0.000233  0.000003  0.000073 -0.000080  0.001409 -0.000088  0.012992 -0.000020 -0.000449  0.000119
                                 0.003181 -0.000247 -0.015840 -0.000589  0.003323 -0.000159  0.001078 -0.000042 -0.000095 -0.000148
                                -0.000020  0.001024  0.000145  0.000014  0.004237  0.000208  0.000515  0.008144  0.070411  0.243148
                                 0.372121  0.488292 -0.037894  0.006797 -0.002205 -0.015186 -0.045153 -0.080980 -0.000936  0.007461
                                 0.000052  0.010742 -0.000011

   3.3   +    -0.3667  -16.5805 -0.000000  0.000000 -0.000000  0.000000 -0.000000  0.000000 -0.000000  0.000001 -0.000006  0.000029
                                -0.000494 -0.000426 -0.005237 -0.009923 -0.016655 -0.005198 -0.038520  0.020221  0.002304  0.000036
                                 0.000821  0.002885  0.012755  0.001840  0.005392  0.002484  0.007000 -0.005743 -0.000725  0.000138
                                -0.000000  0.000001 -0.000003  0.000017 -0.000312 -0.002867  0.004673 -0.000081 -0.005206 -0.019658
                                 0.000749  0.005391 -0.007408  0.004335 -0.007732 -0.045379  0.010280 -0.006158  0.005119 -0.002071
                                 0.000934 -0.000279  0.000019 -0.000137 -0.000151  0.001098  0.002160 -0.015905  0.034807 -0.260962
                                 0.049747 -0.382265  0.048741 -0.373547  0.026887 -0.208322  0.009117 -0.061760  0.005043 -0.025279
                                -0.011843  0.003258 -0.003235 -0.058354  0.001545  0.032438  0.000077 -0.020779 -0.000055  0.007509
                                 0.000061 -0.000120 -0.000070 -0.000257  0.000571 -0.001316  0.000167 -0.003082  0.000131 -0.002629
                                -0.001467 -0.000915 -0.003879 -0.000358  0.001698  0.000064 -0.000398 -0.000008  0.000177  0.000486
                                -0.000319  0.000356  0.000108 -0.000023  0.000448 -0.001628 -0.000014 -0.000272 -0.002491 -0.007151
                                -0.014447  0.036954 -0.012094  0.000023  0.000076 -0.001542 -0.002020 -0.014791 -0.000109  0.001081
                                -0.001516  0.000190 -0.000614

   4.3   +    -0.3460  -15.9235 -0.000000  0.000000 -0.000000  0.000001 -0.000001  0.000002 -0.000004  0.000011 -0.000047  0.000468
                                 0.005756  0.007825  0.043802  0.060280  0.091758  0.033084  0.328052 -0.098165 -0.017057 -0.002019
                                -0.008366 -0.037023 -0.046249 -0.070614 -0.096214 -0.017138 -0.041192  0.038980  0.005034 -0.000958
                                 0.000001 -0.000005  0.000023 -0.000119  0.002196  0.019746 -0.033198  0.002543  0.027414  0.140069
                                -0.005231 -0.037106  0.051617 -0.029826  0.054195  0.335794 -0.075070  0.040478 -0.036772  0.015001
                                -0.006781  0.002030 -0.000132 -0.000019  0.001060  0.000150 -0.015247 -0.002193 -0.247465 -0.036178
                                -0.355011 -0.053009 -0.351503 -0.052183 -0.194437 -0.029642 -0.062850 -0.008369 -0.033968 -0.003509
                                 0.080553 -0.000608  0.017547 -0.009555 -0.014741  0.004402 -0.001304 -0.003117  0.000448  0.001093
                                -0.000396 -0.000005  0.000553 -0.000052 -0.003797 -0.000164 -0.001153 -0.000348  0.001170 -0.000259
                                 0.010108 -0.000825  0.028141 -0.001286 -0.012867 -0.000553  0.002759 -0.000113  0.000079  0.000094
                                -0.000125 -0.001478 -0.000457 -0.000102 -0.002309 -0.000500 -0.000100  0.001629  0.015247  0.040885
                                 0.086953 -0.284926  0.099613 -0.000704 -0.000461  0.013820  0.023170  0.113834  0.000940 -0.009314
                                -0.000252 -0.003525  0.000136

   5.3   0    -0.0192   -3.7521  0.000000 -0.000000  0.000000 -0.000000  0.000000 -0.000001  0.000001 -0.000004  0.000016 -0.000156
                                -0.001826 -0.002567  0.014201 -0.014504  0.048114  0.075215  0.009760 -0.080558 -0.052893  0.000655
                                 0.002677 -0.000950 -0.036415  0.030872  0.066667 -0.310648 -0.313124 -0.131313 -0.119811 -0.026109
                                 0.000000 -0.000000  0.000001 -0.000005  0.000093  0.000931 -0.001066 -0.001401  0.010573  0.012355
                                -0.000230 -0.001826  0.002357 -0.004717  0.004864  0.005200  0.006555  0.063010  0.001203  0.009788
                                 0.006674  0.002127 -0.000004 -0.000002  0.000034  0.000015 -0.000476 -0.000210 -0.007202 -0.003381
                                -0.008761 -0.004783 -0.008056 -0.004378 -0.006740 -0.001731 -0.002576 -0.000864 -0.003338 -0.000555
                                 0.000703  0.000859  0.007288  0.010780  0.024408  0.024312  0.012864  0.015539  0.015792  0.034368
                                -0.000013  0.000000  0.000043 -0.000005 -0.000214 -0.000004  0.000806  0.000042 -0.000800 -0.000020
                                 0.000560  0.000175  0.004135 -0.000218  0.003494  0.001478  0.000388 -0.003152  0.000002  0.000003
                                -0.000006  0.000037  0.000020 -0.000051  0.000304  0.000034 -0.000140  0.000087  0.000702  0.003294
                                 0.004516 -0.008278 -0.143521  0.000192 -0.000022 -0.003131 -0.011270 -0.016376 -0.000273  0.001010
                                 0.000066  0.003418 -0.000166

   6.3   0     0.0053   -1.1879  0.000000 -0.000000  0.000000 -0.000001  0.000001 -0.000002  0.000004 -0.000011  0.000043 -0.000396
                                -0.004285 -0.005926 -0.049969 -0.049241 -0.161429 -0.124888  0.136691 -0.193115  1.604930  0.001590
                                 0.006141  0.036000  0.065759  0.052006  0.123327 -3.316912 -2.944004  4.085273  2.591308 -2.080546
                                -0.000000  0.000000 -0.000000  0.000000 -0.000003 -0.000050 -0.000211  0.000736 -0.002042 -0.004633
                                 0.000009  0.000109 -0.000016  0.000855 -0.003847 -0.003802 -0.007641  0.241023 -0.038145  0.043776
                                -0.050358  0.131166  0.000001  0.000000 -0.000011 -0.000004  0.000153  0.000058  0.002358  0.000992
                                 0.002970  0.001536  0.002733  0.001375  0.000581  0.000163  0.000785  0.000177  0.000938 -0.000029
                                 0.001366  0.000628 -0.013865 -0.006127  0.067694 -0.000286  0.001402 -0.020593  0.006507  0.019927
                                -0.000003 -0.000001  0.000013  0.000006 -0.000007 -0.000012 -0.000076  0.000015 -0.000887 -0.000069
                                 0.001715  0.000122 -0.006921 -0.000331  0.009274  0.000299  0.010868 -0.000495 -0.000004 -0.000001
                                 0.000002  0.000003 -0.000006  0.000016 -0.000223 -0.000011  0.000044 -0.000044 -0.000379 -0.001370
                                -0.001387  0.011413 -0.478968 -0.000029  0.000012  0.001022  0.002064  0.007242  0.000089 -0.000126
                                -0.000020 -0.000765  0.000047

                                   1 3d2-    1 3d2-    1 3d2-    1 3d2-    1 3d2-    1 3d2-    1 3d2-    1 3d2-    1 3d2-    1 3d2-
                                   1 3d2-    1 3d2-    1 3d2-    1 3d2-    1 3d2-    1 3d2-    1 3d2-    1 3d2-    1 3d2-    1 3d2-
                                   1 3d2-    1 3d2-    1 4f2-    1 4f2-    1 4f2-    1 4f2-    1 4f2-    1 4f2-    1 4f2-    1 4f2-
                                   1 4f2-    1 4f2-    1 4f2-    1 4f2-    1 4f2-    1 4f2-    1 5g2-    1 5g4-    1 5g2-    1 5g4-
                                   1 5g2-    1 5g4-    1 5g2-    1 5g4-    1 5g2-    1 5g4-    1 5g2-    1 5g4-    1 5g2-    1 5g4-
                                   1 5g2-    1 5g4-    1 5g2-    1 5g4-    1 6h4-    1 6h2-    1 6h4-    1 6h2-    1 6h4-    1 6h2-
                                   2 3d2-    2 3d2-    2 3d2-    2 3d2-    2 4f2-    2 4f2-

   1.4   +    -0.3908  -16.6988 -0.000000  0.000001 -0.000004  0.000023 -0.000371 -0.003138  0.008162 -0.007416  0.005354  0.032807
                                 0.000846  0.005980 -0.009712  0.005560  0.026002  0.002214  0.009734 -0.003077  0.002560 -0.001042
                                 0.000488 -0.000146  0.000135 -0.001084  0.015757  0.259506  0.383103  0.378992  0.217811  0.060066
                                 0.021728 -0.004072  0.053322 -0.030882  0.019180 -0.007003  0.000178  0.000000  0.000276  0.000000
                                 0.001581  0.000000  0.005681  0.000000  0.004533  0.000000  0.003801  0.000000 -0.004211  0.000000
                                 0.002437  0.000000 -0.000877  0.000000  0.000000 -0.000095  0.000000  0.000679  0.000000  0.004218
                                 0.010122  0.013365  0.004904  0.000559 -0.007633  0.005972

   2.4   0     0.0070   -3.3158  0.000001 -0.000004  0.000015 -0.000080  0.001445  0.013006 -0.033871  0.025775  0.009219 -0.117806
                                -0.003429 -0.024880  0.040939 -0.016893 -0.092646 -0.136886 -0.041881 -0.212676  0.028216 -0.395504
                                 0.151738 -0.708658  0.000006 -0.000046  0.000648  0.010194  0.013667  0.012846  0.003756  0.003002
                                 0.002836 -0.003003 -0.005980  0.001943 -0.007805  0.014043  0.000007 -0.000000 -0.000020  0.000000
                                 0.000132 -0.000000 -0.000707 -0.000000 -0.001099 -0.000000 -0.000801  0.000000  0.000742 -0.000000
                                -0.002821  0.000000  0.005635 -0.000000  0.000000 -0.000002  0.000000  0.000027 -0.000000  0.000019
                                -0.003871 -0.012253 -0.005754 -0.000295  0.001529  0.000170

   3.4   0     0.0132   -3.0699  0.000000 -0.000002  0.000007 -0.000036  0.000700  0.006554 -0.006090 -0.011254  0.039639  0.172237
                                -0.001697 -0.012459  0.015053 -0.018350  0.059509  0.021252  0.290687 -0.234371  0.600052 -0.464998
                                 1.194068 -1.438095 -0.000006  0.000048 -0.000684 -0.010722 -0.014291 -0.013429 -0.003938 -0.003203
                                -0.003104  0.004180  0.004192  0.003647 -0.002382  0.003231 -0.000003  0.000000  0.000006 -0.000000
                                -0.000096  0.000000  0.000652  0.000000  0.001446  0.000000  0.000659 -0.000000 -0.000053  0.000000
                                 0.001463  0.000000 -0.003223  0.000000 -0.000000  0.000003 -0.000000 -0.000031  0.000000 -0.000003
                                 0.004160  0.012812  0.005832  0.000312 -0.001695  0.000173

 HOMO      7.1    -0.061959 =      -1.6860eV
 LUMO      8.1    -0.055469 =      -1.5094eV
 LUMO-HOMO         0.006490 =       0.1766eV


 **********************************************************************************************************************************
 DATASETS  * FILE   NREC   LENGTH (MB)   RECORD NAMES
              1      20       23.19       500      610      700      900      950      970     1000      129      960     1100
                                          VAR    BASINP    GEOM    SYMINP    ZMAT    AOBASIS   BASIS     P2S    ABASIS      S
                                         1400     1410     1420     1200     1210     1080     1600     1650     1700     1800
                                           T        V       ECP      H0       H01     AOSYM     SMH    MOLCAS    OPER     GRID

              2       5        4.99       700     1000      520     1800     2202
                                         GEOM     BASIS   MCVARS    GRID      RKS

 PROGRAMS   *        TOTAL       RKS       INT
 CPU TIMES  *       233.27     63.66    169.02
 REAL TIME  *       278.93 SEC
 DISK USED  *        21.52 GB
 SF USED    *         0.31 MB
 GA USED    *         0.27 MB       (max)       0.27 MB       (current)
 **********************************************************************************************************************************
   -->
   <time start="21:56:33" end="22:01:11" cpu="233.27" system="29.43" real="278.93"/>
   <storage units="megabyte" memory="8001.84" sf="0.31" df="432.22" eaf="21089.21"
     ga="0.27"/>
  </jobstep><!--
  --><jobstep command="RHF-SCF" commandset="SCFPRO">
   <!--


 PROGRAM * RHF-SCF (OPEN SHELL)       Authors: W. Meyer, H.-J. Werner


 NUMBER OF ELECTRONS:      16+    8-    SPACE SYMMETRY=4    SPIN SYMMETRY: Nonet
 CONVERGENCE THRESHOLDS:    1.00E-05 (Density)    1.00E-07 (Energy)
 MAX. NUMBER OF ITERATIONS:      200
 INTERPOLATION TYPE:            DIIS
 INTERPOLATION STEPS:              2 (START)      1 (STEP)
 LEVEL SHIFTS:                 -0.60 (CLOSED) -0.30 (OPEN)

 Number of closed-shell orbitals:    8 (   4   2   2   0 )
 Number of open-shell orbitals:      8 (   3   2   2   1 )


 Molecular orbitals read from record     2202.2  Type=RKS/CANONICAL (state 1.4)

 Molecular orbital dump at record        3202.2

 ITERATION    DDIFF          GRAD             ENERGY        2-EL.EN.            DIPOLE MOMENTS         DIIS   ORB.
    1      0.000D+00      0.000D+00      -122.79605081    307.262042    0.00000    0.00000   -0.45311    0    start
    2      0.000D+00      0.509D-02      -122.82330028    303.682459    0.00000    0.00000   -0.44404    1    diag,B
    3      0.132D-01      0.253D-02      -122.83097097    305.950613    0.00000    0.00000   -0.35918    2    diag,B
    4      0.403D-02      0.595D-03      -122.83248925    305.606955    0.00000    0.00000   -0.36413    3    diag,B
    5      0.170D-02      0.263D-03      -122.83305278    305.794943    0.00000    0.00000   -0.34173    4    diag,B
    6      0.458D-03      0.102D-03      -122.83323851    305.886617    0.00000    0.00000   -0.33764    5    diag,B
    7      0.173D-03      0.581D-04      -122.83333098    305.943445    0.00000    0.00000   -0.33345    6    diag,B
    8      0.162D-03      0.356D-04      -122.83338898    305.997971    0.00000    0.00000   -0.33340    7    orth
    9      0.837D-04      0.263D-04      -122.83343343    306.045805    0.00000    0.00000   -0.33490    8    diag,B
   10      0.135D-03      0.204D-04      -122.83346704    306.082193    0.00000    0.00000   -0.33676    9    diag,B
   11      0.149D-03      0.180D-04      -122.83347739    306.089008    0.00000    0.00000   -0.33719    9    diag,B
   12      0.444D-04      0.189D-04      -122.83347207    306.092937    0.00000    0.00000   -0.33749    9    diag,B
   13      0.222D-04      0.164D-04      -122.83348476    306.107237    0.00000    0.00000   -0.33891    9    diag,B
   14      0.864D-04      0.138D-04      -122.83350174    306.118018    0.00000    0.00000   -0.33925    9    diag,B
   15      0.897D-04      0.121D-04      -122.83351388    306.121830    0.00000    0.00000   -0.33919    9    diag,B
   16      0.735D-04      0.115D-04      -122.83353025    306.130254    0.00000    0.00000   -0.33810    9    diag,B
   17      0.109D-03      0.109D-04      -122.83354842    306.140633    0.00000    0.00000   -0.33603    9    diag,B
   18      0.143D-03      0.105D-04      -122.83358042    306.156041    0.00000    0.00000   -0.33149    9    orth
   19      0.274D-03      0.985D-05      -122.83362722    306.172598    0.00000    0.00000   -0.32402    9    diag,B
   20      0.420D-03      0.123D-04      -122.83363785    306.176354    0.00000    0.00000   -0.32290    9    diag,B
   21      0.941D-04      0.130D-04      -122.83360357    306.158832    0.00000    0.00000   -0.32569    9    diag,B
   22      0.315D-03      0.116D-04      -122.83360657    306.161880    0.00000    0.00000   -0.32564    9    diag,B
   23      0.283D-04      0.114D-04      -122.83359322    306.154347    0.00000    0.00000   -0.32704    9    diag,B
   24      0.121D-03      0.110D-04      -122.83360571    306.161519    0.00000    0.00000   -0.32558    9    diag,B
   25      0.111D-03      0.102D-04      -122.83363180    306.174088    0.00000    0.00000   -0.32263    9    diag,B
   26      0.236D-03      0.103D-04      -122.83361857    306.168286    0.00000    0.00000   -0.32406    9    diag,B
   27      0.120D-03      0.989D-05      -122.83361493    306.165876    0.00000    0.00000   -0.32422    9    diag,B
   28      0.310D-04      0.101D-04      -122.83363435    306.172467    0.00000    0.00000   -0.32198    9    orth
   29      0.175D-03      0.113D-04      -122.83360894    306.161614    0.00000    0.00000   -0.32331    9    diag,B
   30      0.222D-03      0.113D-04      -122.83358884    306.148663    0.00000    0.00000   -0.32514    9    diag,B
   31      0.178D-03      0.130D-04      -122.83370620    306.166597    0.00000    0.00000   -0.30918    9    diag,B
   32      0.106D-02      0.396D-04      -122.83363145    306.171798    0.00000    0.00000   -0.32227    9    diag,B
   33      0.691D-03      0.109D-04      -122.83360876    306.161978    0.00000    0.00000   -0.32415    9    diag,B
   34      0.202D-03      0.107D-04      -122.83360480    306.159378    0.00000    0.00000   -0.32429    9    diag,B
   35      0.344D-04      0.112D-04      -122.83362578    306.167645    0.00000    0.00000   -0.32199    9    diag,B
   36      0.190D-03      0.118D-04      -122.83363116    306.169322    0.00000    0.00000   -0.32154    9    diag,B
   37      0.471D-04      0.119D-04      -122.83335268    305.948895    0.00000    0.00000   -0.33490    9    diag,B
   38      0.156D-02      0.103D-03      -122.83397587    306.007477    0.00000    0.00000   -0.29454    9    orth
   39      0.346D-02      0.158D-03      -122.83379372    306.130246    0.00000    0.00000   -0.30788    9    diag,B
   40      0.798D-03      0.608D-04      -122.83352411    306.092021    0.00000    0.00000   -0.32813    9    diag,B
   41      0.193D-02      0.396D-04      -122.83374038    306.145228    0.00000    0.00000   -0.30892    9    diag,B
   42      0.170D-02      0.524D-04      -122.83412231    305.942757    0.00000    0.00000   -0.29511    9    diag,B
   43      0.129D-02      0.192D-03      -122.83377662    306.119109    0.00000    0.00000   -0.30191    9    diag,B
   44      0.101D-02      0.853D-04      -122.83366289    306.168079    0.00000    0.00000   -0.30798    9    diag,B
[...]
                                -0.000000  0.000010  0.000000 -0.000003 -0.000055  0.000002 -0.000017  0.000003  0.000006  0.000361
                                 0.000541 -0.002217 -0.471499  0.000064 -0.000000 -0.000244 -0.001608  0.004304 -0.000019  0.000223
                                -0.000003  0.000124 -0.000006

   6.2   0     0.0114   -1.0472  0.000000 -0.000000  0.000000 -0.000000  0.000000 -0.000000  0.000001 -0.000003  0.000012 -0.000109
                                -0.001192 -0.001649 -0.011342 -0.013142 -0.040653 -0.024894 -0.017065 -0.041036 -0.011596  0.000441
                                 0.001712  0.008830  0.013645  0.015391  0.042071 -0.355594 -0.208201  0.356104  0.308759 -0.177655
                                 0.000001 -0.000003  0.000014 -0.000076  0.001414  0.012856 -0.026440  0.010033  0.029082  0.030679
                                -0.003375 -0.024518  0.036840 -0.022163 -0.021032 -0.128435  0.201468 -0.406012  0.489220 -0.671319
                                 1.147244 -1.626299 -0.000000 -0.000000  0.000002  0.000000 -0.000029 -0.000000 -0.000655 -0.000005
                                -0.001503 -0.000006 -0.001416 -0.000005  0.003926 -0.000002  0.000155 -0.000002  0.000723 -0.000002
                                -0.009032  0.000008 -0.005376  0.000020 -0.006212  0.000046 -0.010437  0.000023  0.011309  0.000056
                                 0.000007 -0.000000 -0.000026 -0.000000  0.000072 -0.000000 -0.000194 -0.000001  0.001804  0.000001
                                -0.002127 -0.000011 -0.001272 -0.000006  0.000140 -0.000088 -0.003797 -0.000012  0.000007  0.000000
                                -0.000000 -0.000036  0.000001 -0.000000  0.000260  0.000000  0.000000  0.000011  0.000048  0.000961
                                -0.001815  0.044516  0.099270  0.000130 -0.000001  0.000021  0.003194 -0.014986 -0.000003 -0.000344
                                -0.000000 -0.001009 -0.000001

                                   1 2py     1 2py     1 2py     1 2py     1 2py     1 2py     1 2py     1 2py     1 2py     1 2py
                                   1 2py     1 2py     1 2py     1 2py     1 2py     1 2py     1 2py     1 2py     1 2py     1 2py
                                   1 2py     1 2py     1 2py     1 2py     1 2py     1 2py     1 2py     1 2py     1 2py     1 2py
                                   1 3d1-    1 3d1-    1 3d1-    1 3d1-    1 3d1-    1 3d1-    1 3d1-    1 3d1-    1 3d1-    1 3d1-
                                   1 3d1-    1 3d1-    1 3d1-    1 3d1-    1 3d1-    1 3d1-    1 3d1-    1 3d1-    1 3d1-    1 3d1-
                                   1 3d1-    1 3d1-    1 4f1-    1 4f3-    1 4f1-    1 4f3-    1 4f1-    1 4f3-    1 4f1-    1 4f3-
                                   1 4f1-    1 4f3-    1 4f1-    1 4f3-    1 4f1-    1 4f3-    1 4f1-    1 4f3-    1 4f1-    1 4f3-
                                   1 4f1-    1 4f3-    1 4f1-    1 4f3-    1 4f1-    1 4f3-    1 4f1-    1 4f3-    1 4f1-    1 4f3-
                                   1 5g1-    1 5g3-    1 5g1-    1 5g3-    1 5g1-    1 5g3-    1 5g1-    1 5g3-    1 5g1-    1 5g3-
                                   1 5g1-    1 5g3-    1 5g1-    1 5g3-    1 5g1-    1 5g3-    1 5g1-    1 5g3-    1 6h1-    1 6h3-
                                   1 6h5-    1 6h1-    1 6h3-    1 6h5-    1 6h1-    1 6h3-    1 6h5-    2 2py     2 2py     2 2py
                                   2 2py     2 2py     2 2py     2 2py     2 2py     2 3d1-    2 3d1-    2 3d1-    2 3d1-    2 4f1-
                                   2 4f3-    2 4f1-    2 4f3-

   1.3   2    -1.2369  -14.5729 -0.000000  0.000000 -0.000001  0.000002 -0.000002  0.000003 -0.000006  0.000018 -0.000073  0.000681
                                 0.007752  0.010865 -0.070532  0.089775 -0.193071 -0.227885  0.133859 -0.038361 -0.026590 -0.002796
                                -0.011379  0.010699  0.139807 -0.127530 -0.225024  0.001796  0.009800 -0.005477 -0.000452  0.000079
                                 0.000000 -0.000001  0.000004 -0.000019  0.000349  0.003064 -0.011522  0.012555 -0.050189 -0.002193
                                -0.000821 -0.005781  0.011167  0.016947 -0.019659  0.125683 -0.021273 -0.014195  0.000766 -0.000453
                                 0.000229 -0.000071 -0.000008  0.000001  0.000065 -0.000006 -0.001070  0.000096 -0.020914  0.001619
                                -0.044266  0.002756 -0.053512  0.002930 -0.025678  0.003050  0.001290  0.000237  0.017444 -0.000252
                                 0.033386  0.002460  0.034225  0.002605 -0.017806  0.000073  0.005014  0.000399 -0.001607 -0.000088
                                -0.000117  0.000040 -0.000151  0.000077 -0.000107  0.000249 -0.012442  0.000423  0.002101  0.000558
                                 0.000715  0.000277  0.011173  0.000277 -0.001532  0.000066 -0.000805  0.000010  0.000108  0.000044
                                -0.000010 -0.000737  0.000187  0.000052 -0.004940  0.000521  0.000498 -0.005796 -0.048038 -0.170968
                                -0.258012 -0.303482  0.033919 -0.005839  0.001499  0.021806  0.056072  0.061538  0.001601 -0.009128
                                 0.000118 -0.011358  0.000398

   2.3   2    -0.6878  -12.8203 -0.000000  0.000000 -0.000000  0.000001 -0.000001  0.000002 -0.000004  0.000011 -0.000046  0.000428
                                 0.004933  0.006997 -0.061628  0.047162 -0.058620 -0.280450 -0.398549  0.025272  0.055937 -0.001768
                                -0.007289  0.013946  0.126571 -0.111007 -0.296491 -0.008224 -0.033614  0.021872  0.002220 -0.000403
                                -0.000000  0.000002 -0.000009  0.000047 -0.000864 -0.007932  0.027532 -0.029479  0.044791  0.085313
                                 0.002058  0.015347 -0.028613 -0.004633  0.076969 -0.149529  0.048791  0.031524 -0.002723  0.001281
                                -0.000611  0.000188  0.000018 -0.000000 -0.000146  0.000001  0.002222 -0.000016  0.038363 -0.000220
                                 0.069189 -0.000193  0.082985 -0.000203  0.055574  0.000624  0.003402 -0.000097 -0.014155 -0.000180
                                -0.028824  0.002000 -0.046361  0.002050  0.032616  0.000521 -0.008828  0.000223  0.002957 -0.000018
                                 0.000285 -0.000037  0.000211 -0.000073  0.001576 -0.000205  0.013617 -0.000304  0.001156 -0.000273
                                 0.004109 -0.000276 -0.016167 -0.000345  0.003090 -0.000208  0.001675 -0.000047 -0.000067  0.000019
                                 0.000009  0.000873  0.000080  0.000077  0.004707  0.000203  0.000534  0.007857  0.066354  0.230026
                                 0.367721  0.497647 -0.059031  0.006462 -0.002044 -0.015014 -0.045830 -0.080563 -0.000873  0.007389
                                -0.000034  0.010244  0.000018

   3.3   +    -0.5080  -16.6576  0.000000 -0.000000  0.000000 -0.000000  0.000000 -0.000000  0.000000 -0.000000  0.000000 -0.000002
                                 0.000012  0.000182 -0.002863 -0.004888 -0.008806 -0.003398 -0.007728  0.013682  0.004512  0.000004
                                -0.000088  0.000918  0.010269 -0.006312 -0.003976  0.000599  0.001624 -0.001060 -0.000176  0.000034
                                -0.000000  0.000000 -0.000001  0.000006 -0.000112 -0.001018  0.001637  0.000540 -0.003274 -0.009205
                                 0.000269  0.001960 -0.002759  0.001092 -0.005242 -0.017200  0.004122 -0.002107  0.001782 -0.000686
                                 0.000304 -0.000089  0.000008 -0.000143 -0.000063  0.001155  0.000897 -0.016626  0.013693 -0.258749
                                 0.019551 -0.383624  0.019534 -0.381541  0.010486 -0.216796  0.003486 -0.057648  0.002454 -0.024601
                                -0.005563  0.000134 -0.002187 -0.061156  0.000118  0.031614 -0.000125 -0.020668 -0.000007  0.007241
                                 0.000037 -0.000190  0.000007 -0.000350  0.000341 -0.001603  0.000173 -0.003661  0.000288 -0.003306
                                -0.000546 -0.001217 -0.001523 -0.000502  0.000628 -0.000021 -0.000151 -0.000017  0.000060  0.000139
                                 0.000010  0.000164  0.000007  0.000034  0.000169 -0.001693  0.000045 -0.000101 -0.000887 -0.002783
                                -0.005442  0.014708 -0.003559 -0.000038  0.000027 -0.000328 -0.000050 -0.005203 -0.000024  0.000294
                                -0.001415 -0.000111 -0.000518

   4.3   +    -0.4562  -15.7698 -0.000000  0.000000 -0.000000  0.000001 -0.000002  0.000002 -0.000004  0.000012 -0.000051  0.000471
                                 0.005216  0.007390  0.045771  0.061486  0.096627  0.043100  0.366532 -0.095870 -0.014779 -0.001912
                                -0.007552 -0.037922 -0.049813 -0.072214 -0.096859 -0.016822 -0.041350  0.038847  0.004872 -0.000914
                                 0.000001 -0.000006  0.000024 -0.000130  0.002397  0.021670 -0.037009 -0.000933  0.034569  0.166244
                                -0.005720 -0.041113  0.058041 -0.025951  0.073390  0.371240 -0.077363  0.038372 -0.036824  0.014555
                                -0.006481  0.001911 -0.000135 -0.000007  0.001084  0.000060 -0.015527 -0.000864 -0.239606 -0.013532
                                -0.351062 -0.020364 -0.357950 -0.020496 -0.210021 -0.012966 -0.056764 -0.002865 -0.029323 -0.000841
                                 0.079323 -0.002315  0.017757 -0.005926 -0.017965  0.001057 -0.000867 -0.001525  0.000256  0.000453
                                -0.000415 -0.000005  0.000518 -0.000007 -0.003783 -0.000041 -0.001934 -0.000201  0.000501 -0.000458
                                 0.010575 -0.000780  0.031463 -0.000880 -0.013312 -0.000541  0.002683 -0.000141 -0.000074 -0.000145
                                -0.000054 -0.001545 -0.000359 -0.000158 -0.002758 -0.000294 -0.000118  0.001035  0.009814  0.023395
                                 0.060691 -0.335014  0.101546 -0.000931 -0.000289  0.014492  0.023580  0.120990  0.000989 -0.009725
                                -0.000143 -0.003483  0.000019

   5.3   0     0.0054   -1.0850  0.000000 -0.000000  0.000000 -0.000001  0.000001 -0.000002  0.000004 -0.000010  0.000042 -0.000390
                                -0.004263 -0.005909 -0.037456 -0.046395 -0.120281 -0.077974  0.127251 -0.188965  1.368291  0.001575
                                 0.006129  0.030182  0.043016  0.054574  0.126941 -3.195027 -2.679315  3.562281  2.615196 -2.097451
                                 0.000000 -0.000000  0.000000 -0.000002  0.000029  0.000269 -0.000489  0.000047  0.001630  0.001864
                                -0.000070 -0.000516  0.000748 -0.000722 -0.000732  0.004599 -0.006048  0.231645 -0.031216  0.031423
                                -0.040640  0.071675 -0.000001 -0.000000  0.000004  0.000002 -0.000057 -0.000033 -0.000802 -0.000507
                                -0.000937 -0.000720 -0.000915 -0.000694 -0.001729 -0.000317 -0.000313 -0.000127 -0.000452 -0.000090
                                 0.002495  0.000412 -0.006654  0.000926  0.062757  0.001771  0.014477  0.001568 -0.009239  0.001254
                                -0.000009 -0.000000  0.000024 -0.000001 -0.000092 -0.000003  0.000220 -0.000004 -0.000873 -0.000006
                                 0.001689  0.000004 -0.003993  0.000010  0.008417  0.000013  0.011065 -0.000022 -0.000003 -0.000000
                                -0.000000  0.000010  0.000000 -0.000003 -0.000055 -0.000002 -0.000017  0.000003  0.000007  0.000362
                                 0.000544 -0.002185 -0.471234  0.000064 -0.000000 -0.000244 -0.001607  0.004296 -0.000019  0.000222
                                 0.000003  0.000124  0.000006

   6.3   0     0.0114   -1.0473  0.000000 -0.000000  0.000000 -0.000000  0.000000 -0.000000  0.000001 -0.000003  0.000012 -0.000109
                                -0.001192 -0.001648 -0.011334 -0.013134 -0.040628 -0.024874 -0.017079 -0.040993 -0.011466  0.000441
                                 0.001711  0.008824  0.013635  0.015384  0.042051 -0.355465 -0.208203  0.355989  0.308614 -0.177595
                                 0.000001 -0.000003  0.000014 -0.000076  0.001413  0.012852 -0.026433  0.010030  0.029074  0.030671
                                -0.003374 -0.024511  0.036830 -0.022157 -0.021026 -0.128407  0.201420 -0.405841  0.489095 -0.671157
                                 1.146879 -1.626110 -0.000000  0.000000  0.000002 -0.000000 -0.000029  0.000000 -0.000655  0.000004
                                -0.001503  0.000005 -0.001417  0.000004  0.003924  0.000002  0.000155  0.000001  0.000723  0.000001
                                -0.009030 -0.000007 -0.005379 -0.000018 -0.006187 -0.000043 -0.010436 -0.000020  0.011317 -0.000058
                                 0.000007  0.000000 -0.000026  0.000000  0.000072  0.000000 -0.000194  0.000001  0.001804  0.000000
                                -0.002127  0.000008 -0.001271  0.000012  0.000138  0.000074 -0.003785  0.000036  0.000007 -0.000000
                                -0.000000 -0.000036 -0.000001 -0.000000  0.000259 -0.000000  0.000000  0.000011  0.000048  0.000961
                                -0.001814  0.044511  0.099096  0.000130 -0.000001  0.000020  0.003192 -0.014983 -0.000003 -0.000344
                                 0.000000 -0.001009  0.000001

                                   1 3d2-    1 3d2-    1 3d2-    1 3d2-    1 3d2-    1 3d2-    1 3d2-    1 3d2-    1 3d2-    1 3d2-
                                   1 3d2-    1 3d2-    1 3d2-    1 3d2-    1 3d2-    1 3d2-    1 3d2-    1 3d2-    1 3d2-    1 3d2-
                                   1 3d2-    1 3d2-    1 4f2-    1 4f2-    1 4f2-    1 4f2-    1 4f2-    1 4f2-    1 4f2-    1 4f2-
                                   1 4f2-    1 4f2-    1 4f2-    1 4f2-    1 4f2-    1 4f2-    1 5g2-    1 5g4-    1 5g2-    1 5g4-
                                   1 5g2-    1 5g4-    1 5g2-    1 5g4-    1 5g2-    1 5g4-    1 5g2-    1 5g4-    1 5g2-    1 5g4-
                                   1 5g2-    1 5g4-    1 5g2-    1 5g4-    1 6h4-    1 6h2-    1 6h4-    1 6h2-    1 6h4-    1 6h2-
                                   2 3d2-    2 3d2-    2 3d2-    2 3d2-    2 4f2-    2 4f2-

   1.4   +    -0.5310  -16.7709 -0.000000  0.000001 -0.000004  0.000023 -0.000419 -0.003751  0.009256 -0.009901  0.007354  0.043104
                                 0.000992  0.006864 -0.010628  0.008955  0.037615  0.004246  0.010695 -0.003320  0.002634 -0.001059
                                 0.000484 -0.000144  0.000140 -0.001132  0.016326  0.255085  0.381192  0.382647  0.223590  0.055635
                                 0.020453 -0.002452  0.053047 -0.030682  0.018545 -0.006657  0.000165 -0.000000  0.000285 -0.000001
                                 0.001267 -0.000003  0.005608 -0.000005  0.004801 -0.000004  0.003696 -0.000003 -0.004529 -0.000001
                                 0.002335  0.000000 -0.000822  0.000000 -0.000007  0.000089 -0.000016  0.000586 -0.000022  0.004436
                                 0.010909  0.014077  0.006259  0.000630 -0.007746  0.005801

   2.4   0     0.0115   -1.0430  0.000001 -0.000004  0.000018 -0.000094  0.001740  0.015833 -0.032744  0.012740  0.037712  0.033711
                                -0.004154 -0.030209  0.045486 -0.027960 -0.031097 -0.096249  0.186002 -0.354657  0.485395 -0.675302
                                 1.162864 -1.636576  0.000000 -0.000001  0.000013  0.000190  0.000268  0.000265  0.000187  0.000050
                                 0.000039  0.000431 -0.000778  0.001933 -0.003835  0.006847  0.000001  0.000000 -0.000004 -0.000000
                                 0.000014  0.000000 -0.000030 -0.000000  0.000054  0.000001  0.000215 -0.000002 -0.000247  0.000004
                                 0.000459 -0.000009 -0.000731  0.000016 -0.000000  0.000001 -0.000000 -0.000002  0.000000  0.000013
                                -0.000021 -0.000323 -0.000366 -0.000005 -0.000037  0.000337

   3.4   0     0.0334   -1.5069  0.000002 -0.000009  0.000039 -0.000207  0.003839  0.034923 -0.071600  0.026669  0.085129  0.086318
                                -0.009164 -0.066626  0.100022 -0.061879 -0.062582 -0.209123  0.434276 -0.815610  1.165152 -1.675749
                                 3.007239 -1.484024 -0.000001  0.000005 -0.000069 -0.001128 -0.001806 -0.001732 -0.000210 -0.000171
                                 0.000085  0.000051  0.003484 -0.006775  0.013968 -0.030954  0.000004 -0.000000 -0.000019  0.000000
                                 0.000043 -0.000001 -0.000110  0.000001  0.000365 -0.000004 -0.000139  0.000007  0.001131 -0.000019
                                -0.001321  0.000038  0.003052 -0.000074  0.000000  0.000000  0.000000 -0.000010 -0.000000  0.000004
                                 0.000270  0.000478 -0.001657  0.000018 -0.000155  0.000667

 HOMO      7.1    -0.129785 =      -3.5316eV
 LUMO      8.1     0.001727 =       0.0470eV
 LUMO-HOMO         0.131512 =       3.5786eV

 No convergence



 **********************************************************************************************************************************
 DATASETS  * FILE   NREC   LENGTH (MB)   RECORD NAMES
              1      20       23.19       500      610      700      900      950      970     1000      129      960     1100
                                          VAR    BASINP    GEOM    SYMINP    ZMAT    AOBASIS   BASIS     P2S    ABASIS      S
                                         1400     1410     1420     1200     1210     1080     1600     1650     1700     1800
                                           T        V       ECP      H0       H01     AOSYM     SMH    MOLCAS    OPER     GRID

              2       6       10.55       700     1000      520     1800     2202     3202
                                         GEOM     BASIS   MCVARS    GRID      RKS      RHF

 PROGRAMS   *        TOTAL       RHF       RKS       INT
 CPU TIMES  *       433.67    200.39     63.66    169.02
 REAL TIME  *       495.75 SEC
 DISK USED  *        21.58 GB
 SF USED    *         0.31 MB
 GA USED    *         0.27 MB       (max)       0.27 MB       (current)
 **********************************************************************************************************************************
   -->
   <time start="22:01:11" end="22:04:48" cpu="200.4" system="16.29" real="216.82"/>
   <storage units="megabyte" memory="8001.84" sf="0.31" df="493.31" eaf="21089.21"
     ga="0.27"/>
  </jobstep><!--
 SETTING SCF            =      -122.84193146  AU
 SETTING _CC_NORM_MAX   =         2.00000000
  --><jobstep command="RCCSD(T)" commandset="CCSD">
   <!--


 PROGRAM * CCSD (Restricted open-shell coupled cluster)     Authors: C. Hampel, H.-J. Werner, 1991, M. Deegan, P.J. Knowles, 1992


 Convergence thresholds:  THRVAR = 1.00D-08  THRDEN = 1.00D-06

 CCSD(T)     terms to be evaluated (factor= 1.000)


 Number of closed-shell orbitals:   8 (   4   2   2   0 )
 Number of active  orbitals:        8 (   3   2   2   1 )
 Number of external orbitals:     499 ( 196 119 119  65 )

 Memory could be reduced to 771.69 Mwords without degradation in triples

 Number of N-1 electron functions:              24
 Number of N-2 electron functions:             276
 Number of singly external CSFs:              3707
 Number of doubly external CSFs:          13243967
 Total number of CSFs:                    13247674

 Molecular orbitals read from record     3202.2  Type=RHF/CANONICAL (state 1.4)

 ?Error: RHF not converged. This error exit can be avoided using the IGNORE_ERROR option on the ORBITAL directive
   --><error/><!--
  --></jobstep><!--
  -->
  <input>
  <!--
 --></job><!--
--></molpro>
