<?xml version="1.0"?>
<molpro xmlns="http://www.molpro.net/schema/molpro-output"
  xmlns:xsd="http://www.w3.org/1999/XMLSchema"
  xmlns:cml="http://www.xml-cml.org/schema"
  xmlns:stm="http://www.xml-cml.org/schema"
  xmlns:xhtml="http://www.w3.org/1999/xhtml">
 <!--

 Nodes     nprocs
 nid13019    11
 Number of processes for MPI-2 version of Molpro:   nprocs(total)=   12   nprocs(compute)=   11   nprocs(helper)=    1

 Using customized tuning parameters: mindgm=7; mindgv=16; mindgc=1; mindgr=1; noblas=0; minvec=7
 default implementation of scratch files=sf

 --><job>
  <!--

 Variables initialized (889), CPU time= 0.01 sec
 Commands  initialized (702), CPU time= 0.02 sec, 572 directives.
 Default parameters read. Elapsed time= 0.11 sec

 Checking input...
 Passed
1


                                         ***  PROGRAM SYSTEM MOLPRO  ***
                                       Copyright, TTI GmbH Stuttgart, 2015
                                    Version 2015.1 linked Dec 29 2018 15:55:43


 **********************************************************************************************************************************
 LABEL *   Calculation for Lu atom, singlet and triplet
  64 bit mpp version                                                                     DATE: 31-Mar-23          TIME: 18:09:38
 **********************************************************************************************************************************

 SHA1:             19cd028119e0e09f93f0674bd8af7968d9b3eff6
 **********************************************************************************************************************************
  -->
  <!--

 THRESHOLDS:

 ZERO    =  1.00D-12  ONEINT  =  1.00D-12  TWOINT  =  1.00D-15  PREFAC  =  1.00D-14  LOCALI  =  1.00D-09  EORDER  =  1.00D-04
 ENERGY  =  0.00D+00  ETEST   =  0.00D+00  EDENS   =  0.00D+00  THRDEDEF=  1.00D-06  GRADIENT=  1.00D-02  STEP    =  1.00D-03
 ORBITAL =  1.00D-05  CIVEC   =  1.00D-05  COEFF   =  1.00D-04  PRINTCI =  5.00D-02  PUNCHCI =  9.90D+01  OPTGRAD =  3.00D-04
 OPTENERG=  1.00D-06  OPTSTEP =  3.00D-04  THRGRAD =  1.00D-10  COMPRESS=  1.00D-11  VARMIN  =  1.00D-07  VARMAX  =  1.00D-03
 THRDOUB =  0.00D+00  THRDIV  =  1.00D-05  THRRED  =  1.00D-07  THRPSP  =  1.00D+00  THRDC   =  1.00D-10  THRCS   =  1.00D-10
 THRNRM  =  1.00D-08  THREQ   =  0.00D+00  THRDE   =  1.00D+00  THRREF  =  1.00D-05  SPARFAC =  1.00D+00  THRDLP  =  1.00D-07
 THRDIA  =  1.00D-10  THRDLS  =  1.00D-07  THRGPS  =  0.00D+00  THRKEX  =  0.00D+00  THRDIS  =  2.00D-01  THRVAR  =  1.00D-10
 THRLOC  =  1.00D-06  THRGAP  =  1.00D-06  THRLOCT = -1.00D+00  THRGAPT = -1.00D+00  THRORB  =  1.00D-06  THRMLTP =  0.00D+00
 THRCPQCI=  1.00D-10  KEXTA   =  0.00D+00  THRCOARS=  0.00D+00  SYMTOL  =  1.00D-06  GRADTOL =  1.00D-06  THROVL  =  1.00D-08
 THRORTH =  1.00D-08  GRID    =  1.00D-06  GRIDMAX =  1.00D-03  DTMAX   =  0.00D+00  THROCCDE=  1.00D-01  THROCCDE=  1.00D-01



 THRESHOLDS:

 ZERO    =  1.00D-12  ONEINT  =  1.00D-15  TWOINT  =  1.00D-15  PREFAC  =  1.00D-14  LOCALI  =  1.00D-09  EORDER  =  1.00D-04
 ENERGY  =  0.00D+00  ETEST   =  0.00D+00  EDENS   =  0.00D+00  THRDEDEF=  1.00D-06  GRADIENT=  1.00D-02  STEP    =  1.00D-03
 ORBITAL =  1.00D-05  CIVEC   =  1.00D-05  COEFF   =  1.00D-04  PRINTCI =  5.00D-02  PUNCHCI =  9.90D+01  OPTGRAD =  3.00D-04
 OPTENERG=  1.00D-06  OPTSTEP =  3.00D-04  THRGRAD =  1.00D-10  COMPRESS=  1.00D-11  VARMIN  =  1.00D-07  VARMAX  =  1.00D-03
 THRDOUB =  0.00D+00  THRDIV  =  1.00D-05  THRRED  =  1.00D-07  THRPSP  =  1.00D+00  THRDC   =  1.00D-10  THRCS   =  1.00D-10
 THRNRM  =  1.00D-08  THREQ   =  0.00D+00  THRDE   =  1.00D+00  THRREF  =  1.00D-05  SPARFAC =  1.00D+00  THRDLP  =  1.00D-07
 THRDIA  =  1.00D-10  THRDLS  =  1.00D-07  THRGPS  =  0.00D+00  THRKEX  =  0.00D+00  THRDIS  =  2.00D-01  THRVAR  =  1.00D-10
 THRLOC  =  1.00D-06  THRGAP  =  1.00D-06  THRLOCT = -1.00D+00  THRGAPT = -1.00D+00  THRORB  =  1.00D-06  THRMLTP =  0.00D+00
 THRCPQCI=  1.00D-10  KEXTA   =  0.00D+00  THRCOARS=  0.00D+00  SYMTOL  =  1.00D-06  GRADTOL =  1.00D-06  THROVL  =  1.00D-08
 THRORTH =  1.00D-08  GRID    =  1.00D-06  GRIDMAX =  1.00D-03  DTMAX   =  0.00D+00  THROCCDE=  1.00D-01  THROCCDE=  1.00D-01



Geometry recognized as XYZ


 Variable memory set to 1000000000 words,  buffer space   230000 words

 SETTING BASIS          =    USERDEF

 DO I                   =        14.00000000

 Running procedure=IXP3
  --><jobstep command="RHF-SCF" commandset="SCFPRO">
   <!--


 Recomputing integrals since basis changed


 Using spherical harmonics



 PROGRAM * SEWARD (Integral evaluation for generally contracted gaussian basis sets)     Author: Roland Lindh, 1990

 Geometry written to block  1 of record 700

 Orientation using atomic masses
 Molecule type: Atom
 Symmetry elements: X,Y,Z
 Rotational constants:       0.0000000      0.0000000      0.0000000 GHz  (calculated with average atomic masses)

 Point group  D2h


   --><cml:molecule>
    <cml:symmetry pointGroup="D2h"/>
    <cml:atomArray>
     <cml:atom id="a1" elementType="Lu" x3="0.0" y3="0.0" z3="0.0"/>
    </cml:atomArray>
    <cml:bondArray>
    </cml:bondArray>
   </cml:molecule><!--

 ATOMIC COORDINATES

 NR  ATOM    CHARGE       X              Y              Z

   1  LU     25.00    0.000000000    0.000000000    0.000000000

 NUCLEAR CHARGE:                   25
 NUMBER OF PRIMITIVE AOS:         581
 NUMBER OF SYMMETRY AOS:          442
 NUMBER OF CONTRACTIONS:          442   ( 103Ag  +  70B3u +  70B2u +  36B1g +  70B1u +  36B2g +  36B3g +  21Au  )
 NUMBER OF CORE ORBITALS:           0   (   0Ag  +   0B3u +   0B2u +   0B1g +   0B1u +   0B2g +   0B3g +   0Au  )
 NUMBER OF VALENCE ORBITALS:       17   (   4Ag  +   3B3u +   3B2u +   1B1g +   3B1u +   1B2g +   1B3g +   1Au  )


 NUCLEAR REPULSION ENERGY    0.00000000

 EXTRA SYMMETRY OF AOS IN SYMMETRY 1:   1 1 1 1 1 1 1 1 1 1   1 1 1 1 1 1 1 1 1 1   1 1 1 1 1 1 1 1 1 1   1 1 1 1 1 1 1 1 2 3
                                        2 3 2 3 2 3 2 3 2 3   2 3 2 3 2 3 2 3 2 3   2 3 2 3 2 3 2 3 2 3   2 3 2 3 2 3 2 3 2 3
                                        2 3 4 5 6 4 5 6 4 5   6 4 5 6 4 5 6 4 5 6   4 5 6
 EXTRA SYMMETRY OF AOS IN SYMMETRY 2:   1 1 1 1 1 1 1 1 1 1   1 1 1 1 1 1 1 1 1 1   1 1 1 1 1 1 1 1 1 1   1 2 3 2 3 2 3 2 3 2
                                        3 2 3 2 3 2 3 2 3 2   3 2 3 2 3 2 3 2 3 2   3 4 5 6 4 5 6 4 5 6
 EXTRA SYMMETRY OF AOS IN SYMMETRY 3:   1 1 1 1 1 1 1 1 1 1   1 1 1 1 1 1 1 1 1 1   1 1 1 1 1 1 1 1 1 1   1 2 3 2 3 2 3 2 3 2
                                        3 2 3 2 3 2 3 2 3 2   3 2 3 2 3 2 3 2 3 2   3 4 5 6 4 5 6 4 5 6
 EXTRA SYMMETRY OF AOS IN SYMMETRY 4:   1 1 1 1 1 1 1 1 1 1   1 1 1 1 1 1 1 1 1 1   1 1 2 3 2 3 2 3 2 3   2 3 2 3 2 3
 EXTRA SYMMETRY OF AOS IN SYMMETRY 5:   1 1 1 1 1 1 1 1 1 1   1 1 1 1 1 1 1 1 1 1   1 1 1 1 1 1 1 1 1 1   1 2 3 2 3 2 3 2 3 2
                                        3 2 3 2 3 2 3 2 3 2   3 2 3 2 3 2 3 2 3 2   3 4 5 6 4 5 6 4 5 6
 EXTRA SYMMETRY OF AOS IN SYMMETRY 6:   1 1 1 1 1 1 1 1 1 1   1 1 1 1 1 1 1 1 1 1   1 1 2 3 2 3 2 3 2 3   2 3 2 3 2 3
 EXTRA SYMMETRY OF AOS IN SYMMETRY 7:   1 1 1 1 1 1 1 1 1 1   1 1 1 1 1 1 1 1 1 1   1 1 2 3 2 3 2 3 2 3   2 3 2 3 2 3
 EXTRA SYMMETRY OF AOS IN SYMMETRY 8:   1 1 1 1 1 1 1 1 1 1   1 1 1 1 1 2 3 2 3 2   3

 Eigenvalues of metric

         1 0.333E-06 0.964E-06 0.340E-05 0.186E-04 0.475E-04 0.703E-04 0.799E-04 0.799E-04
         2 0.960E-06 0.179E-05 0.251E-04 0.110E-03 0.525E-03 0.525E-03 0.534E-03 0.156E-02
         3 0.960E-06 0.179E-05 0.251E-04 0.110E-03 0.525E-03 0.525E-03 0.534E-03 0.156E-02
         4 0.799E-04 0.144E-03 0.223E-02 0.632E-02 0.897E-02 0.238E-01 0.240E-01 0.240E-01
         5 0.960E-06 0.179E-05 0.251E-04 0.110E-03 0.525E-03 0.525E-03 0.534E-03 0.156E-02
         6 0.799E-04 0.144E-03 0.223E-02 0.632E-02 0.897E-02 0.238E-01 0.240E-01 0.240E-01
         7 0.799E-04 0.144E-03 0.223E-02 0.632E-02 0.897E-02 0.238E-01 0.240E-01 0.240E-01
         8 0.525E-03 0.142E-01 0.219E-01 0.528E-01 0.103E+00 0.167E+00 0.268E+00 0.268E+00


 Contracted 2-electron integrals neglected if value below      1.0D-15
 AO integral compression algorithm  1   Integral accuracy      1.0D-15

     3532.128 MB (compressed) written to integral file ( 42.0%)

     Node minimum: 166.461 MB, node maximum: 445.907 MB


 NUMBER OF SORTED TWO-ELECTRON INTEGRALS:   55864608.     BUFFER LENGTH:  32768
 NUMBER OF SEGMENTS:   2  SEGMENT LENGTH:   31978830      RECORD LENGTH: 524288

 Memory used in sort:      32.54 MW

 SORT1 READ  1050599776. AND WROTE    32116883. INTEGRALS IN     93 RECORDS. CPU TIME:    27.22 SEC, REAL TIME:    31.74 SEC
 SORT2 READ   352987961. AND WROTE   613618504. INTEGRALS IN  13442 RECORDS. CPU TIME:     1.19 SEC, REAL TIME:     2.63 SEC

 Node minimum:    55639389.  Node maximum:    55868715. integrals

 OPERATOR DM      FOR CENTER  0  COORDINATES:    0.000000    0.000000    0.000000


 **********************************************************************************************************************************
 DATASETS  * FILE   NREC   LENGTH (MB)   RECORD NAMES
              1      19       21.26       500      610      700      900      950      970     1000      129      960     1100
                                          VAR    BASINP    GEOM    SYMINP    ZMAT    AOBASIS   BASIS     P2S    ABASIS      S
                                         1400     1410     1420     1200     1210     1080     1600     1650     1700
                                           T        V       ECP      H0       H01     AOSYM     SMH    MOLCAS    OPER

 PROGRAMS   *        TOTAL       INT
 CPU TIMES  *       160.08    159.66
 REAL TIME  *       168.38 SEC
 DISK USED  *         7.79 GB
 GA USED    *         0.00 MB       (max)       0.00 MB       (current)
 **********************************************************************************************************************************


 PROGRAM * RHF-SCF (OPEN SHELL)       Authors: W. Meyer, H.-J. Werner


 NUMBER OF ELECTRONS:      11+    8-    SPACE SYMMETRY=8    SPIN SYMMETRY: Quartet
 CONVERGENCE THRESHOLDS:    1.00E-05 (Density)    1.00E-07 (Energy)
 MAX. NUMBER OF ITERATIONS:       60
 INTERPOLATION TYPE:            DIIS
 INTERPOLATION STEPS:              2 (START)      1 (STEP)
 LEVEL SHIFTS:                 -0.60 (CLOSED) -0.30 (OPEN)

 Number of closed-shell orbitals:    8 (   1   2   2   0   2   0   0   1 )
 Number of open-shell orbitals:      3 (   0   1   1   0   1   0   0   0 )



 Extra symmetries of mos in symmetry 2:   3   2   1
 Extra symmetries of mos in symmetry 3:   3   2   1
 Extra symmetries of mos in symmetry 5:   3   2   1
 Guess basis ATOMIC-GUESS,LU=ECP46_GUESS not found. No density guess!


 Molecular orbital dump at record        4202.2

 ITERATION    DDIFF          GRAD             ENERGY        2-EL.EN.            DIPOLE MOMENTS         DIIS   ORB.
    1      0.000D+00      0.000D+00      -148.08553424    318.216149    0.00000    0.00000    0.00000    0    start
    2      0.000D+00      0.281D+00      -153.55056352    148.414007    0.00000    0.00000    0.00000    0    diag,B
    3      0.167D+00      0.188D+00      -163.85948616    274.508515    0.00000    0.00000    0.00000    1    diag,B
    4      0.718D-01      0.170D+00      -170.61119268    233.970640    0.00000    0.00000    0.00000    2    diag,B
    5      0.383D-01      0.302D-01      -170.87215546    226.384669    0.00000    0.00000    0.00000    3    diag,B
    6      0.182D-01      0.368D-02      -170.87851416    225.600016    0.00000    0.00000    0.00000    4    diag,B
    7      0.358D-02      0.806D-03      -170.87888417    225.848752    0.00000    0.00000    0.00000    5    fixocc
    8      0.501D-03      0.809D-04      -170.87888906    225.876895    0.00000    0.00000    0.00000    6    diag,B
    9      0.498D-04      0.446D-05      -170.87888908    225.877972    0.00000    0.00000    0.00000    7    diag,B
   10      0.107D-04      0.383D-06      -170.87888908    225.878015    0.00000    0.00000    0.00000    8    orth
   11      0.112D-05      0.700D-07      -170.87888908    225.877990    0.00000    0.00000    0.00000    0    orth

 Final alpha occupancy:   1   3   3   0   3   0   0   1
 Final beta  occupancy:   1   2   2   0   2   0   0   1

 !RHF STATE 1.8 Energy               -170.878889076366
   --><property name="Energy" method="RHF" principal="true" stateSymmetry="8" stateNumber="1"
     value="-170.878889076366"/><!--
 Nuclear energy                         0.00000000
 One-electron energy                 -283.81788415
 Two-electron energy                  112.93899507
 Virial quotient                       -1.62113862
 !RHF STATE 1.8 Dipole moment           0.00000000     0.00000000     0.00000000
 Dipole moment /Debye                   0.00000000     0.00000000     0.00000000
   --><property name="Dipole moment" method="RHF" principal="true" stateSymmetry="8"
     stateNumber="1" value="0.0 0.0 0.0"/><!--

 ELECTRON ORBITALS
 =================


   Orb  Occ    Energy  Couls-En    Coefficients

                                   1 1s      1 1s      1 1s      1 1s      1 1s      1 1s      1 1s      1 1s      1 1s      1 1s
                                   1 1s      1 1s      1 1s      1 1s      1 1s      1 1s      1 1s      1 1s      1 1s      1 1s
                                   1 1s      1 1s      1 1s      1 1s      1 1s      1 1s      1 1s      1 1s      1 1s      1 1s
                                   1 1s      1 1s      1 1s      1 1s      1 1s      1 1s      1 1s      1 1s      1 3d0     1 3d2+
                                   1 3d0     1 3d2+    1 3d0     1 3d2+    1 3d0     1 3d2+    1 3d0     1 3d2+    1 3d0     1 3d2+
                                   1 3d0     1 3d2+    1 3d0     1 3d2+    1 3d0     1 3d2+    1 3d0     1 3d2+    1 3d0     1 3d2+
                                   1 3d0     1 3d2+    1 3d0     1 3d2+    1 3d0     1 3d2+    1 3d0     1 3d2+    1 3d0     1 3d2+
                                   1 3d0     1 3d2+    1 3d0     1 3d2+    1 3d0     1 3d2+    1 3d0     1 3d2+    1 3d0     1 3d2+
                                   1 3d0     1 3d2+    1 5g0     1 5g4+    1 5g2+    1 5g0     1 5g4+    1 5g2+    1 5g0     1 5g4+
                                   1 5g2+    1 5g0     1 5g4+    1 5g2+    1 5g0     1 5g4+    1 5g2+    1 5g0     1 5g4+    1 5g2+
                                   1 5g0     1 5g4+    1 5g2+

   1.1   2    -4.9589  -21.4688  0.000000 -0.000000  0.000000 -0.000000  0.000000 -0.000000  0.000000 -0.000000  0.000000 -0.000000
                                 0.000000 -0.000001  0.000003 -0.000009  0.000040  0.000047  0.000080 -0.000453  0.002168 -0.000083
                                -0.013735  0.158468 -0.242773  0.058082  0.474831 -0.897446 -0.450810  1.288595  0.367268  0.022823
                                -0.033507  0.056382 -0.086972  0.065703 -0.026002  0.010022 -0.002582  0.000459 -0.000000 -0.000000
                                 0.000000  0.000000 -0.000000 -0.000000  0.000000  0.000000 -0.000000 -0.000000  0.000000  0.000000
                                -0.000000 -0.000000  0.000000  0.000000 -0.000000 -0.000000  0.000000  0.000000 -0.000000 -0.000000
                                 0.000000  0.000000  0.000000  0.000000 -0.000000 -0.000000  0.000000  0.000000 -0.000000 -0.000000
                                 0.000000  0.000000 -0.000000 -0.000000  0.000000  0.000000 -0.000000 -0.000000  0.000000  0.000000
                                -0.000000 -0.000000 -0.000000 -0.000000 -0.000000 -0.000000  0.000000  0.000000 -0.000000  0.000000
                                 0.000000 -0.000000  0.000000  0.000000  0.000000 -0.000000 -0.000000 -0.000000  0.000000  0.000000
                                 0.000000 -0.000000 -0.000000

   2.1   0    -2.5208  -15.4083 -0.000000  0.000000 -0.000000  0.000000 -0.000000  0.000000 -0.000000  0.000000 -0.000000  0.000000
                                -0.000000  0.000000 -0.000000  0.000000 -0.000000 -0.000000  0.000000 -0.000000  0.000000  0.000000
                                -0.000000  0.000000 -0.000000  0.000000 -0.000000  0.000000 -0.000000  0.000000 -0.000000  0.000000
                                -0.000000  0.000000 -0.000000  0.000000 -0.000000  0.000000 -0.000000 -0.000000  0.000000  0.000000
                                -0.000002 -0.000000  0.000009  0.000002 -0.000040 -0.000007  0.000143  0.000025 -0.000451 -0.000078
                                 0.001345  0.000234 -0.004235 -0.000735  0.020848  0.003619 -0.051082 -0.008867  0.048123  0.008354
                                -0.041855 -0.007266  0.175532  0.030470 -0.588610 -0.102176 -0.585035 -0.101555  0.060717  0.010540
                                -0.315523 -0.054771  0.463689  0.080491 -0.235585 -0.040895  0.047753  0.008289 -0.017275 -0.002999
                                 0.004597  0.000798  0.000000 -0.000000  0.000000 -0.000000  0.000000 -0.000000  0.000000 -0.000000
                                 0.000000  0.000000 -0.000000  0.000000 -0.000000  0.000000 -0.000000  0.000000 -0.000000  0.000000
                                -0.000000  0.000000 -0.000000

   3.1   0    -2.5208  -15.4083  0.000000 -0.000000  0.000000 -0.000000  0.000000 -0.000000  0.000000 -0.000000  0.000000 -0.000000
                                 0.000000 -0.000000  0.000000 -0.000000  0.000000  0.000000 -0.000000  0.000000 -0.000000 -0.000000
                                 0.000000 -0.000000  0.000000 -0.000000  0.000000 -0.000000 -0.000000  0.000000  0.000000 -0.000000
                                 0.000000 -0.000000  0.000000 -0.000000  0.000000 -0.000000  0.000000 -0.000000  0.000000 -0.000000
                                -0.000000  0.000002  0.000002 -0.000009 -0.000007  0.000040  0.000025 -0.000143 -0.000078  0.000451
                                 0.000234 -0.001345 -0.000735  0.004235  0.003619 -0.020848 -0.008867  0.051082  0.008354 -0.048123
                                -0.007266  0.041855  0.030470 -0.175532 -0.102176  0.588610 -0.101555  0.585035  0.010540 -0.060717
                                -0.054771  0.315523  0.080491 -0.463689 -0.040895  0.235585  0.008289 -0.047753 -0.002999  0.017275
                                 0.000798 -0.004597 -0.000000 -0.000000 -0.000000  0.000000 -0.000000  0.000000  0.000000 -0.000000
                                 0.000000 -0.000000 -0.000000  0.000000  0.000000  0.000000 -0.000000 -0.000000 -0.000000  0.000000
                                 0.000000  0.000000 -0.000000

                                   1 2px     1 2px     1 2px     1 2px     1 2px     1 2px     1 2px     1 2px     1 2px     1 2px
                                   1 2px     1 2px     1 2px     1 2px     1 2px     1 2px     1 2px     1 2px     1 2px     1 2px
                                   1 2px     1 2px     1 2px     1 2px     1 2px     1 2px     1 2px     1 2px     1 2px     1 2px
                                   1 2px     1 4f1+    1 4f3+    1 4f1+    1 4f3+    1 4f1+    1 4f3+    1 4f1+    1 4f3+    1 4f1+
                                   1 4f3+    1 4f1+    1 4f3+    1 4f1+    1 4f3+    1 4f1+    1 4f3+    1 4f1+    1 4f3+    1 4f1+
                                   1 4f3+    1 4f1+    1 4f3+    1 4f1+    1 4f3+    1 4f1+    1 4f3+    1 4f1+    1 4f3+    1 4f1+
                                   1 4f3+    1 6h1+    1 6h3+    1 6h5+    1 6h1+    1 6h3+    1 6h5+    1 6h1+    1 6h3+    1 6h5+


   1.2   2    -2.5328  -17.2003 -0.000000  0.000000 -0.000000  0.000000 -0.000000  0.000000 -0.000000  0.000000 -0.000000  0.000000
                                -0.000000  0.000000 -0.000000  0.000000 -0.000000  0.000000 -0.000000  0.000000 -0.000000  0.000000
                                -0.000000  0.000000 -0.000000  0.000000 -0.000000 -0.000000  0.000000  0.000000 -0.000000  0.000000
                                -0.000000 -0.000004  0.000014  0.000027 -0.000093 -0.000132  0.000452  0.000640 -0.002193 -0.006592
                                 0.022589  0.010532 -0.036094 -0.036479  0.125015 -0.058543  0.200625 -0.102643  0.351755 -0.125442
                                 0.429888 -0.043367  0.148619  0.002088 -0.007157 -0.002350  0.008053  0.001205 -0.004131 -0.000394
                                 0.001350 -0.000000  0.000000  0.000000  0.000000 -0.000000 -0.000000 -0.000000  0.000000  0.000000

   2.2   2    -2.5328  -17.2003  0.000000 -0.000000  0.000000  0.000000 -0.000000  0.000000 -0.000000  0.000000 -0.000000  0.000000
                                -0.000000  0.000000 -0.000000  0.000000 -0.000000  0.000000 -0.000000  0.000000 -0.000000  0.000000
                                 0.000000 -0.000000 -0.000000 -0.000000 -0.000000 -0.000000  0.000000  0.000000 -0.000000  0.000000
                                -0.000000  0.000014  0.000004 -0.000093 -0.000027  0.000452  0.000132 -0.002193 -0.000640  0.022589
                                 0.006592 -0.036094 -0.010532  0.125015  0.036479  0.200625  0.058543  0.351755  0.102643  0.429888
                                 0.125442  0.148619  0.043367 -0.007157 -0.002088  0.008053  0.002350 -0.004131 -0.001205  0.001350
                                 0.000394 -0.000000 -0.000000  0.000000 -0.000000 -0.000000 -0.000000  0.000000 -0.000000  0.000000

   3.2   +    -4.1874  -19.3385  0.000000 -0.000000  0.000000 -0.000000  0.000000 -0.000000  0.000001 -0.000004  0.000014 -0.000044
                                 0.000127 -0.000355  0.000980 -0.002979  0.010986 -0.091188  0.222149 -0.417926  0.709156 -0.671358
                                -0.076162  0.827941  0.058585  0.331412 -0.176771 -0.004415  0.007315  0.175465 -0.004011  0.001712
                                -0.000377 -0.000000 -0.000000  0.000000  0.000000 -0.000000 -0.000000  0.000000  0.000000 -0.000000
                                -0.000000  0.000000  0.000000  0.000000  0.000000  0.000000  0.000000  0.000000  0.000000  0.000000
                                 0.000000  0.000000  0.000000 -0.000000 -0.000000  0.000000  0.000000 -0.000000 -0.000000  0.000000
                                 0.000000  0.000000 -0.000000 -0.000000  0.000000 -0.000000 -0.000000 -0.000000 -0.000000 -0.000000

   4.2   0    -1.4743   -9.7370 -0.000000  0.000000 -0.000000  0.000000 -0.000000  0.000000 -0.000001  0.000003 -0.000010  0.000030
                                -0.000089  0.000248 -0.000686  0.002087 -0.007711  0.064241 -0.156432  0.287915 -0.473549  0.456635
                                -0.029894 -0.480678 -0.344222  0.013302 -1.375026  1.058552  0.190200  1.348168 -0.023086  0.009006
                                -0.001884  0.000000  0.000000 -0.000000 -0.000000  0.000000  0.000000 -0.000000 -0.000000  0.000000
                                 0.000000 -0.000000 -0.000000  0.000000  0.000000  0.000000  0.000000  0.000000  0.000000  0.000000
                                 0.000000 -0.000000 -0.000000 -0.000000 -0.000000  0.000000  0.000000 -0.000000 -0.000000  0.000000
                                 0.000000 -0.000000  0.000000  0.000000 -0.000000  0.000000  0.000000  0.000000 -0.000000 -0.000000

   5.2   0    -0.9997   -8.0769  0.000000 -0.000000  0.000000 -0.000000  0.000000  0.000000  0.000000 -0.000000 -0.000000  0.000000
                                -0.000000 -0.000000  0.000000 -0.000000  0.000000 -0.000000  0.000000 -0.000000  0.000000 -0.000000
                                 0.000000  0.000000  0.000000 -0.000000 -0.000000 -0.000000  0.000000  0.000000 -0.000000  0.000000
                                -0.000000  0.000000 -0.000001 -0.000002  0.000007  0.000011 -0.000039 -0.000066  0.000226  0.001121
                                -0.003835 -0.001292  0.004419  0.013582 -0.046459  0.028379 -0.097074  0.041992 -0.143639  0.040384
                                -0.138140 -0.114547  0.391822 -0.224281  0.767183  0.041044 -0.140397 -0.028741  0.098313  0.009054
                                -0.030969  0.000000  0.000000  0.000000 -0.000000  0.000000 -0.000000  0.000000 -0.000000 -0.000000

                                   1 2py     1 2py     1 2py     1 2py     1 2py     1 2py     1 2py     1 2py     1 2py     1 2py
                                   1 2py     1 2py     1 2py     1 2py     1 2py     1 2py     1 2py     1 2py     1 2py     1 2py
                                   1 2py     1 2py     1 2py     1 2py     1 2py     1 2py     1 2py     1 2py     1 2py     1 2py
                                   1 2py     1 4f1-    1 4f3-    1 4f1-    1 4f3-    1 4f1-    1 4f3-    1 4f1-    1 4f3-    1 4f1-
                                   1 4f3-    1 4f1-    1 4f3-    1 4f1-    1 4f3-    1 4f1-    1 4f3-    1 4f1-    1 4f3-    1 4f1-
                                   1 4f3-    1 4f1-    1 4f3-    1 4f1-    1 4f3-    1 4f1-    1 4f3-    1 4f1-    1 4f3-    1 4f1-
                                   1 4f3-    1 6h1-    1 6h3-    1 6h5-    1 6h1-    1 6h3-    1 6h5-    1 6h1-    1 6h3-    1 6h5-


   1.3   2    -2.5328  -17.2003  0.000000 -0.000000  0.000000 -0.000000  0.000000 -0.000000  0.000000 -0.000000  0.000000 -0.000000
                                 0.000000 -0.000000  0.000000 -0.000000  0.000000 -0.000000  0.000000 -0.000000  0.000000 -0.000000
                                 0.000000 -0.000000  0.000000 -0.000000  0.000000  0.000000 -0.000000 -0.000000  0.000000 -0.000000
                                 0.000000  0.000007  0.000013 -0.000045 -0.000086  0.000217  0.000418 -0.001051 -0.002028  0.010829
                                 0.020891 -0.017304 -0.033381  0.059932  0.115618  0.096180  0.185546  0.168631  0.325316  0.206089
                                 0.397576  0.071248  0.137449 -0.003431 -0.006619  0.003861  0.007448 -0.001981 -0.003821  0.000647
                                 0.001249  0.000000  0.000000  0.000000 -0.000000 -0.000000 -0.000000  0.000000  0.000000  0.000000

   2.3   2    -2.5328  -17.2003 -0.000000  0.000000 -0.000000  0.000000 -0.000000  0.000000 -0.000000  0.000000 -0.000000  0.000000
                                -0.000000  0.000000 -0.000000  0.000000 -0.000000  0.000000 -0.000000  0.000000 -0.000000  0.000000
                                 0.000000 -0.000000 -0.000000 -0.000000 -0.000000  0.000000  0.000000  0.000000 -0.000000  0.000000
                                -0.000000  0.000013 -0.000007 -0.000086  0.000045  0.000418 -0.000217 -0.002028  0.001051  0.020891
                                -0.010829 -0.033381  0.017304  0.115618 -0.059932  0.185546 -0.096180  0.325316 -0.168631  0.397576
                                -0.206089  0.137449 -0.071248 -0.006619  0.003431  0.007448 -0.003861 -0.003821  0.001981  0.001249
                                -0.000647 -0.000000  0.000000  0.000000 -0.000000  0.000000  0.000000 -0.000000  0.000000  0.000000

   3.3   +    -4.1874  -19.3385  0.000000 -0.000000  0.000000 -0.000000  0.000000 -0.000000  0.000001 -0.000004  0.000014 -0.000044
                                 0.000127 -0.000355  0.000980 -0.002979  0.010986 -0.091188  0.222149 -0.417926  0.709156 -0.671358
                                -0.076162  0.827941  0.058585  0.331412 -0.176771 -0.004415  0.007315  0.175465 -0.004011  0.001712
                                -0.000377 -0.000000 -0.000000  0.000000  0.000000 -0.000000 -0.000000  0.000000  0.000000 -0.000000
                                -0.000000  0.000000  0.000000 -0.000000 -0.000000  0.000000 -0.000000 -0.000000 -0.000000 -0.000000
                                -0.000000  0.000000 -0.000000 -0.000000  0.000000 -0.000000 -0.000000 -0.000000  0.000000  0.000000
                                -0.000000  0.000000 -0.000000 -0.000000  0.000000 -0.000000 -0.000000  0.000000  0.000000 -0.000000

   4.3   0    -1.4743   -9.7370 -0.000000  0.000000 -0.000000  0.000000 -0.000000  0.000000 -0.000001  0.000003 -0.000010  0.000030
                                -0.000089  0.000248 -0.000686  0.002087 -0.007711  0.064241 -0.156432  0.287915 -0.473549  0.456635
                                -0.029894 -0.480678 -0.344222  0.013302 -1.375026  1.058552  0.190200  1.348168 -0.023086  0.009006
                                -0.001884  0.000000 -0.000000 -0.000000  0.000000 -0.000000 -0.000000 -0.000000  0.000000  0.000000
                                -0.000000 -0.000000  0.000000  0.000000 -0.000000 -0.000000  0.000000  0.000000 -0.000000 -0.000000
                                 0.000000 -0.000000  0.000000  0.000000 -0.000000  0.000000  0.000000  0.000000 -0.000000  0.000000
                                -0.000000 -0.000000  0.000000  0.000000 -0.000000  0.000000  0.000000  0.000000 -0.000000 -0.000000

   5.3   0    -0.9997   -8.0769 -0.000000  0.000000 -0.000000  0.000000 -0.000000  0.000000 -0.000000 -0.000000  0.000000 -0.000000
                                 0.000000 -0.000000  0.000000 -0.000000  0.000000 -0.000000  0.000000 -0.000000  0.000000  0.000000
                                -0.000000 -0.000000  0.000000 -0.000000 -0.000000  0.000000  0.000000  0.000000 -0.000000  0.000000
                                -0.000000 -0.000001 -0.000001  0.000004  0.000007 -0.000019 -0.000036  0.000108  0.000209 -0.001839
                                -0.003547  0.002120  0.004087 -0.022285 -0.042968 -0.046565 -0.089780 -0.068901 -0.132846 -0.066263
                                -0.127760  0.187950  0.362382  0.368004  0.709538 -0.067346 -0.129848  0.047159  0.090926 -0.014855
                                -0.028642  0.000000  0.000000 -0.000000  0.000000  0.000000  0.000000 -0.000000 -0.000000 -0.000000

                                   1 3d2-    1 3d2-    1 3d2-    1 3d2-    1 3d2-    1 3d2-    1 3d2-    1 3d2-    1 3d2-    1 3d2-
                                   1 3d2-    1 3d2-    1 3d2-    1 3d2-    1 3d2-    1 3d2-    1 3d2-    1 3d2-    1 3d2-    1 3d2-
                                   1 3d2-    1 3d2-    1 5g2-    1 5g4-    1 5g2-    1 5g4-    1 5g2-    1 5g4-    1 5g2-    1 5g4-
                                   1 5g2-    1 5g4-    1 5g2-    1 5g4-    1 5g2-    1 5g4-

   1.4   0    -2.5208  -15.4083 -0.000000  0.000002 -0.000010  0.000041 -0.000145  0.000457 -0.001365  0.004298 -0.021160  0.051845
                                -0.048843  0.042481 -0.178157  0.597413  0.593784 -0.061625  0.320241 -0.470623  0.239108 -0.048467
                                 0.017534 -0.004666 -0.000000 -0.000000  0.000000  0.000000 -0.000000 -0.000000 -0.000000 -0.000000
                                 0.000000  0.000000 -0.000000 -0.000000  0.000000  0.000000

   2.4   0    -1.1275   -7.9610  0.000000 -0.000001  0.000007 -0.000030  0.000107 -0.000338  0.001007 -0.003160  0.015411 -0.037272
                                 0.034356 -0.026148  0.101547 -0.388760 -0.264386  1.092282 -0.462161  0.958581 -0.515200  0.107915
                                -0.039221  0.010416  0.000000  0.000000 -0.000000 -0.000000  0.000000  0.000000 -0.000000 -0.000000
                                -0.000000 -0.000000 -0.000000 -0.000000 -0.000000  0.000000

                                   1 2pz     1 2pz     1 2pz     1 2pz     1 2pz     1 2pz     1 2pz     1 2pz     1 2pz     1 2pz
                                   1 2pz     1 2pz     1 2pz     1 2pz     1 2pz     1 2pz     1 2pz     1 2pz     1 2pz     1 2pz
                                   1 2pz     1 2pz     1 2pz     1 2pz     1 2pz     1 2pz     1 2pz     1 2pz     1 2pz     1 2pz
                                   1 2pz     1 4f0     1 4f2+    1 4f0     1 4f2+    1 4f0     1 4f2+    1 4f0     1 4f2+    1 4f0
                                   1 4f2+    1 4f0     1 4f2+    1 4f0     1 4f2+    1 4f0     1 4f2+    1 4f0     1 4f2+    1 4f0
                                   1 4f2+    1 4f0     1 4f2+    1 4f0     1 4f2+    1 4f0     1 4f2+    1 4f0     1 4f2+    1 4f0
                                   1 4f2+    1 6h2+    1 6h4+    1 6h0     1 6h2+    1 6h4+    1 6h0     1 6h2+    1 6h4+    1 6h0


   1.5   2    -2.5328  -17.2003  0.000000 -0.000000  0.000000 -0.000000  0.000000 -0.000000  0.000000 -0.000000  0.000000 -0.000000
                                 0.000000 -0.000000  0.000000 -0.000000  0.000000 -0.000000  0.000000 -0.000000  0.000000 -0.000000
                                -0.000000  0.000000  0.000000  0.000000 -0.000000 -0.000000  0.000000  0.000000 -0.000000  0.000000
                                -0.000000  0.000000  0.000014 -0.000003 -0.000097  0.000016  0.000471 -0.000079 -0.002283  0.000812
                                 0.023517 -0.001297 -0.037577  0.004493  0.130151  0.007210  0.208868  0.012641  0.366206  0.015449
                                 0.447550  0.005341  0.154725 -0.000257 -0.007451  0.000289  0.008384 -0.000148 -0.004301  0.000049
                                 0.001406 -0.000000 -0.000000 -0.000000 -0.000000 -0.000000 -0.000000 -0.000000 -0.000000 -0.000000

   2.5   2    -2.5328  -17.2003 -0.000000 -0.000000  0.000000 -0.000000  0.000000 -0.000000  0.000000 -0.000000  0.000000 -0.000000
                                 0.000000 -0.000000  0.000000 -0.000000  0.000000 -0.000000  0.000000 -0.000000  0.000000 -0.000000
                                -0.000000  0.000000  0.000000  0.000000  0.000000 -0.000000 -0.000000 -0.000000  0.000000 -0.000000
                                 0.000000  0.000014 -0.000000 -0.000097  0.000003  0.000471 -0.000016 -0.002283  0.000079  0.023517
                                -0.000812 -0.037577  0.001297  0.130151 -0.004493  0.208868 -0.007210  0.366206 -0.012641  0.447550
                                -0.015449  0.154725 -0.005341 -0.007451  0.000257  0.008384 -0.000289 -0.004301  0.000148  0.001406
                                -0.000049 -0.000000  0.000000 -0.000000 -0.000000  0.000000 -0.000000  0.000000 -0.000000 -0.000000

   3.5   +    -4.1874  -19.3385  0.000000 -0.000000  0.000000 -0.000000  0.000000 -0.000000  0.000001 -0.000004  0.000014 -0.000044
                                 0.000127 -0.000355  0.000980 -0.002979  0.010986 -0.091188  0.222149 -0.417926  0.709156 -0.671358
                                -0.076162  0.827941  0.058585  0.331412 -0.176771 -0.004415  0.007315  0.175465 -0.004011  0.001712
                                -0.000377 -0.000000 -0.000000  0.000000  0.000000 -0.000000 -0.000000  0.000000  0.000000 -0.000000
                                -0.000000  0.000000  0.000000 -0.000000 -0.000000 -0.000000 -0.000000 -0.000000 -0.000000 -0.000000
                                -0.000000 -0.000000 -0.000000  0.000000  0.000000  0.000000 -0.000000 -0.000000  0.000000  0.000000
                                -0.000000 -0.000000 -0.000000  0.000000 -0.000000 -0.000000  0.000000  0.000000 -0.000000 -0.000000

   4.5   0    -1.4743   -9.7370 -0.000000  0.000000 -0.000000  0.000000 -0.000000  0.000000 -0.000001  0.000003 -0.000010  0.000030
                                -0.000089  0.000248 -0.000686  0.002087 -0.007711  0.064241 -0.156432  0.287915 -0.473549  0.456635
                                -0.029894 -0.480678 -0.344222  0.013302 -1.375026  1.058552  0.190200  1.348168 -0.023086  0.009006
                                -0.001884  0.000000  0.000000 -0.000000 -0.000000  0.000000  0.000000 -0.000000 -0.000000  0.000000
                                 0.000000 -0.000000 -0.000000  0.000000  0.000000  0.000000  0.000000  0.000000  0.000000  0.000000
                                -0.000000 -0.000000 -0.000000 -0.000000 -0.000000  0.000000  0.000000 -0.000000  0.000000  0.000000
                                -0.000000  0.000000  0.000000 -0.000000  0.000000  0.000000 -0.000000 -0.000000 -0.000000  0.000000

   5.5   0    -0.9997   -8.0769  0.000000 -0.000000  0.000000 -0.000000  0.000000 -0.000000  0.000000 -0.000000  0.000000 -0.000000
                                 0.000000 -0.000000  0.000000 -0.000000  0.000000 -0.000000  0.000000 -0.000000  0.000000 -0.000000
                                 0.000000 -0.000000  0.000000 -0.000000 -0.000000 -0.000000  0.000000  0.000000 -0.000000  0.000000
                                -0.000000 -0.000001  0.000000  0.000008 -0.000000 -0.000041  0.000001  0.000235 -0.000008 -0.003993
                                 0.000137  0.004601 -0.000158 -0.048375  0.001665 -0.101077  0.003479 -0.149563  0.005147 -0.143837
                                 0.004950  0.407981 -0.014041  0.798821 -0.027493 -0.146187  0.005031  0.102367 -0.003523 -0.032246
                                 0.001110  0.000000 -0.000000  0.000000  0.000000 -0.000000  0.000000 -0.000000  0.000000 -0.000000

                                   1 3d1+    1 3d1+    1 3d1+    1 3d1+    1 3d1+    1 3d1+    1 3d1+    1 3d1+    1 3d1+    1 3d1+
                                   1 3d1+    1 3d1+    1 3d1+    1 3d1+    1 3d1+    1 3d1+    1 3d1+    1 3d1+    1 3d1+    1 3d1+
                                   1 3d1+    1 3d1+    1 5g1+    1 5g3+    1 5g1+    1 5g3+    1 5g1+    1 5g3+    1 5g1+    1 5g3+
                                   1 5g1+    1 5g3+    1 5g1+    1 5g3+    1 5g1+    1 5g3+

   1.6   0    -2.5208  -15.4083 -0.000000  0.000002 -0.000010  0.000041 -0.000145  0.000457 -0.001365  0.004298 -0.021160  0.051845
                                -0.048843  0.042481 -0.178157  0.597413  0.593784 -0.061625  0.320241 -0.470623  0.239108 -0.048467
                                 0.017534 -0.004666 -0.000000 -0.000000  0.000000  0.000000 -0.000000 -0.000000 -0.000000 -0.000000
                                 0.000000  0.000000 -0.000000 -0.000000  0.000000  0.000000

   2.6   0    -1.1275   -7.9610  0.000000 -0.000001  0.000007 -0.000030  0.000107 -0.000338  0.001007 -0.003160  0.015411 -0.037272
                                 0.034356 -0.026148  0.101547 -0.388760 -0.264386  1.092282 -0.462161  0.958581 -0.515200  0.107915
                                -0.039221  0.010416  0.000000  0.000000 -0.000000 -0.000000  0.000000  0.000000 -0.000000 -0.000000
                                -0.000000 -0.000000 -0.000000  0.000000 -0.000000 -0.000000

                                   1 3d1-    1 3d1-    1 3d1-    1 3d1-    1 3d1-    1 3d1-    1 3d1-    1 3d1-    1 3d1-    1 3d1-
                                   1 3d1-    1 3d1-    1 3d1-    1 3d1-    1 3d1-    1 3d1-    1 3d1-    1 3d1-    1 3d1-    1 3d1-
                                   1 3d1-    1 3d1-    1 5g1-    1 5g3-    1 5g1-    1 5g3-    1 5g1-    1 5g3-    1 5g1-    1 5g3-
                                   1 5g1-    1 5g3-    1 5g1-    1 5g3-    1 5g1-    1 5g3-

   1.7   0    -2.5208  -15.4083 -0.000000  0.000002 -0.000010  0.000041 -0.000145  0.000457 -0.001365  0.004298 -0.021160  0.051845
                                -0.048843  0.042481 -0.178157  0.597413  0.593784 -0.061625  0.320241 -0.470623  0.239108 -0.048467
                                 0.017534 -0.004666 -0.000000  0.000000  0.000000 -0.000000 -0.000000  0.000000 -0.000000  0.000000
                                 0.000000 -0.000000 -0.000000  0.000000  0.000000 -0.000000

   2.7   0    -1.1275   -7.9610  0.000000 -0.000001  0.000007 -0.000030  0.000107 -0.000338  0.001007 -0.003160  0.015411 -0.037272
                                 0.034356 -0.026148  0.101547 -0.388760 -0.264386  1.092282 -0.462161  0.958581 -0.515200  0.107915
                                -0.039221  0.010416  0.000000 -0.000000 -0.000000  0.000000  0.000000 -0.000000 -0.000000 -0.000000
                                -0.000000  0.000000 -0.000000 -0.000000 -0.000000  0.000000

                                   1 4f2-    1 4f2-    1 4f2-    1 4f2-    1 4f2-    1 4f2-    1 4f2-    1 4f2-    1 4f2-    1 4f2-
                                   1 4f2-    1 4f2-    1 4f2-    1 4f2-    1 4f2-    1 6h4-    1 6h2-    1 6h4-    1 6h2-    1 6h4-
                                   1 6h2-

   1.8   2    -2.5328  -17.2003  0.000014 -0.000097  0.000471 -0.002284  0.023531 -0.037599  0.130228  0.208992  0.366425  0.447816
                                 0.154817 -0.007456  0.008389 -0.004304  0.001407 -0.000000 -0.000000 -0.000000 -0.000000 -0.000000
                                -0.000000

   2.8   0    -0.9997   -8.0769 -0.000001  0.000008 -0.000041  0.000235 -0.003995  0.004604 -0.048403 -0.101137 -0.149651 -0.143922
                                 0.408223  0.799294 -0.146273  0.102428 -0.032266  0.000000  0.000000  0.000000  0.000000 -0.000000
                                -0.000000

   3.8   0    -0.6489   -5.2811  0.000000 -0.000001  0.000007 -0.000070  0.002140 -0.001761  0.035808  0.078933  0.112395  0.092468
                                -0.456148 -0.510142  1.165446  0.118588  0.019168 -0.000000 -0.000000 -0.000000 -0.000000  0.000000
                                 0.000000

 HOMO      1.8    -2.532837 =     -68.9220eV
 LUMO      1.4    -2.520841 =     -68.5956eV
 LUMO-HOMO         0.011996 =       0.3264eV


 **********************************************************************************************************************************
 DATASETS  * FILE   NREC   LENGTH (MB)   RECORD NAMES
              1      19       21.31       500      610      700      900      950      970     1000      129      960     1100
                                          VAR    BASINP    GEOM    SYMINP    ZMAT    AOBASIS   BASIS     P2S    ABASIS      S
                                         1400     1410     1420     1200     1210     1080     1600     1650     1700
                                           T        V       ECP      H0       H01     AOSYM     SMH    MOLCAS    OPER

              2       5        6.25       200      700     1000      520     4202
                                        OPTIONS   GEOM     BASIS   MCVARS     RHF

 PROGRAMS   *        TOTAL       RHF       INT
 CPU TIMES  *       162.36      2.27    159.66
 REAL TIME  *       171.10 SEC
 DISK USED  *         8.14 GB
 SF USED    *         0.12 MB
 GA USED    *         0.00 MB       (max)       0.00 MB       (current)
 **********************************************************************************************************************************
   -->
   <time start="18:09:38" end="18:12:28" cpu="162.36" system="7.04" real="171.1"/>
   <storage units="megabyte" memory="8001.84" sf="0.12" df="349.4" eaf="7790.03" ga="0.0"/>
  </jobstep><!--
  --><jobstep command="POP" commandset="POP">
   <!--


 PROGRAM * POP (Mulliken population analysis)


 Density matrix read from record         4202.2  Type=RHF/CHARGE (state 1.8)

 Population analysis by basis function type

 Unique atom        s        p        d        f        g    Total    Charge
   1  LU      2.00000  3.00000  0.00000 14.00000  0.00000 19.00000  + 6.00000


 **********************************************************************************************************************************
 DATASETS  * FILE   NREC   LENGTH (MB)   RECORD NAMES
              1      19       21.31       500      610      700      900      950      970     1000      129      960     1100
                                          VAR    BASINP    GEOM    SYMINP    ZMAT    AOBASIS   BASIS     P2S    ABASIS      S
                                         1400     1410     1420     1200     1210     1080     1600     1650     1700
                                           T        V       ECP      H0       H01     AOSYM     SMH    MOLCAS    OPER

              2       5        6.25       200      700     1000      520     4202
                                        OPTIONS   GEOM     BASIS   MCVARS     RHF

 PROGRAMS   *        TOTAL       POP       RHF       INT
 CPU TIMES  *       162.38      0.01      2.27    159.66
 REAL TIME  *       171.11 SEC
 DISK USED  *         8.14 GB
 SF USED    *         0.12 MB
 GA USED    *         0.00 MB       (max)       0.00 MB       (current)
 **********************************************************************************************************************************
   -->
   <time start="18:12:28" end="18:12:28" cpu="0.02" system="0.0" real="0.01"/>
   <storage units="megabyte" memory="8001.84" sf="0.12" df="349.4" eaf="7790.03" ga="0.0"/>
  </jobstep><!--
  --><jobstep command="MULTI" commandset="MULTI">
   <!--


 PROGRAM * MULTI (Direct Multiconfiguration SCF)       Authors: P.J. Knowles, H.-J. Werner (1984)     S.T. Elbert (1988)


 Number of closed-shell orbitals:   8 (   1   2   2   0   2   0   0   1 )
 Number of active  orbitals:        3 (   0   1   1   0   1   0   0   0 )
 Number of external orbitals:     431 ( 102  67  67  36  67  36  36  20 )

 State symmetry 1

 Number of electrons:     3    Spin symmetry=Quartet   Space symmetry=8
 Number of states:        1
 Number of CSFs:          1   (1 determinants, 1 intermediate states)

 Molecular orbitals read from record     4202.2  Type=RHF/CANONICAL (state 1.8)

 EXTRA SYMMETRY OF MOS IN SYMMETRY 1:   1 2 3 1 3 2 1 4 5 6   3 2 1 5 6 4 3 2 1 3   2 1 5 6 4 3 2 1 3 2   1 1 3 2 1 5 6 4 3 2
                                        1 5 4 6 1 3 2 5 6 4   1 3 2 3 2 1 5 6 4 3   2 1 3 2 1 1 3 2 1 3   2 1 1 3 2 1 3 2 1 1
                                        3 2 1 3 2 1 1 3 2 1   1 2 3 1 1 1 1 1 1 1   1 1 1
 *** IN SYMMETRY 2 ORBITAL  1 SYMMETRY CONTAMINATION OF 0.226D+00 HAS BEEN REMOVED
 *** IN SYMMETRY 2 ORBITAL  2 SYMMETRY CONTAMINATION OF 0.226D+00 HAS BEEN REMOVED
 EXTRA SYMMETRY OF MOS IN SYMMETRY 2:   3 2 1 1 3 2 1 3 2 1   3 2 1 3 2 1 1 1 3 2   1 6 4 5 3 2 1 6 4 5   1 3 2 1 6 4 5 3 2 1
                                        3 2 1 1 3 2 1 3 2 1   1 3 2 1 2 3 1 1 2 3   1 1 1 1 1 1 1 1 1 1
 *** IN SYMMETRY 3 ORBITAL  1 SYMMETRY CONTAMINATION OF 0.341D+00 HAS BEEN REMOVED
 *** IN SYMMETRY 3 ORBITAL  2 SYMMETRY CONTAMINATION OF 0.341D+00 HAS BEEN REMOVED
 EXTRA SYMMETRY OF MOS IN SYMMETRY 3:   3 2 1 1 3 2 1 3 2 1   3 2 1 3 2 1 1 1 3 2   1 6 4 5 3 2 1 6 4 5   1 3 2 1 6 4 5 3 2 1
                                        3 2 1 1 3 2 1 3 2 1   1 2 3 1 3 2 1 1 3 2   1 1 1 1 1 1 1 1 1 1
 EXTRA SYMMETRY OF MOS IN SYMMETRY 4:   1 1 3 2 1 3 2 1 1 3   2 1 1 1 3 2 1 3 2 1   3 2 1 1 3 2 1 1 1 1   1 1 1 1 1 1
 *** IN SYMMETRY 5 ORBITAL  1 SYMMETRY CONTAMINATION OF 0.334D-01 HAS BEEN REMOVED
 *** IN SYMMETRY 5 ORBITAL  2 SYMMETRY CONTAMINATION OF 0.334D-01 HAS BEEN REMOVED
 EXTRA SYMMETRY OF MOS IN SYMMETRY 5:   3 2 1 1 2 3 1 3 2 1   3 2 1 3 2 1 1 1 3 2   1 6 5 4 3 2 1 6 5 4   1 2 3 1 6 5 4 3 2 1
                                        3 2 1 1 3 2 1 2 3 1   1 2 3 1 3 2 1 1 3 2   1 1 1 1 1 1 1 1 1 1
 EXTRA SYMMETRY OF MOS IN SYMMETRY 6:   1 1 3 2 1 3 2 1 1 3   2 1 1 1 3 2 1 3 2 1   3 2 1 1 3 2 1 1 1 1   1 1 1 1 1 1
 EXTRA SYMMETRY OF MOS IN SYMMETRY 7:   1 1 3 2 1 3 2 1 1 3   2 1 1 1 3 2 1 3 2 1   3 2 1 1 3 2 1 1 1 1   1 1 1 1 1 1
 EXTRA SYMMETRY OF MOS IN SYMMETRY 8:   1 1 1 1 1 1 2 3 1 2   3 1 2 3 1 1 1 1 1 1   1

 Wavefunction dump at record             5202.2

 Convergence thresholds  0.10E-01 (gradient)  0.10E-05 (energy)  0.10E-02 (step length)

 Number of orbital rotations:      731   (     6 Core/Active    524 Core/Virtual   0 Active/Active    201 Active/Virtual)
 Total number of variables:        732


 ITER. MIC  NCI  NEG     ENERGY(VAR)     ENERGY(PROJ)   ENERGY CHANGE     GRAD(0)  GRAD(ORB)   GRAD(CI)     STEP       TIME

   1   22    4    0    -170.87888908    -170.87888908   -0.00000000    0.00000177 0.00000000 0.00000000  0.35D-06      0.86

 ** WVFN ****  CONVERGENCE REACHED, FINAL GRADIENT:  0.77D-10


 First order charge density matrix for state 1.8 saved on record  5202.2 (density set 1)

 Results for state 1.8
 =====================

 !MCSCF STATE 1.8 Energy             -170.878889076367
   --><property name="Energy" method="MCSCF" principal="true" stateSymmetry="8" stateNumber="1"
     value="-170.878889076367"/><!--
 Nuclear energy                         0.00000000
 Kinetic energy                       105.40671725
 One electron energy                 -283.81788618
 Two electron energy                  112.93899710
 Virial ratio                           2.62113852

 !MCSCF STATE 1.8 Dipole moment         0.00000000     0.00000000     0.00000000
 Dipole moment /Debye                   0.00000000     0.00000000     0.00000000
   --><property name="Dipole moment" method="MCSCF" principal="true" stateSymmetry="8"
     stateNumber="1" value="0.0 0.0 0.0"/><!--


 NATURAL ORBITALS
 ================

   Orb     Occ        Energy       Coefficients

                                   1 1s      1 1s      1 1s      1 1s      1 1s      1 1s      1 1s      1 1s      1 1s      1 1s
                                   1 1s      1 1s      1 1s      1 1s      1 1s      1 1s      1 1s      1 1s      1 1s      1 1s
                                   1 1s      1 1s      1 1s      1 1s      1 1s      1 1s      1 1s      1 1s      1 1s      1 1s
                                   1 1s      1 1s      1 1s      1 1s      1 1s      1 1s      1 1s      1 1s      1 3d0     1 3d2+
                                   1 3d0     1 3d2+    1 3d0     1 3d2+    1 3d0     1 3d2+    1 3d0     1 3d2+    1 3d0     1 3d2+
                                   1 3d0     1 3d2+    1 3d0     1 3d2+    1 3d0     1 3d2+    1 3d0     1 3d2+    1 3d0     1 3d2+
                                   1 3d0     1 3d2+    1 3d0     1 3d2+    1 3d0     1 3d2+    1 3d0     1 3d2+    1 3d0     1 3d2+
                                   1 3d0     1 3d2+    1 3d0     1 3d2+    1 3d0     1 3d2+    1 3d0     1 3d2+    1 3d0     1 3d2+
                                   1 3d0     1 3d2+    1 5g0     1 5g4+    1 5g2+    1 5g0     1 5g4+    1 5g2+    1 5g0     1 5g4+
                                   1 5g2+    1 5g0     1 5g4+    1 5g2+    1 5g0     1 5g4+    1 5g2+    1 5g0     1 5g4+    1 5g2+
                                   1 5g0     1 5g4+    1 5g2+

   1.1  2.00000    -4.958936     0.000000 -0.000000  0.000000 -0.000000  0.000000 -0.000000  0.000000 -0.000000  0.000000 -0.000000
                                 0.000000 -0.000001  0.000003 -0.000009  0.000040  0.000047  0.000080 -0.000453  0.002167 -0.000083
                                -0.013735  0.158468 -0.242773  0.058082  0.474831 -0.897446 -0.450810  1.288595  0.367268  0.022823
                                -0.033508  0.056383 -0.086972  0.065703 -0.026003  0.010022 -0.002582  0.000459  0.000000  0.000000
                                 0.000000  0.000000  0.000000  0.000000  0.000000  0.000000  0.000000  0.000000  0.000000  0.000000
                                 0.000000  0.000000  0.000000  0.000000  0.000000  0.000000  0.000000  0.000000  0.000000  0.000000
                                 0.000000  0.000000  0.000000  0.000000  0.000000  0.000000  0.000000  0.000000  0.000000  0.000000
                                 0.000000  0.000000  0.000000  0.000000  0.000000  0.000000  0.000000  0.000000  0.000000  0.000000
                                 0.000000  0.000000  0.000000  0.000000  0.000000  0.000000  0.000000  0.000000  0.000000  0.000000
                                 0.000000  0.000000  0.000000  0.000000  0.000000  0.000000  0.000000  0.000000  0.000000  0.000000
                                 0.000000  0.000000  0.000000

                                   1 2px     1 2px     1 2px     1 2px     1 2px     1 2px     1 2px     1 2px     1 2px     1 2px
                                   1 2px     1 2px     1 2px     1 2px     1 2px     1 2px     1 2px     1 2px     1 2px     1 2px
                                   1 2px     1 2px     1 2px     1 2px     1 2px     1 2px     1 2px     1 2px     1 2px     1 2px
                                   1 2px     1 4f1+    1 4f3+    1 4f1+    1 4f3+    1 4f1+    1 4f3+    1 4f1+    1 4f3+    1 4f1+
                                   1 4f3+    1 4f1+    1 4f3+    1 4f1+    1 4f3+    1 4f1+    1 4f3+    1 4f1+    1 4f3+    1 4f1+
                                   1 4f3+    1 4f1+    1 4f3+    1 4f1+    1 4f3+    1 4f1+    1 4f3+    1 4f1+    1 4f3+    1 4f1+
                                   1 4f3+    1 6h1+    1 6h3+    1 6h5+    1 6h1+    1 6h3+    1 6h5+    1 6h1+    1 6h3+    1 6h5+


   1.2  2.00000    -2.532838     0.000000  0.000000  0.000000  0.000000  0.000000  0.000000  0.000000  0.000000  0.000000  0.000000
                                 0.000000  0.000000  0.000000  0.000000  0.000000  0.000000  0.000000  0.000000  0.000000  0.000000
                                 0.000000  0.000000  0.000000  0.000000  0.000000  0.000000  0.000000  0.000000  0.000000  0.000000
                                 0.000000  0.000000  0.000014  0.000000 -0.000097  0.000000  0.000471  0.000000 -0.002284  0.000000
                                 0.023531  0.000000 -0.037599  0.000000  0.130228  0.000000  0.208992  0.000000  0.366425  0.000000
                                 0.447816  0.000000  0.154817  0.000000 -0.007455  0.000000  0.008389  0.000000 -0.004303  0.000000
                                 0.001407  0.000000  0.000000  0.000000  0.000000  0.000000  0.000000  0.000000  0.000000  0.000000

   2.2  2.00000    -2.532838     0.000000  0.000000  0.000000  0.000000  0.000000  0.000000  0.000000  0.000000  0.000000  0.000000
                                 0.000000  0.000000  0.000000  0.000000  0.000000  0.000000  0.000000  0.000000  0.000000  0.000000
                                 0.000000  0.000000  0.000000  0.000000  0.000000  0.000000  0.000000  0.000000  0.000000  0.000000
                                 0.000000  0.000014  0.000000 -0.000097  0.000000  0.000471  0.000000 -0.002284  0.000000  0.023531
                                 0.000000 -0.037599  0.000000  0.130228  0.000000  0.208992  0.000000  0.366425  0.000000  0.447816
                                 0.000000  0.154817  0.000000 -0.007455  0.000000  0.008389  0.000000 -0.004303  0.000000  0.001407
                                 0.000000  0.000000  0.000000  0.000000  0.000000  0.000000  0.000000  0.000000  0.000000  0.000000

   3.2  1.00000    -3.801499     0.000000 -0.000000  0.000000 -0.000000  0.000000 -0.000000  0.000001 -0.000004  0.000014 -0.000044
                                 0.000127 -0.000355  0.000980 -0.002979  0.010986 -0.091188  0.222149 -0.417926  0.709156 -0.671358
                                -0.076162  0.827941  0.058585  0.331412 -0.176771 -0.004415  0.007315  0.175464 -0.004011  0.001712
                                -0.000377  0.000000  0.000000  0.000000  0.000000  0.000000  0.000000  0.000000  0.000000  0.000000
                                 0.000000  0.000000  0.000000  0.000000  0.000000  0.000000  0.000000  0.000000  0.000000  0.000000
                                 0.000000  0.000000  0.000000  0.000000  0.000000  0.000000  0.000000  0.000000  0.000000  0.000000
                                 0.000000  0.000000  0.000000  0.000000  0.000000  0.000000  0.000000  0.000000  0.000000  0.000000

                                   1 2py     1 2py     1 2py     1 2py     1 2py     1 2py     1 2py     1 2py     1 2py     1 2py
                                   1 2py     1 2py     1 2py     1 2py     1 2py     1 2py     1 2py     1 2py     1 2py     1 2py
                                   1 2py     1 2py     1 2py     1 2py     1 2py     1 2py     1 2py     1 2py     1 2py     1 2py
                                   1 2py     1 4f1-    1 4f3-    1 4f1-    1 4f3-    1 4f1-    1 4f3-    1 4f1-    1 4f3-    1 4f1-
                                   1 4f3-    1 4f1-    1 4f3-    1 4f1-    1 4f3-    1 4f1-    1 4f3-    1 4f1-    1 4f3-    1 4f1-
                                   1 4f3-    1 4f1-    1 4f3-    1 4f1-    1 4f3-    1 4f1-    1 4f3-    1 4f1-    1 4f3-    1 4f1-
                                   1 4f3-    1 6h1-    1 6h3-    1 6h5-    1 6h1-    1 6h3-    1 6h5-    1 6h1-    1 6h3-    1 6h5-


   1.3  2.00000    -2.532838     0.000000  0.000000  0.000000  0.000000  0.000000  0.000000  0.000000  0.000000  0.000000  0.000000
                                 0.000000  0.000000  0.000000  0.000000  0.000000  0.000000  0.000000  0.000000  0.000000  0.000000
                                 0.000000  0.000000  0.000000  0.000000  0.000000  0.000000  0.000000  0.000000  0.000000  0.000000
                                 0.000000  0.000000  0.000014  0.000000 -0.000097  0.000000  0.000471  0.000000 -0.002284  0.000000
                                 0.023531  0.000000 -0.037599  0.000000  0.130228  0.000000  0.208992  0.000000  0.366425  0.000000
                                 0.447816  0.000000  0.154817  0.000000 -0.007455  0.000000  0.008389  0.000000 -0.004303  0.000000
                                 0.001407  0.000000  0.000000  0.000000  0.000000  0.000000  0.000000  0.000000  0.000000  0.000000

   2.3  2.00000    -2.532838     0.000000  0.000000  0.000000  0.000000  0.000000  0.000000  0.000000  0.000000  0.000000  0.000000
                                 0.000000  0.000000  0.000000  0.000000  0.000000  0.000000  0.000000  0.000000  0.000000  0.000000
                                 0.000000  0.000000  0.000000  0.000000  0.000000  0.000000  0.000000  0.000000  0.000000  0.000000
                                 0.000000  0.000014  0.000000 -0.000097  0.000000  0.000471  0.000000 -0.002284  0.000000  0.023531
                                 0.000000 -0.037599  0.000000  0.130228  0.000000  0.208992  0.000000  0.366425  0.000000  0.447816
                                 0.000000  0.154817  0.000000 -0.007455  0.000000  0.008389  0.000000 -0.004303  0.000000  0.001407
                                 0.000000  0.000000  0.000000  0.000000  0.000000  0.000000  0.000000  0.000000  0.000000  0.000000

   3.3  1.00000    -3.801499     0.000000 -0.000000  0.000000 -0.000000  0.000000 -0.000000  0.000001 -0.000004  0.000014 -0.000044
                                 0.000127 -0.000355  0.000980 -0.002979  0.010986 -0.091188  0.222149 -0.417926  0.709156 -0.671358
                                -0.076162  0.827941  0.058585  0.331412 -0.176771 -0.004415  0.007315  0.175464 -0.004011  0.001712
                                -0.000377  0.000000  0.000000  0.000000  0.000000  0.000000  0.000000  0.000000  0.000000  0.000000
                                 0.000000  0.000000  0.000000  0.000000  0.000000  0.000000  0.000000  0.000000  0.000000  0.000000
                                 0.000000  0.000000  0.000000  0.000000  0.000000  0.000000  0.000000  0.000000  0.000000  0.000000
                                 0.000000  0.000000  0.000000  0.000000  0.000000  0.000000  0.000000  0.000000  0.000000  0.000000

                                   1 2pz     1 2pz     1 2pz     1 2pz     1 2pz     1 2pz     1 2pz     1 2pz     1 2pz     1 2pz
                                   1 2pz     1 2pz     1 2pz     1 2pz     1 2pz     1 2pz     1 2pz     1 2pz     1 2pz     1 2pz
                                   1 2pz     1 2pz     1 2pz     1 2pz     1 2pz     1 2pz     1 2pz     1 2pz     1 2pz     1 2pz
                                   1 2pz     1 4f0     1 4f2+    1 4f0     1 4f2+    1 4f0     1 4f2+    1 4f0     1 4f2+    1 4f0
                                   1 4f2+    1 4f0     1 4f2+    1 4f0     1 4f2+    1 4f0     1 4f2+    1 4f0     1 4f2+    1 4f0
                                   1 4f2+    1 4f0     1 4f2+    1 4f0     1 4f2+    1 4f0     1 4f2+    1 4f0     1 4f2+    1 4f0
                                   1 4f2+    1 6h2+    1 6h4+    1 6h0     1 6h2+    1 6h4+    1 6h0     1 6h2+    1 6h4+    1 6h0


   1.5  2.00000    -2.532838     0.000000  0.000000  0.000000  0.000000  0.000000  0.000000  0.000000  0.000000  0.000000  0.000000
                                 0.000000  0.000000  0.000000  0.000000  0.000000  0.000000  0.000000  0.000000  0.000000  0.000000
                                 0.000000  0.000000  0.000000  0.000000  0.000000  0.000000  0.000000  0.000000  0.000000  0.000000
                                 0.000000  0.000014  0.000000 -0.000097  0.000000  0.000471  0.000000 -0.002284  0.000000  0.023531
                                 0.000000 -0.037599  0.000000  0.130228  0.000000  0.208992  0.000000  0.366425  0.000000  0.447816
                                 0.000000  0.154817  0.000000 -0.007455  0.000000  0.008389  0.000000 -0.004303  0.000000  0.001407
                                 0.000000  0.000000  0.000000  0.000000  0.000000  0.000000  0.000000  0.000000  0.000000  0.000000

   2.5  2.00000    -2.532838     0.000000  0.000000  0.000000  0.000000  0.000000  0.000000  0.000000  0.000000  0.000000  0.000000
                                 0.000000  0.000000  0.000000  0.000000  0.000000  0.000000  0.000000  0.000000  0.000000  0.000000
                                 0.000000  0.000000  0.000000  0.000000  0.000000  0.000000  0.000000  0.000000  0.000000  0.000000
                                 0.000000  0.000000  0.000014  0.000000 -0.000097  0.000000  0.000471  0.000000 -0.002284  0.000000
                                 0.023531  0.000000 -0.037599  0.000000  0.130228  0.000000  0.208992  0.000000  0.366425  0.000000
                                 0.447816  0.000000  0.154817  0.000000 -0.007455  0.000000  0.008389  0.000000 -0.004303  0.000000
                                 0.001407  0.000000  0.000000  0.000000  0.000000  0.000000  0.000000  0.000000  0.000000  0.000000

   3.5  1.00000    -3.801499     0.000000 -0.000000  0.000000 -0.000000  0.000000 -0.000000  0.000001 -0.000004  0.000014 -0.000044
                                 0.000127 -0.000355  0.000980 -0.002979  0.010986 -0.091188  0.222149 -0.417926  0.709156 -0.671358
                                -0.076162  0.827941  0.058585  0.331412 -0.176771 -0.004415  0.007315  0.175464 -0.004011  0.001712
                                -0.000377  0.000000  0.000000 -0.000000  0.000000  0.000000  0.000000 -0.000000  0.000000  0.000000
                                 0.000000 -0.000000  0.000000  0.000000  0.000000  0.000000  0.000000  0.000000  0.000000  0.000000
                                 0.000000  0.000000  0.000000 -0.000000  0.000000  0.000000  0.000000 -0.000000  0.000000  0.000000
                                 0.000000  0.000000  0.000000  0.000000  0.000000  0.000000  0.000000  0.000000  0.000000  0.000000

                                   1 4f2-    1 4f2-    1 4f2-    1 4f2-    1 4f2-    1 4f2-    1 4f2-    1 4f2-    1 4f2-    1 4f2-
                                   1 4f2-    1 4f2-    1 4f2-    1 4f2-    1 4f2-    1 6h4-    1 6h2-    1 6h4-    1 6h2-    1 6h4-
                                   1 6h2-

   1.8  2.00000    -2.532838     0.000014 -0.000097  0.000471 -0.002284  0.023531 -0.037599  0.130228  0.208992  0.366425  0.447816
                                 0.154817 -0.007455  0.008389 -0.004303  0.001407  0.000000  0.000000  0.000000  0.000000  0.000000
                                 0.000000

 Total charge:   6.000000000000


 EXTRA SYMMETRY OF MOS IN SYMMETRY 1:   1 2 3 1 3 2 1 5 6 4   3 2 1 4 6 5 3 2 1 3   2 1 5 4 6 3 2 1 3 2   1 1 3 2 1 5 4 6 3 2
                                        1 4 6 5 1 3 2 6 5 4   1 3 2 3 2 1 6 5 4 3   2 1 3 2 1 1 3 2 1 3   2 1 1 3 2 1 3 2 1 1
                                        3 2 1 2 3 1 1 2 3 1   1 2 3 1 1 1 1 1 1 1   1 1 1
 EXTRA SYMMETRY OF MOS IN SYMMETRY 2:   3 2 1 1 2 3 1 3 2 1   2 3 1 2 3 1 1 1 2 3   1 4 6 5 2 3 1 6 4 5   1 3 2 1 4 6 5 3 2 1
                                        3 2 1 1 3 2 1 2 3 1   1 2 3 1 2 3 1 1 2 3   1 1 1 1 1 1 1 1 1 1
 EXTRA SYMMETRY OF MOS IN SYMMETRY 3:   3 2 1 1 3 2 1 2 3 1   2 3 1 3 2 1 1 1 3 2   1 6 5 4 3 2 1 6 4 5   1 2 3 1 5 4 6 3 2 1
                                        3 2 1 1 3 2 1 3 2 1   1 3 2 1 3 2 1 1 3 2   1 1 1 1 1 1 1 1 1 1
 EXTRA SYMMETRY OF MOS IN SYMMETRY 4:   1 1 2 3 1 2 3 1 1 3   2 1 1 1 3 2 1 3 2 1   3 2 1 1 3 2 1 1 1 1   1 1 1 1 1 1
 EXTRA SYMMETRY OF MOS IN SYMMETRY 5:   2 3 1 1 2 3 1 3 2 1   2 3 1 2 3 1 1 1 2 3   1 6 4 5 3 2 1 6 5 4   1 2 3 1 6 4 5 2 3 1
                                        2 3 1 1 2 3 1 2 3 1   1 2 3 1 2 3 1 1 2 3   1 1 1 1 1 1 1 1 1 1
 EXTRA SYMMETRY OF MOS IN SYMMETRY 6:   1 1 2 3 1 3 2 1 1 2   3 1 1 1 2 3 1 2 3 1   2 3 1 1 2 3 1 1 1 1   1 1 1 1 1 1
 EXTRA SYMMETRY OF MOS IN SYMMETRY 7:   1 1 2 3 1 3 2 1 1 2   3 1 1 1 2 3 1 2 3 1   2 3 1 1 2 3 1 1 1 1   1 1 1 1 1 1
 EXTRA SYMMETRY OF MOS IN SYMMETRY 8:   1 1 1 1 1 1 3 2 1 3   2 1 3 2 1 1 1 1 1 1   1

 Natural orbital dump at molpro section  5202.2    (Orbital set 2)


 CI vector
 =========

 a a a           1.0000000

 TOTAL ENERGIES                      -170.87888908



 **********************************************************************************************************************************
 DATASETS  * FILE   NREC   LENGTH (MB)   RECORD NAMES
              1      20       41.81       500      610      700      900      950      970     1000      129      960     1100
                                          VAR    BASINP    GEOM    SYMINP    ZMAT    AOBASIS   BASIS     P2S    ABASIS      S
                                         1400     1410     1420     1200     1210     1080     1600     1650     1700     1380
                                           T        V       ECP      H0       H01     AOSYM     SMH    MOLCAS    OPER     JKOP

              2       6        9.83       200      700     1000      520     4202     5202
                                        OPTIONS   GEOM     BASIS   MCVARS     RHF     MCSCF

 PROGRAMS   *        TOTAL     MULTI       POP       RHF       INT
 CPU TIMES  *       164.24      1.86      0.01      2.27    159.66
 REAL TIME  *       173.21 SEC
 DISK USED  *         8.14 GB
 SF USED    *        70.62 MB
 GA USED    *         0.00 MB       (max)       0.00 MB       (current)
 **********************************************************************************************************************************
   -->
   <time start="18:12:28" end="18:12:31" cpu="1.86" system="0.19" real="2.1"/>
   <storage units="megabyte" memory="8001.84" sf="70.62" df="349.4" eaf="7790.03" ga="0.0"/>
  </jobstep><!--
  --><jobstep command="RHF-SCF" commandset="SCFPRO">
   <!--


 PROGRAM * RHF-SCF (OPEN SHELL)       Authors: W. Meyer, H.-J. Werner


 NUMBER OF ELECTRONS:      11+    8-    SPACE SYMMETRY=8    SPIN SYMMETRY: Quartet
 CONVERGENCE THRESHOLDS:    1.00E-05 (Density)    1.00E-07 (Energy)
 MAX. NUMBER OF ITERATIONS:        0
 INTERPOLATION TYPE:            DIIS
 INTERPOLATION STEPS:              2 (START)      1 (STEP)
 LEVEL SHIFTS:                 -0.60 (CLOSED) -0.30 (OPEN)

 Number of closed-shell orbitals:    8 (   1   2   2   0   2   0   0   1 )
 Number of open-shell orbitals:      3 (   0   1   1   0   1   0   0   0 )


 Molecular orbitals read from record     5202.2  Type=MCSCF/NATURAL (state 1.8)

 Molecular orbital dump at record        2130.2

 ITERATION    DDIFF          GRAD             ENERGY        2-EL.EN.            DIPOLE MOMENTS         DIIS   ORB.
    1      0.000D+00      0.000D+00      -170.87888908    225.877994    0.00000    0.00000    0.00000    0    start

 Final alpha occupancy:   1   3   3   0   3   0   0   1
 Final beta  occupancy:   1   2   2   0   2   0   0   1

 !RHF STATE 1.8 Energy               -170.878889076367
   --><property name="Energy" method="RHF" principal="true" stateSymmetry="8" stateNumber="1"
     value="-170.878889076367"/><!--
 Nuclear energy                         0.00000000
 One-electron energy                 -283.81788618
 Two-electron energy                  112.93899710
 Virial quotient                       -1.62113852
 !RHF STATE 1.8 Dipole moment           0.00000000     0.00000000     0.00000000
 Dipole moment /Debye                   0.00000000     0.00000000     0.00000000
   --><property name="Dipole moment" method="RHF" principal="true" stateSymmetry="8"
     stateNumber="1" value="0.0 0.0 0.0"/><!--

 Orbital energies:

         1.1          2.1          3.1
     -4.958936    -2.407638    -2.407638

         1.2          2.2          3.2          4.2          5.2
     -2.532838    -2.532838    -3.801499    -1.460299    -0.996207

         1.3          2.3          3.3          4.3          5.3
     -2.532838    -2.532838    -3.801499    -1.460299    -0.996207

         1.4          2.4
     -2.407638    -1.117093

         1.5          2.5          3.5          4.5          5.5
     -2.532838    -2.532838    -3.801499    -1.460299    -0.996207

         1.6          2.6
     -2.407638    -1.117093

         1.7          2.7
     -2.407638    -1.117093

         1.8          2.8          3.8
     -2.532838    -0.996207    -0.647062

 HOMO      1.8    -2.532838 =     -68.9220eV
 LUMO      2.1    -2.407638 =     -65.5152eV
 LUMO-HOMO         0.125200 =       3.4069eV


 **********************************************************************************************************************************
 DATASETS  * FILE   NREC   LENGTH (MB)   RECORD NAMES
              1      20       41.81       500      610      700      900      950      970     1000      129      960     1100
                                          VAR    BASINP    GEOM    SYMINP    ZMAT    AOBASIS   BASIS     P2S    ABASIS      S
                                         1400     1410     1420     1200     1210     1080     1600     1650     1700     1380
                                           T        V       ECP      H0       H01     AOSYM     SMH    MOLCAS    OPER     JKOP

              2       7       13.30       200      700     1000      520     4202     5202     2130
                                        OPTIONS   GEOM     BASIS   MCVARS     RHF     MCSCF     RHF

 PROGRAMS   *        TOTAL       RHF     MULTI       POP       RHF       INT
 CPU TIMES  *       164.47      0.22      1.86      0.01      2.27    159.66
 REAL TIME  *       173.46 SEC
 DISK USED  *         8.14 GB
 SF USED    *        70.62 MB
 GA USED    *         0.00 MB       (max)       0.00 MB       (current)
 **********************************************************************************************************************************
   -->
   <time start="18:12:31" end="18:12:31" cpu="0.23" system="0.02" real="0.25"/>
   <storage units="megabyte" memory="8001.84" sf="70.62" df="349.4" eaf="7790.03" ga="0.0"/>
  </jobstep><!--
 SETTING SCF(14)        =      -170.87888908  AU
 SETTING _CC_NORM_MAX   =         2.00000000
  --><jobstep command="RCCSD(T)" commandset="CCSD">
   <!--


 PROGRAM * CCSD (Restricted open-shell coupled cluster)     Authors: C. Hampel, H.-J. Werner, 1991, M. Deegan, P.J. Knowles, 1992


 Convergence thresholds:  THRVAR = 1.00D-08  THRDEN = 1.00D-06

 CCSD(T)     terms to be evaluated (factor= 1.000)


 Number of closed-shell orbitals:   8 (   1   2   2   0   2   0   0   1 )
 Number of active  orbitals:        3 (   0   1   1   0   1   0   0   0 )
 Number of external orbitals:     431 ( 102  67  67  36  67  36  36  20 )

 Memory could be reduced to 192.03 Mwords without degradation in triples

 Number of N-1 electron functions:              19
 Number of N-2 electron functions:             171
 Number of singly external CSFs:              1264
 Number of doubly external CSFs:           3069716
 Total number of CSFs:                     3070980

 Molecular orbitals read from record     2130.2  Type=RHF/CANONICAL (state 1.8)

 Integral transformation finished. Total CPU:   5.58 sec, npass=  1  Memory used:  36.42 MW

 Starting RMP2 calculation

 Wavefunction is spin-projected

 ITER.      SQ.NORM     CORR.ENERGY   TOTAL ENERGY   ENERGY CHANGE        DEN1      VAR(S)    VAR(P)  DIIS     TIME
   1      4.32819660    -3.38894435  -174.26783343    -3.38894435    -0.35948198  0.81D-05  0.46D+00  0  0     6.60
   2      6.02945479    -3.74842633  -174.62731541    -0.35948198    -0.14689617  0.22D-06  0.20D+00  1  1     6.92
   3     10.02645407    -4.35637333  -175.23526240    -0.60794699    -0.00204455  0.32D-06  0.38D-02  2  2     7.28
   4     10.46233102    -4.40487732  -175.28376639    -0.04850399    -0.00021416  0.20D-07  0.38D-03  3  3     7.82
   5     10.52672589    -4.41057861  -175.28946769    -0.00570129    -0.00009636  0.44D-09  0.15D-03  4  4     8.65
   6     10.54486658    -4.41178117  -175.29067025    -0.00120256    -0.00002044  0.34D-09  0.29D-04  5  5     9.41
   7     10.55562943    -4.41233487  -175.29122394    -0.00055370    -0.00000136  0.20D-10  0.18D-05  6  6    10.05
   8     10.55535545    -4.41227146  -175.29116054     0.00006341    -0.00000050  0.14D-11  0.72D-06  6  3    11.62
   9     10.55492441    -4.41218871  -175.29107779     0.00008275    -0.00000008  0.14D-11  0.10D-06  6  1    12.37
  10     10.55428901    -4.41211631  -175.29100539     0.00007240    -0.00000001  0.21D-12  0.70D-08  6  2    13.07
  11     10.55453058    -4.41214300  -175.29103207    -0.00002669    -0.00000000  0.63D-14  0.98D-09  6  5    14.28
  12     10.55462382    -4.41215636  -175.29104544    -0.00001337    -0.00000000  0.37D-14  0.21D-09  6  4    14.97
  13     10.55469265    -4.41216556  -175.29105464    -0.00000920    -0.00000000  0.64D-15  0.23D-10  6  6    15.48
  14     10.55469471    -4.41216585  -175.29105492    -0.00000028    -0.00000000  0.14D-17  0.81D-11  6  3    16.05

 Norm of t1 vector:      0.02388173      S-energy:    -0.00248625      T1 diagnostic:  0.00010319
 Norm of t2 vector:      3.09097466      P-energy:    -4.40967960
                                         Alpha-Beta:  -2.83889730
                                         Alpha-Alpha: -0.81951677
                                         Beta-Beta:   -0.75126553

 Spin contamination <S**2-Sz**2-Sz>     0.00000000
  Reference energy                   -170.878889076367
   --><property name="energy" method="Reference" stateSymmetry="1" stateNumber="1"
     value="-170.878889076367"/><!--
  RHF-RMP2 correlation energy          -4.412165845549
   --><property name="energy" method="RHF-RMP2 correlation" stateSymmetry="1" stateNumber="1"
     value="-4.41216584554942"/><!--
 !RHF-RMP2 energy                    -175.291054921916
   --><property name="energy" method="RHF-RMP2" principal="true" stateSymmetry="8"
     stateNumber="1" value="-175.291054921916"/><!--
 (NB above energy spin projected)

 Starting RCCSD calculation

 ITER.      SQ.NORM     CORR.ENERGY   TOTAL ENERGY   ENERGY CHANGE        DEN1      VAR(S)    VAR(P)  DIIS     TIME
   1      1.68466551    -1.51352546  -172.39241453    -1.51352546    -0.83045562  0.17D-02  0.37D+00  0  0    19.85
   2      2.96114978    -2.37502565  -173.25391472    -0.86150019    -0.39724303  0.30D-03  0.37D+00  0  0    23.16
   3      2.92393443    -1.92328823  -172.80217730     0.45173742    -0.16685140  0.54D-03  0.13D+00  0  0    25.77
   4      4.48461075    -2.31699297  -173.19588205    -0.39370475    -0.22289274  0.19D-03  0.28D+00  0  0    28.39
   5      5.56394426    -2.16690414  -173.04579321     0.15008883    -0.14303279  0.33D-03  0.18D+00  0  0    30.98
   6      8.46009089    -2.40133500  -173.28022408    -0.23443086    -0.30788571  0.31D-03  0.42D+00  0  0    33.57
   7     11.80160566    -2.41649909  -173.29538817    -0.01516409    -0.31669833  0.65D-03  0.43D+00  0  0    36.17
   8     17.98777281    -2.61178890  -173.49067797    -0.19528981    -0.63397227  0.97D-03  0.89D+00  0  0    38.78
   9     27.71923501    -2.73469447  -173.61358354    -0.12290557    -1.15937851  0.20D-02  0.16D+01  0  0    41.37

 UNREASONABLE NORM: 27.719235 CALCULATION WILL BE STOPPED

 The threshold can be changed using option CC_NORM_MAX (see manual). The current value is CC_NORM_MAX=2.00

 Norm of t1 vector:      0.16943399      S-energy:    -0.00244036      T1 diagnostic:  0.02716882
                                                                       D1 diagnostic:  0.06021233
 Norm of t2 vector:      5.16628756      P-energy:    -2.73225411
                                         Alpha-Beta:  -2.60778298
                                         Alpha-Alpha: -0.08529739
                                         Beta-Beta:   -0.03917373

 Singles amplitudes (print threshold =  0.500E-01):

         I         SYM. A    A   T(IA) [Alpha-Alpha]

         4         2         2      0.08472021
         7         3         2      0.08472021
        10         5         2      0.08472021

 Doubles amplitudes (print threshold =  0.500E-01):

         I         J         SYM. A    SYM. B    A         B      T(IJ, AB) [Beta-Beta]

         5         2         2         3         1         2     -0.16998778
         5         2         2         3         2         1     -0.16998778
         5         2         3         2         1         2      0.16998778
         5         2         3         2         2         1      0.16998778
         6         3         2         3         1         2     -0.05666259
         6         3         2         3         2         1     -0.05666259
         6         3         3         2         1         2      0.05666259
         6         3         3         2         2         1      0.05666259
        11         9         2         3         1         2     -0.11332519
        11         9         2         3         2         1     -0.11332519
        11         9         3         2         1         2      0.11332519
        11         9         3         2         2         1      0.11332519
         8         3         2         5         1         2     -0.13879444
         8         3         2         5         2         1     -0.13879444
         8         3         5         2         1         2      0.13879444
         8         3         5         2         2         1      0.13879444
         9         2         2         5         1         2     -0.06939722
         9         2         2         5         2         1     -0.06939722
         9         2         5         2         1         2      0.06939722
         9         2         5         2         2         1      0.06939722
         9         3         2         5         1         2      0.08959143
         9         3         2         5         2         1      0.08959143
         9         3         5         2         1         2     -0.08959143
         9         3         5         2         2         1     -0.08959143
        11         5         2         5         1         2     -0.06939722
        11         5         2         5         2         1     -0.06939722
        11         5         5         2         1         2      0.06939722
        11         5         5         2         2         1      0.06939722
        11         6         2         5         1         2      0.08959143
        11         6         2         5         2         1      0.08959143
        11         6         5         2         1         2     -0.08959143
        11         6         5         2         2         1     -0.08959143
         8         6         3         5         1         2     -0.13879444
         8         6         3         5         2         1     -0.13879444
         8         6         5         3         1         2      0.13879444
         8         6         5         3         2         1      0.13879444
         9         5         3         5         1         2     -0.06939722
         9         5         3         5         2         1     -0.06939722
         9         5         5         3         1         2      0.06939722
         9         5         5         3         2         1      0.06939722
         9         6         3         5         1         2     -0.08959143
         9         6         3         5         2         1     -0.08959143
         9         6         5         3         1         2      0.08959143
         9         6         5         3         2         1      0.08959143
        11         2         3         5         1         2      0.06939722
[...]
         9         9         5         5         5         1     -0.06606424
         9         9         6         6         1         1     -0.48262723
         9         9         7         7         1         1     -0.48262723
        11        11         1         1         1         1     -0.23494432
        11        11         1         1         2         2     -0.23494432
        11        11         2         2         2         1      0.73071273
        11        11         2         2         5         1     -0.06606424
        11        11         3         3         2         1      0.73071273
        11        11         3         3         5         1     -0.06606424
        11        11         4         4         1         1     -0.48262723
        11        11         5         5         2         1      0.73071273
        11        11         5         5         5         1     -0.06606424
        11        11         6         6         1         1     -0.48262723
        11        11         7         7         1         1     -0.48262723
         1         2         1         2         2         1     -0.07148657
         1         2         4         3         1         1      0.07148657
         1         3         1         2         1         1      0.06393954
         1         3         6         5         1         1     -0.07383102
         1         5         1         3         2         1     -0.07148657
         1         5         4         2         1         1     -0.07148657
         1         6         1         3         1         1      0.06393954
         1         6         7         5         1         1     -0.07383102
         5         2         2         3         2         1     -0.08499389
         5         2         3         2         2         1      0.08499389
         2         5         2         3         2         1      0.08499389
         2         5         3         2         2         1     -0.08499389
         5         3         1         4         1         1      0.22415873
         5         3         1         4         2         1      0.09592718
         5         3         2         3         2         1     -0.13426792
         5         3         3         2         2         1     -0.13426792
         5         3         4         1         1         1      0.17545380
         5         3         4         1         1         2      0.09592718
         3         5         1         4         1         1      0.17545380
         3         5         1         4         2         1      0.09592718
         3         5         2         3         2         1     -0.13426792
         3         5         3         2         2         1     -0.13426792
         3         5         4         1         1         1      0.22415873
         3         5         4         1         1         2      0.09592718
         6         2         1         4         1         1     -0.17545380
         6         2         1         4         2         1      0.09592718
         6         2         2         3         2         1      0.13426792
         6         2         3         2         2         1      0.13426792
         6         2         4         1         1         1     -0.22415873
         6         2         4         1         1         2      0.09592718
         2         6         1         4         1         1     -0.22415873
         2         6         1         4         2         1      0.09592718
         2         6         2         3         2         1      0.13426792
         2         6         3         2         2         1      0.13426792
         2         6         4         1         1         1     -0.17545380
         2         6         4         1         1         2      0.09592718
         6         3         1         4         1         1     -0.13793878
         6         3         2         3         2         1      0.17967566
         6         3         3         2         2         1      0.23633826
         6         3         4         1         1         1     -0.13793878
         6         3         6         7         1         1     -0.26522421
         6         3         7         6         1         1     -0.22137567
         3         6         1         4         1         1     -0.13793878
         3         6         2         3         2         1      0.23633826
         3         6         3         2         2         1      0.17967566
         3         6         4         1         1         1     -0.13793878
         3         6         6         7         1         1     -0.22137567
         3         6         7         6         1         1     -0.26522421
        11         8         1         4         1         1      0.25781424
        11         8         2         3         2         1     -0.26853583
        11         8         3         2         2         1     -0.26853583
        11         8         4         1         1         1      0.20910932
        11         8         6         7         1         1      0.25014742
        11         8         7         6         1         1      0.25014742
         8        11         1         4         1         1      0.20910932
         8        11         2         3         2         1     -0.26853583
         8        11         3         2         2         1     -0.26853583
         8        11         4         1         1         1      0.25781424
         8        11         6         7         1         1      0.25014742
         8        11         7         6         1         1      0.25014742
        11         9         1         4         2         1     -0.11352175
        11         9         2         3         2         1     -0.05666259
        11         9         3         2         2         1      0.05666259
        11         9         4         1         1         2     -0.13416116
         9        11         1         4         2         1     -0.13416116
         9        11         2         3         2         1      0.05666259
         9        11         3         2         2         1     -0.05666259
         9        11         4         1         1         2     -0.11352175
         1         8         1         5         1         1      0.07830962
         1         9         1         5         2         1     -0.05836854
         1         9         6         2         1         1     -0.05836854
         1         9         7         3         1         1      0.05836854
         8         2         1         6         2         1      0.13470611
         8         2         4         7         1         1     -0.13470611
         8         2         6         1         1         2      0.10026653
         8         2         7         4         1         1     -0.10026653
         2         8         1         6         2         1      0.10026653
         2         8         4         7         1         1     -0.10026653
         2         8         6         1         1         2      0.13470611
         2         8         7         4         1         1     -0.13470611
         8         3         1         6         1         1      0.09971823
         8         3         5         2         2         1      0.15431571
         8         3         6         1         1         1      0.13173330
         8         3         6         1         1         2     -0.06175742
         8         3         7         4         1         1     -0.06175742
         3         8         1         6         1         1      0.13173330
         3         8         1         6         2         1     -0.06175742
         3         8         2         5         2         1      0.15431571
         3         8         4         7         1         1     -0.06175742
         3         8         6         1         1         1      0.09971823
         9         2         1         6         2         1     -0.21127214
         9         2         2         5         2         1      0.17759760
         9         2         4         7         1         1     -0.21127214
         9         2         5         2         2         1      0.24699483
         9         2         6         1         1         2     -0.18424566
         9         2         7         4         1         1     -0.18424566
         2         9         1         6         2         1     -0.18424566
         2         9         2         5         2         1      0.24699483
         2         9         4         7         1         1     -0.18424566
         2         9         5         2         2         1      0.17759760
         2         9         6         1         1         2     -0.21127214
         2         9         7         4         1         1     -0.21127214
         9         3         1         6         1         1      0.15666220
         9         3         1         6         2         1     -0.13573787
         9         3         2         5         2         1      0.20923965
         9         3         4         7         1         1     -0.09185324
         9         3         5         2         2         1      0.11964823
         9         3         6         1         1         1      0.15588026
         9         3         6         1         1         2     -0.17062890
         9         3         7         4         1         1     -0.05786511
         3         9         1         6         1         1      0.15588026
         3         9         1         6         2         1     -0.17062890
         3         9         2         5         2         1      0.11964823
         3         9         4         7         1         1     -0.05786511
         3         9         5         2         2         1      0.20923965
         3         9         6         1         1         1      0.15666220
         3         9         6         1         1         2     -0.13573787
         3         9         7         4         1         1     -0.09185324
        11         5         1         6         2         1     -0.21127214
        11         5         2         5         2         1      0.17759760
        11         5         4         7         1         1     -0.21127214
        11         5         5         2         2         1      0.24699483
        11         5         6         1         1         2     -0.18424566
        11         5         7         4         1         1     -0.18424566
         5        11         1         6         2         1     -0.18424566
         5        11         2         5         2         1      0.24699483
         5        11         4         7         1         1     -0.18424566
         5        11         5         2         2         1      0.17759760
         5        11         6         1         1         2     -0.21127214
         5        11         7         4         1         1     -0.21127214
        11         6         1         6         1         1      0.15666220
        11         6         1         6         2         1     -0.09185324
        11         6         2         5         2         1      0.20923965
        11         6         4         7         1         1     -0.13573787
        11         6         5         2         2         1      0.11964823
        11         6         6         1         1         1      0.15588026
        11         6         6         1         1         2     -0.05786511
        11         6         7         4         1         1     -0.17062890
         6        11         1         6         1         1      0.15588026
         6        11         1         6         2         1     -0.05786511
         6        11         2         5         2         1      0.11964823
         6        11         4         7         1         1     -0.17062890
         6        11         5         2         2         1      0.20923965
         6        11         6         1         1         1      0.15666220
         6        11         6         1         1         2     -0.09185324
         6        11         7         4         1         1     -0.13573787
         8         5         1         7         2         1      0.13470611
         8         5         4         6         1         1      0.13470611
         8         5         6         4         1         1      0.10026653
         8         5         7         1         1         2      0.10026653
         5         8         1         7         2         1      0.10026653
         5         8         4         6         1         1      0.10026653
         5         8         6         4         1         1      0.13470611
         5         8         7         1         1         2      0.13470611
         8         6         1         7         1         1      0.09971823
         8         6         5         3         2         1      0.15431571
         8         6         6         4         1         1     -0.06175742
         8         6         7         1         1         1      0.13173330
         8         6         7         1         1         2      0.06175742
         6         8         1         7         1         1      0.13173330
         6         8         1         7         2         1      0.06175742
         6         8         3         5         2         1      0.15431571
         6         8         4         6         1         1     -0.06175742
         6         8         7         1         1         1      0.09971823
         9         5         1         7         2         1      0.21127214
         9         5         3         5         2         1      0.17759760
         9         5         4         6         1         1     -0.21127214
         9         5         5         3         2         1      0.24699483
         9         5         6         4         1         1     -0.18424566
         9         5         7         1         1         2      0.18424566
         5         9         1         7         2         1      0.18424566
         5         9         3         5         2         1      0.24699483
         5         9         4         6         1         1     -0.18424566
         5         9         5         3         2         1      0.17759760
         5         9         6         4         1         1     -0.21127214
         5         9         7         1         1         2      0.21127214
         9         6         1         7         1         1     -0.15666220
         9         6         1         7         2         1     -0.13573787
         9         6         3         5         2         1     -0.20923965
         9         6         4         6         1         1      0.09185324
         9         6         5         3         2         1     -0.11964823
         9         6         6         4         1         1      0.05786511
         9         6         7         1         1         1     -0.15588026
         9         6         7         1         1         2     -0.17062890
         6         9         1         7         1         1     -0.15588026
         6         9         1         7         2         1     -0.17062890
         6         9         3         5         2         1     -0.11964823
         6         9         4         6         1         1      0.05786511
         6         9         5         3         2         1     -0.20923965
         6         9         6         4         1         1      0.09185324
         6         9         7         1         1         1     -0.15666220
         6         9         7         1         1         2     -0.13573787
        11         2         1         7         2         1     -0.21127214
        11         2         3         5         2         1     -0.17759760
        11         2         4         6         1         1      0.21127214
        11         2         5         3         2         1     -0.24699483
        11         2         6         4         1         1      0.18424566
        11         2         7         1         1         2     -0.18424566
         2        11         1         7         2         1     -0.18424566
         2        11         3         5         2         1     -0.24699483
         2        11         4         6         1         1      0.18424566
         2        11         5         3         2         1     -0.17759760
         2        11         6         4         1         1      0.21127214
         2        11         7         1         1         2     -0.21127214
        11         3         1         7         1         1      0.15666220
        11         3         1         7         2         1      0.09185324
        11         3         3         5         2         1      0.20923965
        11         3         4         6         1         1     -0.13573787
        11         3         5         3         2         1      0.11964823
        11         3         6         4         1         1     -0.17062890
        11         3         7         1         1         1      0.15588026
        11         3         7         1         1         2      0.05786511
         3        11         1         7         1         1      0.15588026
         3        11         1         7         2         1      0.05786511
         3        11         3         5         2         1      0.11964823
         3        11         4         6         1         1     -0.17062890
         3        11         5         3         2         1      0.20923965
         3        11         6         4         1         1     -0.13573787
         3        11         7         1         1         1      0.15666220
         3        11         7         1         1         2      0.09185324
         1        11         4         5         1         1     -0.05836854
         1        11         6         3         1         1     -0.05836854
         1        11         7         2         1         1     -0.05836854

 ?ERROR: NO CONVERGENCE. TRIPLES WILL NOT BE DONE. THIS CAN BE AVOIDED USING THE NOCHECK OPTION.

 Spin contamination <S**2-Sz**2-Sz>     0.00000000


 RESULTS
 =======

  Reference energy                   -170.878889076367
   --><property name="energy" method="Reference" stateSymmetry="1" stateNumber="1"
     value="-170.878889076367"/><!--
  RCCSD singles energy                 -0.002440361447
   --><property name="energy" method="RCCSD singles" stateSymmetry="1" stateNumber="1"
     value="-0.244036144704873E-02"/><!--
  RCCSD pair energy                    -2.732254106495
   --><property name="energy" method="RCCSD pair" stateSymmetry="1" stateNumber="1"
     value="-2.7322541064951"/><!--
  RCCSD correlation energy             -2.734694467942
   --><property name="energy" method="RCCSD correlation" stateSymmetry="1" stateNumber="1"
     value="-2.73469446794214"/><!--

 !RHF-RCCSD energy                   -173.613583544309
   --><property name="energy" method="RHF-RCCSD" principal="true" stateSymmetry="1"
     stateNumber="1" value="-173.613583544309"/><!--

 Program statistics:

 Available memory in ccsd:               999998822
 Min. memory needed in ccsd:               9154333
 Max. memory used in ccsd:                12911109
 Max. memory used in cckext:              10012577 ( 9 integral passes)
 Max. memory used in cckint:              36423462 ( 1 integral passes)


 ? Error
 ? No convergence. This error exit can be avoided using the NOCHECK option
 ? The problem occurs in ccsd
   --><error type="Error" location="ccsd"
     message="No convergence. This error exit can be avoided using the NOCHECK option"/><!--
  --></jobstep><!--
  -->
  <input>
  <!--
 --></job><!--
--></molpro>
