<?xml version="1.0"?>
<molpro xmlns="http://www.molpro.net/schema/molpro-output"
  xmlns:xsd="http://www.w3.org/1999/XMLSchema"
  xmlns:cml="http://www.xml-cml.org/schema"
  xmlns:stm="http://www.xml-cml.org/schema"
  xmlns:xhtml="http://www.w3.org/1999/xhtml">
 <!--

 Nodes     nprocs
 nid00740    11
 Number of processes for MPI-2 version of Molpro:   nprocs(total)=   12   nprocs(compute)=   11   nprocs(helper)=    1

 Using customized tuning parameters: mindgm=7; mindgv=16; mindgc=1; mindgr=1; noblas=0; minvec=7
 default implementation of scratch files=sf

 --><job>
  <!--

 Variables initialized (889), CPU time= 0.02 sec
 Commands  initialized (702), CPU time= 0.01 sec, 572 directives.
 Default parameters read. Elapsed time= 0.24 sec

 Checking input...
 Passed
1


                                         ***  PROGRAM SYSTEM MOLPRO  ***
                                       Copyright, TTI GmbH Stuttgart, 2015
                                    Version 2015.1 linked Dec 29 2018 15:55:43


 **********************************************************************************************************************************
 LABEL *   Calculation for Y atom, singlet and triplet
  64 bit mpp version                                                                     DATE: 25-Sep-22          TIME: 09:52:05
 **********************************************************************************************************************************

 SHA1:             19cd028119e0e09f93f0674bd8af7968d9b3eff6
 **********************************************************************************************************************************
  -->
  <!--

 THRESHOLDS:

 ZERO    =  1.00D-12  ONEINT  =  1.00D-12  TWOINT  =  1.00D-15  PREFAC  =  1.00D-14  LOCALI  =  1.00D-09  EORDER  =  1.00D-04
 ENERGY  =  0.00D+00  ETEST   =  0.00D+00  EDENS   =  0.00D+00  THRDEDEF=  1.00D-06  GRADIENT=  1.00D-02  STEP    =  1.00D-03
 ORBITAL =  1.00D-05  CIVEC   =  1.00D-05  COEFF   =  1.00D-04  PRINTCI =  5.00D-02  PUNCHCI =  9.90D+01  OPTGRAD =  3.00D-04
 OPTENERG=  1.00D-06  OPTSTEP =  3.00D-04  THRGRAD =  1.00D-10  COMPRESS=  1.00D-11  VARMIN  =  1.00D-07  VARMAX  =  1.00D-03
 THRDOUB =  0.00D+00  THRDIV  =  1.00D-05  THRRED  =  1.00D-07  THRPSP  =  1.00D+00  THRDC   =  1.00D-10  THRCS   =  1.00D-10
 THRNRM  =  1.00D-08  THREQ   =  0.00D+00  THRDE   =  1.00D+00  THRREF  =  1.00D-05  SPARFAC =  1.00D+00  THRDLP  =  1.00D-07
 THRDIA  =  1.00D-10  THRDLS  =  1.00D-07  THRGPS  =  0.00D+00  THRKEX  =  0.00D+00  THRDIS  =  2.00D-01  THRVAR  =  1.00D-10
 THRLOC  =  1.00D-06  THRGAP  =  1.00D-06  THRLOCT = -1.00D+00  THRGAPT = -1.00D+00  THRORB  =  1.00D-06  THRMLTP =  0.00D+00
 THRCPQCI=  1.00D-10  KEXTA   =  0.00D+00  THRCOARS=  0.00D+00  SYMTOL  =  1.00D-06  GRADTOL =  1.00D-06  THROVL  =  1.00D-08
 THRORTH =  1.00D-08  GRID    =  1.00D-06  GRIDMAX =  1.00D-03  DTMAX   =  0.00D+00  THROCCDE=  1.00D-01  THROCCDE=  1.00D-01



 THRESHOLDS:

 ZERO    =  1.00D-12  ONEINT  =  1.00D-12  TWOINT  =  1.00D-15  PREFAC  =  1.00D-14  LOCALI  =  1.00D-09  EORDER  =  1.00D-04
 ENERGY  =  0.00D+00  ETEST   =  0.00D+00  EDENS   =  0.00D+00  THRDEDEF=  1.00D-06  GRADIENT=  1.00D-02  STEP    =  1.00D-03
 ORBITAL =  1.00D-05  CIVEC   =  1.00D-05  COEFF   =  1.00D-04  PRINTCI =  5.00D-02  PUNCHCI =  9.90D+01  OPTGRAD =  3.00D-04
 OPTENERG=  1.00D-06  OPTSTEP =  3.00D-04  THRGRAD =  1.00D-10  COMPRESS=  1.00D-11  VARMIN  =  1.00D-07  VARMAX  =  1.00D-03
 THRDOUB =  0.00D+00  THRDIV  =  1.00D-05  THRRED  =  1.00D-07  THRPSP  =  1.00D+00  THRDC   =  1.00D-10  THRCS   =  1.00D-10
 THRNRM  =  1.00D-08  THREQ   =  0.00D+00  THRDE   =  1.00D+00  THRREF  =  1.00D-05  SPARFAC =  1.00D+00  THRDLP  =  1.00D-07
 THRDIA  =  1.00D-10  THRDLS  =  1.00D-07  THRGPS  =  0.00D+00  THRKEX  =  0.00D+00  THRDIS  =  2.00D-01  THRVAR  =  1.00D-10
 THRLOC  =  1.00D-06  THRGAP  =  1.00D-06  THRLOCT = -1.00D+00  THRGAPT = -1.00D+00  THRORB  =  1.00D-06  THRMLTP =  0.00D+00
 THRCPQCI=  1.00D-10  KEXTA   =  0.00D+00  THRCOARS=  0.00D+00  SYMTOL  =  1.00D-06  GRADTOL =  1.00D-06  THROVL  =  1.00D-15
 THRORTH =  1.00D-08  GRID    =  1.00D-06  GRIDMAX =  1.00D-03  DTMAX   =  0.00D+00  THROCCDE=  1.00D-01  THROCCDE=  1.00D-01



 Variable memory set to 1000000000 words,  buffer space   230000 words

 SETTING BASIS          =    USERDEF
 SETTING RH_CCSD        =      -109.94692643
 SETTING H_CCSD         =        -0.49982987
 SETTING NE             =        18.00000000
 SETTING SYMM           =         1.00000000
 SETTING SS             =         2.00000000
 SETTING A1             =         5.00000000
 SETTING B1             =         2.00000000
 SETTING B2             =         2.00000000
 SETTING A2             =         1.00000000

Geometry recognized as XYZ

  --><jobstep command="RHF-SCF" commandset="SCFPRO">
   <!--


 Recomputing integrals since basis changed


 Using spherical harmonics



 PROGRAM * SEWARD (Integral evaluation for generally contracted gaussian basis sets)     Author: Roland Lindh, 1990

 Geometry written to block  1 of record 700


 Point group  C2v


   --><cml:molecule>
    <cml:symmetry pointGroup="C2v"/>
    <cml:atomArray>
     <cml:atom id="a1" elementType="Rh" x3="0.0" y3="0.0" z3="0.0"/>
     <cml:atom id="a2" elementType="H" x3="0.0" y3="0.0" z3="2.3"/>
    </cml:atomArray>
    <cml:bondArray>
     <cml:bond atomRefs2="a1 a2"/>
    </cml:bondArray>
   </cml:molecule><!--

 ATOMIC COORDINATES

 NR  ATOM    CHARGE       X              Y              Z

   1  RH     17.00    0.000000000    0.000000000    0.000000000
   2  H       1.00    0.000000000    0.000000000    4.346370086

 Bond lengths in Bohr (Angstrom)

 1-2  4.346370086
     ( 2.300000000)

 NUCLEAR CHARGE:                   18
 NUMBER OF PRIMITIVE AOS:         337
 NUMBER OF SYMMETRY AOS:          284
 NUMBER OF CONTRACTIONS:          284   ( 125A1  +  64B1  +  64B2  +  31A2  )
 NUMBER OF CORE ORBITALS:           4   (   2A1  +   1B1  +   1B2  +   0A2  )
 NUMBER OF VALENCE ORBITALS:        7   (   4A1  +   1B1  +   1B2  +   1A2  )


 NUCLEAR REPULSION ENERGY    3.91130982

 EXTRA SYMMETRY OF AOS IN SYMMETRY 1:   1 1 1 1 1 1 1 1 1 1   1 1 1 1 1 1 1 1 1 1   1 1 1 1 1 1 1 1 1 1   1 1 1 1 1 1 1 1 1 1
                                        1 1 1 1 1 1 1 1 1 1   1 1 1 1 1 1 1 1 2 1   2 1 2 1 2 1 2 1 2 1   2 1 2 1 2 1 2 1 2 1
                                        2 1 2 1 2 1 2 1 2 1   2 1 2 1 2 1 2 1 2 1   2 1 2 1 3 2 1 3 2 1   3 2 1 1 1 1 1 1 1 1
                                        1 1 2 1 2
 EXTRA SYMMETRY OF AOS IN SYMMETRY 2:   1 1 1 1 1 1 1 1 1 1   1 1 1 1 1 1 1 1 1 1   1 1 1 1 1 1 1 1 1 1   1 1 1 1 1 1 1 1 1 1
                                        1 1 1 1 2 1 2 1 2 1   2 1 2 1 2 1 2 1 2 1   1 1 1 1
 EXTRA SYMMETRY OF AOS IN SYMMETRY 3:   1 1 1 1 1 1 1 1 1 1   1 1 1 1 1 1 1 1 1 1   1 1 1 1 1 1 1 1 1 1   1 1 1 1 1 1 1 1 1 1
                                        1 1 1 1 2 1 2 1 2 1   2 1 2 1 2 1 2 1 2 1   1 1 1 1
 EXTRA SYMMETRY OF AOS IN SYMMETRY 4:   1 1 1 1 1 1 1 1 1 1   1 1 1 1 1 1 1 1 1 1   1 1 1 1 2 1 2 1 2 1   1

 Eigenvalues of metric

         1 0.116E-07 0.866E-06 0.875E-06 0.270E-05 0.276E-05 0.433E-05 0.606E-05 0.192E-04
         2 0.883E-06 0.275E-05 0.615E-05 0.330E-04 0.490E-04 0.538E-03 0.683E-03 0.159E-02
         3 0.883E-06 0.275E-05 0.615E-05 0.330E-04 0.490E-04 0.538E-03 0.683E-03 0.159E-02
         4 0.276E-05 0.493E-04 0.686E-03 0.164E-02 0.452E-02 0.127E-01 0.271E-01 0.556E-01


 Contracted 2-electron integrals neglected if value below      1.0D-15
 AO integral compression algorithm  1   Integral accuracy      1.0D-15

     974.651 MB (compressed) written to integral file ( 52.9%)

     Node minimum: 38.797 MB, node maximum: 239.600 MB


 NUMBER OF SORTED TWO-ELECTRON INTEGRALS:   19279720.     BUFFER LENGTH:  32768
 NUMBER OF SEGMENTS:   2  SEGMENT LENGTH:   15991720      RECORD LENGTH: 524288

 Memory used in sort:      16.55 MW

 SORT1 READ   230097281. AND WROTE     8293272. INTEGRALS IN     25 RECORDS. CPU TIME:     3.37 SEC, REAL TIME:     3.96 SEC
 SORT2 READ    92212545. AND WROTE   212246766. INTEGRALS IN   2673 RECORDS. CPU TIME:     0.34 SEC, REAL TIME:     0.59 SEC

 Node minimum:    19276303.  Node maximum:    19391137. integrals

 OPERATOR DM      FOR CENTER  0  COORDINATES:    0.000000    0.000000    0.000000


 **********************************************************************************************************************************
 DATASETS  * FILE   NREC   LENGTH (MB)   RECORD NAMES
              1      19       20.99       500      610      700      900      950      970     1000      129      960     1100
                                          VAR    BASINP    GEOM    SYMINP    ZMAT    AOBASIS   BASIS     P2S    ABASIS      S
                                         1400     1410     1420     1200     1210     1080     1600     1650     1700
                                           T        V       ECP      H0       H01     AOSYM     SMH    MOLCAS    OPER

 PROGRAMS   *        TOTAL       INT
 CPU TIMES  *        43.30     42.79
 REAL TIME  *        44.97 SEC
 DISK USED  *         2.13 GB
 GA USED    *         0.00 MB       (max)       0.00 MB       (current)
 **********************************************************************************************************************************


 PROGRAM * RHF-SCF (OPEN SHELL)       Authors: W. Meyer, H.-J. Werner


 NUMBER OF ELECTRONS:      10+    8-    SPACE SYMMETRY=1    SPIN SYMMETRY: Triplet
 CONVERGENCE THRESHOLDS:    1.00E-05 (Density)    1.00E-07 (Energy)
 MAX. NUMBER OF ITERATIONS:      200
 INTERPOLATION TYPE:            DIIS
 INTERPOLATION STEPS:              2 (START)      1 (STEP)
 LEVEL SHIFTS:                 -0.60 (CLOSED) -0.30 (OPEN)

 Number of closed-shell orbitals:    8 (   3   2   2   1 )
 Number of open-shell orbitals:      2 (   2   0   0   0 )


 Orbital guess generated from atomic densities. Full valence occupancy:    6   2   2   1

 Molecular orbital dump at record        2100.2

 ITERATION    DDIFF          GRAD             ENERGY        2-EL.EN.            DIPOLE MOMENTS         DIIS   ORB.
    1      0.000D+00      0.000D+00      -109.72350200    179.925574    0.00000    0.00000   -0.64473    0    start
    2      0.000D+00      0.471D-02      -109.74097287    177.454096    0.00000    0.00000   -1.08585    1    diag,B
    3      0.211D-02      0.207D-02      -109.74715304    177.838058    0.00000    0.00000   -1.23662    2    diag,B
    4      0.653D-03      0.970D-03      -109.75369698    177.356929    0.00000    0.00000   -1.48179    3    diag,B
    5      0.424D-03      0.954D-03      -109.76125982    176.979201    0.00000    0.00000   -1.72237    4    diag,B
    6      0.538D-03      0.950D-03      -109.76426641    176.832935    0.00000    0.00000   -1.80234    5    diag,B
    7      0.213D-03      0.967D-03      -109.74367337    177.897718    0.00000    0.00000   -1.16068    6    diag,B
    8      0.183D-02      0.820D-03      -109.73953010    178.289858    0.00000    0.00000   -0.94509    7    diag,B
    9      0.611D-03      0.661D-03      -109.73733963    178.956241    0.00000    0.00000   -0.74498    8    diag,B
   10      0.642D-03      0.360D-03      -109.73644344    178.994918    0.00000    0.00000   -0.64478    9    orth
   11      0.503D-03      0.205D-03      -109.73522025    179.019114    0.00000    0.00000   -0.52172    9    diag,B
   12      0.534D-03      0.452D-03      -109.73510986    179.022663    0.00000    0.00000   -0.51132    9    diag,B
   13      0.457D-04      0.475D-03      -109.73546442    179.003079    0.00000    0.00000   -0.54590    9    diag,B
   14      0.151D-03      0.413D-03      -109.73547996    178.986126    0.00000    0.00000   -0.55009    9    diag,B
   15      0.298D-04      0.434D-03      -109.73571683    178.981531    0.00000    0.00000   -0.57335    9    diag,B
   16      0.936D-04      0.377D-03      -109.73610138    178.994514    0.00000    0.00000   -0.60813    9    diag,B
   17      0.157D-03      0.266D-03      -109.73621910    179.009036    0.00000    0.00000   -0.61965    9    diag,B
   18      0.646D-04      0.219D-03      -109.73688354    178.911101    0.00000    0.00000   -0.69737    9    diag,B
   19      0.221D-03      0.216D-03      -109.73597874    179.098631    0.00000    0.00000   -0.58593    9    fixocc
   20      0.322D-03      0.166D-03      -109.73512207    179.268198    0.00000    0.00000   -0.44701    9    orth
   21      0.425D-03      0.169D-03      -109.73499604    179.304501    0.00000    0.00000   -0.42084    9    diag,B
   22      0.786D-04      0.165D-03      -109.73481417    179.342629    0.00000    0.00000   -0.39324    9    diag,B
   23      0.931D-04      0.171D-03      -109.73512153    179.272692    0.00000    0.00000   -0.43124    9    diag,B
   24      0.194D-03      0.172D-03      -109.73505858    179.278907    0.00000    0.00000   -0.42071    9    diag,B
   25      0.917D-04      0.182D-03      -109.73515515    179.243201    0.00000    0.00000   -0.44032    9    diag,B
   26      0.832D-04      0.198D-03      -109.73476403    179.370913    0.00000    0.00000   -0.35473    9    diag,B
   27      0.331D-03      0.172D-03      -109.73426238    179.493341    0.00000    0.00000   -0.25888    9    diag,B
   28      0.453D-03      0.159D-03      -109.73464522    179.421732    0.00000    0.00000   -0.32450    9    diag,B
   29      0.309D-03      0.147D-03      -109.73628373    178.930755    0.00000    0.00000   -0.64421    9    diag,B
   30      0.100D-02      0.300D-03      -109.73364661    179.412314    0.00000    0.00000   -0.21730    9    orth
   31      0.156D-02      0.386D-03      -109.73357534    179.417802    0.00000    0.00000   -0.21099    9    diag,B
   32      0.460D-04      0.390D-03      -109.73525893    179.240877    0.00000    0.00000   -0.44546    9    diag,B
   33      0.982D-03      0.167D-03      -109.73638407    178.916094    0.00000    0.00000   -0.64793    9    diag,B
   34      0.599D-03      0.297D-03      -109.73502290    179.252607    0.00000    0.00000   -0.41176    9    diag,B
   35      0.720D-03      0.226D-03      -109.73520114    179.211302    0.00000    0.00000   -0.44531    9    diag,B
   36      0.123D-03      0.223D-03      -109.73662203    178.847829    0.00000    0.00000   -0.68574    9    diag,B
   37      0.714D-03      0.339D-03      -109.73508654    179.234095    0.00000    0.00000   -0.42508    9    diag,B
   38      0.787D-03      0.229D-03      -109.73511781    179.227679    0.00000    0.00000   -0.43006    9    diag,B
   39      0.292D-04      0.228D-03      -109.73688354    178.793574    0.00000    0.00000   -0.71714    9    diag,B
   40      0.860D-03      0.361D-03      -109.73515887    179.210614    0.00000    0.00000   -0.44135    9    orth
   41      0.833D-03      0.236D-03      -109.73511871    179.224162    0.00000    0.00000   -0.43156    9    diag,B
   42      0.290D-04      0.232D-03      -109.73613844    178.979877    0.00000    0.00000   -0.60696    9    diag,B
   43      0.569D-03      0.272D-03      -109.73504127    179.247751    0.00000    0.00000   -0.41686    9    diag,B
   44      0.636D-03      0.226D-03      -109.73503028    179.251026    0.00000    0.00000   -0.41343    9    diag,B
   45      0.225D-04      0.225D-03      -109.73735908    178.696849    0.00000    0.00000   -0.77043    9    diag,B
   46      0.110D-02      0.406D-03      -109.73526008    179.176253    0.00000    0.00000   -0.46381    9    diag,B
   47      0.930D-03      0.248D-03      -109.73515399    179.209840    0.00000    0.00000   -0.44082    9    diag,B
   48      0.758D-04      0.239D-03      -109.73458027    179.361571    0.00000    0.00000   -0.31998    9    diag,B
   49      0.428D-03      0.230D-03      -109.73548824    179.163814    0.00000    0.00000   -0.49148    9    diag,B
   50      0.619D-03      0.202D-03      -109.73627825    178.896943    0.00000    0.00000   -0.65065    9    orth
   51      0.449D-03      0.336D-03      -109.73494449    179.268072    0.00000    0.00000   -0.39816    9    diag,B
   52      0.770D-03      0.230D-03      -109.73487389    179.302769    0.00000    0.00000   -0.37366    9    diag,B
   53      0.819D-04      0.213D-03      -109.73860658    178.446065    0.00000    0.00000   -0.90659    9    diag,B
   54      0.155D-02      0.550D-03      -109.73612903    178.914760    0.00000    0.00000   -0.63130    9    diag,B
   55      0.794D-03      0.350D-03      -109.73501310    179.253003    0.00000    0.00000   -0.40842    9    diag,B
   56      0.653D-03      0.230D-03      -109.73532875    179.179001    0.00000    0.00000   -0.47072    9    diag,B
   57      0.197D-03      0.226D-03      -109.73525926    179.202591    0.00000    0.00000   -0.45683    9    diag,B
   58      0.539D-04      0.214D-03      -109.73529060    179.193465    0.00000    0.00000   -0.46338    9    diag,B
   59      0.201D-04      0.216D-03      -109.73498124    179.300240    0.00000    0.00000   -0.38967    9    diag,B
   60      0.238D-03      0.183D-03      -109.73684254    178.786385    0.00000    0.00000   -0.71771    9    orth
   61      0.957D-03      0.376D-03      -109.73534427    179.148097    0.00000    0.00000   -0.48258    9    diag,B
   62      0.677D-03      0.256D-03      -109.73492438    179.277276    0.00000    0.00000   -0.39056    9    diag,B
   63      0.310D-03      0.227D-03      -109.73606159    178.997302    0.00000    0.00000   -0.59817    9    diag,B
   64      0.651D-03      0.268D-03      -109.73539358    179.149764    0.00000    0.00000   -0.48711    9    diag,B
   65      0.340D-03      0.240D-03      -109.73483465    179.302411    0.00000    0.00000   -0.37163    9    diag,B
   66      0.392D-03      0.223D-03      -109.73566284    179.111276    0.00000    0.00000   -0.52804    9    diag,B
   67      0.523D-03      0.222D-03      -109.73633078    178.896564    0.00000    0.00000   -0.64766    9    diag,B
   68      0.385D-03      0.328D-03      -109.73489553    179.281620    0.00000    0.00000   -0.38577    9    diag,B
   69      0.830D-03      0.230D-03      -109.73499306    179.270697    0.00000    0.00000   -0.40278    9    diag,B
   70      0.847D-04      0.215D-03      -109.73802745    178.551676    0.00000    0.00000   -0.84676    9    orth
   71      0.134D-02      0.489D-03      -109.73550888    179.094265    0.00000    0.00000   -0.51605    9    diag,B
   72      0.963D-03      0.277D-03      -109.73510204    179.224710    0.00000    0.00000   -0.43008    9    diag,B
   73      0.292D-03      0.238D-03      -109.73548221    179.149446    0.00000    0.00000   -0.49746    9    diag,B
   74      0.230D-03      0.220D-03      -109.73541155    179.152759    0.00000    0.00000   -0.48748    9    diag,B
   75      0.109D-03      0.229D-03      -109.73489020    179.293933    0.00000    0.00000   -0.38260    9    diag,B
   76      0.386D-03      0.216D-03      -109.73605805    179.003351    0.00000    0.00000   -0.59669    9    diag,B
   77      0.686D-03      0.263D-03      -109.73559129    179.093816    0.00000    0.00000   -0.52320    9    diag,B
   78      0.232D-03      0.254D-03      -109.73488162    179.288805    0.00000    0.00000   -0.38221    9    diag,B
   79      0.491D-03      0.226D-03      -109.73526772    179.215398    0.00000    0.00000   -0.45566    9    diag,B
   80      0.257D-03      0.202D-03      -109.73763634    178.621270    0.00000    0.00000   -0.80535    9    orth
   81      0.107D-02      0.452D-03      -109.73517152    179.194044    0.00000    0.00000   -0.44737    9    diag,B
   82      0.109D-02      0.252D-03      -109.73519234    179.198858    0.00000    0.00000   -0.44969    9    diag,B
   83      0.531D-04      0.242D-03      -109.73618930    178.956787    0.00000    0.00000   -0.61819    9    diag,B
   84      0.555D-03      0.287D-03      -109.73498143    179.266224    0.00000    0.00000   -0.40243    9    diag,B
   85      0.701D-03      0.222D-03      -109.73501128    179.258324    0.00000    0.00000   -0.40972    9    diag,B
   86      0.298D-04      0.224D-03      -109.73772007    178.616034    0.00000    0.00000   -0.81106    9    diag,B
   87      0.124D-02      0.450D-03      -109.73536975    179.140405    0.00000    0.00000   -0.48693    9    diag,B
   88      0.975D-03      0.260D-03      -109.73513656    179.215072    0.00000    0.00000   -0.43763    9    diag,B
   89      0.172D-03      0.239D-03      -109.73527341    179.210544    0.00000    0.00000   -0.45609    9    diag,B
   90      0.881D-04      0.205D-03      -109.73641148    178.892562    0.00000    0.00000   -0.65272    9    orth
   91      0.643D-03      0.318D-03      -109.73494847    179.265565    0.00000    0.00000   -0.39867    9    diag,B
   92      0.831D-03      0.233D-03      -109.73503919    179.251312    0.00000    0.00000   -0.41546    9    diag,B
   93      0.690D-04      0.225D-03      -109.73746048    178.667309    0.00000    0.00000   -0.78223    9    diag,B
   94      0.115D-02      0.423D-03      -109.73525812    179.172277    0.00000    0.00000   -0.46458    9    diag,B
   95      0.972D-03      0.253D-03      -109.73512592    179.216935    0.00000    0.00000   -0.43605    9    diag,B
   96      0.112D-03      0.240D-03      -109.73588035    179.045009    0.00000    0.00000   -0.56769    9    diag,B
   97      0.437D-03      0.249D-03      -109.73503273    179.253485    0.00000    0.00000   -0.41195    9    diag,B
   98      0.494D-03      0.219D-03      -109.73496497    179.270550    0.00000    0.00000   -0.39963    9    diag,B
   99      0.773D-04      0.222D-03      -109.73759054    178.648896    0.00000    0.00000   -0.79563    9    diag,B
  100      0.122D-02      0.430D-03      -109.73532045    179.155206    0.00000    0.00000   -0.47713    9    orth
  101      0.965D-03      0.256D-03      -109.73516051    179.206872    0.00000    0.00000   -0.44259    9    diag,B
  102      0.114D-03      0.241D-03      -109.73454966    179.364379    0.00000    0.00000   -0.31667    9    diag,B
  103      0.459D-03      0.237D-03      -109.73544773    179.175787    0.00000    0.00000   -0.48483    9    diag,B
  104      0.617D-03      0.200D-03      -109.73654005    178.829992    0.00000    0.00000   -0.68398    9    diag,B
  105      0.618D-03      0.361D-03      -109.73497499    179.256969    0.00000    0.00000   -0.40483    9    diag,B
  106      0.883D-03      0.235D-03      -109.73505376    179.252286    0.00000    0.00000   -0.41511    9    diag,B
  107      0.101D-03      0.221D-03      -109.73738582    178.676057    0.00000    0.00000   -0.77727    9    diag,B
  108      0.111D-02      0.422D-03      -109.73532646    179.151948    0.00000    0.00000   -0.47933    9    diag,B
  109      0.902D-03      0.257D-03      -109.73506062    179.236582    0.00000    0.00000   -0.42163    9    diag,B
  110      0.205D-03      0.236D-03      -109.73572487    179.088221    0.00000    0.00000   -0.53986    9    orth
  111      0.398D-03      0.233D-03      -109.73517049    179.214617    0.00000    0.00000   -0.44175    9    diag,B
  112      0.342D-03      0.223D-03      -109.73491104    179.284609    0.00000    0.00000   -0.38863    9    diag,B
  113      0.223D-03      0.221D-03      -109.73702042    178.773087    0.00000    0.00000   -0.72910    9    diag,B
  114      0.107D-02      0.365D-03      -109.73526194    179.175021    0.00000    0.00000   -0.46397    9    diag,B
  115      0.828D-03      0.248D-03      -109.73510502    179.222612    0.00000    0.00000   -0.43089    9    diag,B
  116      0.123D-03      0.238D-03      -109.73517849    179.239521    0.00000    0.00000   -0.43830    9    diag,B
  117      0.285D-03      0.195D-03      -109.73671499    178.826226    0.00000    0.00000   -0.69582    9    diag,B
  118      0.926D-03      0.347D-03      -109.73520321    179.196258    0.00000    0.00000   -0.45130    9    diag,B
  119      0.806D-03      0.240D-03      -109.73525614    179.188243    0.00000    0.00000   -0.46051    9    diag,B
  120      0.591D-04      0.235D-03      -109.73596735    179.004593    0.00000    0.00000   -0.58762    9    orth
  121      0.619D-03      0.269D-03      -109.73552388    179.126866    0.00000    0.00000   -0.50884    9    diag,B
  122      0.463D-03      0.237D-03      -109.73528423    179.192687    0.00000    0.00000   -0.46203    9    diag,B
  123      0.163D-03      0.219D-03      -109.73537458    179.169955    0.00000    0.00000   -0.47933    9    diag,B
  124      0.594D-04      0.222D-03      -109.73481183    179.319801    0.00000    0.00000   -0.36438    9    diag,B
  125      0.384D-03      0.210D-03      -109.73470081    179.343987    0.00000    0.00000   -0.34233    9    diag,B
  126      0.103D-03      0.215D-03      -109.73871109    178.427445    0.00000    0.00000   -0.91371    9    diag,B
  127      0.173D-02      0.555D-03      -109.73602353    178.945122    0.00000    0.00000   -0.61102    9    diag,B
  128      0.893D-03      0.335D-03      -109.73493932    179.282551    0.00000    0.00000   -0.39065    9    diag,B
  129      0.675D-03      0.217D-03      -109.73506852    179.246428    0.00000    0.00000   -0.41846    9    diag,B
  130      0.921D-04      0.221D-03      -109.73453149    179.385064    0.00000    0.00000   -0.30622    9    orth
  131      0.391D-03      0.214D-03      -109.73572273    179.097225    0.00000    0.00000   -0.53616    9    diag,B
  132      0.794D-03      0.221D-03      -109.73611666    178.933772    0.00000    0.00000   -0.62874    9    diag,B
  133      0.457D-03      0.325D-03      -109.73493170    179.276707    0.00000    0.00000   -0.39300    9    diag,B
  134      0.726D-03      0.225D-03      -109.73523923    179.207553    0.00000    0.00000   -0.44975    9    diag,B
  135      0.408D-03      0.213D-03      -109.73731675    178.690071    0.00000    0.00000   -0.77652    9    diag,B
  136      0.104D-02      0.421D-03      -109.73546568    179.119039    0.00000    0.00000   -0.50557    9    diag,B
  137      0.805D-03      0.260D-03      -109.73530350    179.175522    0.00000    0.00000   -0.46836    9    diag,B
  138      0.248D-03      0.235D-03      -109.73563547    179.101009    0.00000    0.00000   -0.52840    9    diag,B
  139      0.299D-03      0.238D-03      -109.73511946    179.237075    0.00000    0.00000   -0.42940    9    diag,B
  140      0.321D-03      0.216D-03      -109.73501156    179.264881    0.00000    0.00000   -0.40737    9    orth
  141      0.264D-03      0.210D-03      -109.73682101    178.807906    0.00000    0.00000   -0.70748    9    diag,B
  142      0.904D-03      0.351D-03      -109.73508576    179.225017    0.00000    0.00000   -0.42874    9    diag,B
  143      0.895D-03      0.240D-03      -109.73510066    179.224657    0.00000    0.00000   -0.42968    9    diag,B
  144      0.159D-03      0.237D-03      -109.73667428    178.843464    0.00000    0.00000   -0.68904    9    diag,B
  145      0.808D-03      0.335D-03      -109.73514346    179.217991    0.00000    0.00000   -0.43718    9    diag,B
  146      0.804D-03      0.231D-03      -109.73514104    179.218907    0.00000    0.00000   -0.43646    9    diag,B
  147      0.929D-04      0.232D-03      -109.73665501    178.846643    0.00000    0.00000   -0.68685    9    diag,B
  148      0.775D-03      0.335D-03      -109.73515345    179.214674    0.00000    0.00000   -0.43939    9    diag,B
  149      0.784D-03      0.232D-03      -109.73514645    179.217410    0.00000    0.00000   -0.43755    9    diag,B
  150      0.768D-04      0.232D-03      -109.73659152    178.861903    0.00000    0.00000   -0.67775    9    orth
  151      0.734D-03      0.328D-03      -109.73508142    179.234600    0.00000    0.00000   -0.42425    9    diag,B
  152      0.784D-03      0.230D-03      -109.73510419    179.228417    0.00000    0.00000   -0.42894    9    diag,B
  153      0.307D-04      0.231D-03      -109.73602777    178.996697    0.00000    0.00000   -0.59803    9    diag,B
  154      0.683D-03      0.265D-03      -109.73572279    179.066074    0.00000    0.00000   -0.54959    9    diag,B
  155      0.746D-03      0.257D-03      -109.73545280    179.141698    0.00000    0.00000   -0.49608    9    diag,B
  156      0.296D-03      0.238D-03      -109.73597768    179.002304    0.00000    0.00000   -0.58984    9    diag,B
  157      0.414D-03      0.274D-03      -109.73508661    179.234974    0.00000    0.00000   -0.42665    9    diag,B
  158      0.723D-03      0.225D-03      -109.73514687    179.220683    0.00000    0.00000   -0.43784    9    diag,B
  159      0.670D-04      0.226D-03      -109.73516153    179.228522    0.00000    0.00000   -0.43741    9    diag,B
  160      0.615D-04      0.206D-03      -109.73628227    178.932153    0.00000    0.00000   -0.64104    9    orth
  161      0.106D-02      0.301D-03      -109.73526618    179.190579    0.00000    0.00000   -0.46031    9    diag,B
  162      0.888D-03      0.244D-03      -109.73606819    178.972255    0.00000    0.00000   -0.60531    9    diag,B
  163      0.539D-03      0.292D-03      -109.73516804    179.207306    0.00000    0.00000   -0.44482    9    diag,B
  164      0.805D-03      0.237D-03      -109.73551840    179.113655    0.00000    0.00000   -0.51343    9    diag,B
  165      0.228D-03      0.249D-03      -109.73478207    179.312465    0.00000    0.00000   -0.36153    9    diag,B
  166      0.724D-03      0.229D-03      -109.73586499    179.032412    0.00000    0.00000   -0.57239    9    diag,B
  167      0.732D-03      0.264D-03      -109.73566088    179.081477    0.00000    0.00000   -0.53867    9    diag,B
  168      0.690D-03      0.251D-03      -109.73566560    179.084645    0.00000    0.00000   -0.53533    9    diag,B
  169      0.327D-03      0.252D-03      -109.73532089    179.178369    0.00000    0.00000   -0.47148    9    diag,B
  170      0.283D-03      0.223D-03      -109.73526349    179.198211    0.00000    0.00000   -0.45901    9    orth
  171      0.436D-03      0.218D-03      -109.73532885    179.194033    0.00000    0.00000   -0.46717    9    diag,B
  172      0.237D-03      0.214D-03      -109.73612950    178.964653    0.00000    0.00000   -0.61796    9    diag,B
  173      0.739D-03      0.287D-03      -109.73582199    179.033894    0.00000    0.00000   -0.56710    9    diag,B
  174      0.900D-03      0.274D-03      -109.73589192    179.019868    0.00000    0.00000   -0.57580    9    diag,B
  175      0.421D-03      0.277D-03      -109.73519027    179.210061    0.00000    0.00000   -0.44586    9    diag,B
  176      0.500D-03      0.223D-03      -109.73533767    179.172900    0.00000    0.00000   -0.47428    9    diag,B
  177      0.318D-03      0.230D-03      -109.73542675    179.162146    0.00000    0.00000   -0.48840    9    diag,B
  178      0.256D-03      0.219D-03      -109.73532737    179.185776    0.00000    0.00000   -0.46988    9    diag,B
  179      0.111D-03      0.217D-03      -109.73559882    179.108366    0.00000    0.00000   -0.52353    9    diag,B
  180      0.367D-03      0.234D-03      -109.73537319    179.170927    0.00000    0.00000   -0.47927    9    orth
  181      0.396D-03      0.223D-03      -109.73538551    179.166869    0.00000    0.00000   -0.48205    9    diag,B
  182      0.196D-04      0.224D-03      -109.73544778    179.150750    0.00000    0.00000   -0.49875    9    diag,B
  183      0.531D-03      0.219D-03      -109.73580474    179.049744    0.00000    0.00000   -0.56129    9    diag,B
  184      0.218D-03      0.254D-03      -109.73493002    179.274528    0.00000    0.00000   -0.39415    9    diag,B
  185      0.738D-03      0.223D-03      -109.73543965    179.144763    0.00000    0.00000   -0.49610    9    diag,B
  186      0.381D-03      0.236D-03      -109.73625417    178.933467    0.00000    0.00000   -0.63495    9    diag,B
  187      0.847D-03      0.300D-03      -109.73571374    179.065479    0.00000    0.00000   -0.54605    9    diag,B
  188      0.654D-03      0.262D-03      -109.73550891    179.124676    0.00000    0.00000   -0.50754    9    diag,B
  189      0.285D-03      0.241D-03      -109.73530151    179.188276    0.00000    0.00000   -0.46544    9    diag,B
  190      0.240D-03      0.221D-03      -109.73528443    179.196373    0.00000    0.00000   -0.46120    9    orth
  191      0.677D-04      0.217D-03      -109.73544754    179.153959    0.00000    0.00000   -0.49323    9    diag,B
  192      0.157D-03      0.221D-03      -109.73515383    179.234202    0.00000    0.00000   -0.43393    9    diag,B
  193      0.258D-03      0.209D-03      -109.73527518    179.200784    0.00000    0.00000   -0.45867    9    diag,B
  194      0.833D-04      0.214D-03      -109.73538635    179.170230    0.00000    0.00000   -0.48249    9    diag,B
  195      0.412D-03      0.212D-03      -109.73584662    179.038735    0.00000    0.00000   -0.56739    9    diag,B
  196      0.391D-03      0.263D-03      -109.73501737    179.259558    0.00000    0.00000   -0.40845    9    diag,B
  197      0.513D-03      0.219D-03      -109.73521359    179.208032    0.00000    0.00000   -0.44879    9    diag,B
  198      0.132D-03      0.222D-03      -109.73484907    179.317312    0.00000    0.00000   -0.36931    9    diag,B
  199      0.270D-03      0.200D-03      -109.73509117    179.383179    0.00000    0.00000   -0.38775    9    orth
  200      0.274D-03      0.148D-03      -109.73536410    179.156673    0.00000    0.00000   -0.48083    0    orth

 Final alpha occupancy:   5   2   2   1
 Final beta  occupancy:   3   2   2   1

 !RHF STATE 1.1 Energy               -109.735364098067
   --><property name="Energy" method="RHF" principal="true" stateSymmetry="1" stateNumber="1"
     value="-109.735364098067"/><!--
 Nuclear energy                         3.91130982
 One-electron energy                 -203.22501022
 Two-electron energy                   89.57833630
 Virial quotient                       -2.68759348
 !RHF STATE 1.1 Dipole moment           0.00000000     0.00000000    -0.48083254
 Dipole moment /Debye                   0.00000000     0.00000000    -1.22207437
   --><property name="Dipole moment" method="RHF" principal="true" stateSymmetry="1"
     stateNumber="1" value="0.0 0.0 -0.48083253950445"/><!--

 ELECTRON ORBITALS
 =================


   Orb  Occ    Energy  Couls-En    Coefficients

                                   1 1s      1 1s      1 1s      1 1s      1 1s      1 1s      1 1s      1 1s      1 1s      1 1s
                                   1 1s      1 1s      1 1s      1 1s      1 1s      1 1s      1 1s      1 1s      1 1s      1 1s
                                   1 1s      1 1s      1 1s      1 1s      1 1s      1 1s      1 1s      1 1s      1 1s      1 1s
                                   1 1s      1 1s      1 2pz     1 2pz     1 2pz     1 2pz     1 2pz     1 2pz     1 2pz     1 2pz
                                   1 2pz     1 2pz     1 2pz     1 2pz     1 2pz     1 2pz     1 2pz     1 2pz     1 2pz     1 2pz
                                   1 2pz     1 2pz     1 2pz     1 2pz     1 2pz     1 2pz     1 2pz     1 3d0     1 3d2+    1 3d0
                                   1 3d2+    1 3d0     1 3d2+    1 3d0     1 3d2+    1 3d0     1 3d2+    1 3d0     1 3d2+    1 3d0
                                   1 3d2+    1 3d0     1 3d2+    1 3d0     1 3d2+    1 3d0     1 3d2+    1 3d0     1 3d2+    1 3d0
                                   1 3d2+    1 3d0     1 3d2+    1 3d0     1 3d2+    1 3d0     1 3d2+    1 3d0     1 3d2+    1 3d0
                                   1 3d2+    1 3d0     1 3d2+    1 4f0     1 4f2+    1 4f0     1 4f2+    1 4f0     1 4f2+    1 4f0
                                   1 4f2+    1 4f0     1 4f2+    1 5g0     1 5g4+    1 5g2+    1 5g0     1 5g4+    1 5g2+    1 5g0
                                   1 5g4+    1 5g2+    2 1s      2 1s      2 1s      2 1s      2 1s      2 1s      2 2pz     2 2pz
                                   2 2pz     2 3d0     2 3d2+    2 3d0     2 3d2+

   1.1   2    -3.6041  -18.6318 -0.000000  0.000000 -0.000000  0.000000 -0.000000  0.000000 -0.000000  0.000000 -0.000001  0.000004
                                -0.000010  0.000033 -0.000116  0.001165 -0.002043  0.001892 -0.002381  0.005921 -0.045138  0.539256
                                -1.064389  1.369337 -1.269359 -0.042423 -0.017708  0.824618  0.499171  0.023740  0.021903 -0.008393
                                 0.003240 -0.000400 -0.000000  0.000000 -0.000000  0.000000 -0.000000  0.000000 -0.000000  0.000000
                                -0.000000  0.000001 -0.000003  0.000057 -0.000083  0.000073 -0.000311  0.000381  0.000011  0.000187
                                -0.000448 -0.000282 -0.000985  0.000105 -0.000545  0.000264  0.000197 -0.000000 -0.000000  0.000000
                                 0.000000 -0.000000 -0.000000  0.000001 -0.000000  0.000001 -0.000000  0.000007  0.000000 -0.000033
                                 0.000000 -0.000045  0.000001  0.000864  0.000006 -0.000961  0.000011 -0.000602 -0.000027 -0.001618
                                 0.000026 -0.001287 -0.000040 -0.000258  0.000093  0.000109  0.000052  0.000348  0.000036 -0.000213
                                 0.000013  0.000229 -0.000001 -0.000076  0.000000  0.000298 -0.000001 -0.000418  0.000001  0.000075
                                -0.000000  0.000002 -0.000000 -0.000060 -0.000192 -0.000004 -0.000188 -0.000496 -0.000010 -0.000144
                                -0.000683 -0.000014 -0.000003 -0.000025 -0.000161 -0.000462 -0.000064 -0.000757 -0.000010 -0.000078
                                -0.000257  0.000056  0.000000  0.000039 -0.000001

   2.1   2    -2.2368  -15.6403 -0.000000  0.000000 -0.000000  0.000000 -0.000000  0.000000 -0.000000  0.000000 -0.000000  0.000000
                                -0.000000  0.000000 -0.000000  0.000001 -0.000002  0.000002 -0.000003  0.000007 -0.000059  0.000712
                                -0.001514  0.002298 -0.002465  0.000093 -0.000261  0.002376  0.001071 -0.002767  0.002704 -0.002748
                                 0.001221  0.000879  0.000000 -0.000000  0.000000 -0.000000  0.000000 -0.000001  0.000000 -0.000023
                                -0.000033 -0.000367 -0.000431 -0.009679  0.011869 -0.017092  0.114546 -0.126101 -0.187572  0.329550
                                 0.037490  0.513011  0.305911  0.047825 -0.004795  0.002752 -0.000046 -0.000000 -0.000000  0.000000
                                -0.000000  0.000000 -0.000000  0.000000 -0.000000  0.000001 -0.000000  0.000004 -0.000000 -0.000020
                                 0.000000 -0.000021  0.000000  0.000234 -0.000003 -0.000441  0.000005 -0.000084 -0.000001 -0.000939
                                 0.000007  0.000513 -0.000003 -0.001980  0.000009 -0.000441  0.000004  0.000345  0.000003 -0.000968
                                 0.000001  0.000632 -0.000000 -0.002628 -0.000096  0.004154  0.000128 -0.007084 -0.000216 -0.001115
                                -0.000055 -0.000165 -0.000023  0.000049 -0.000000 -0.000000 -0.000099 -0.000001 -0.000000  0.000217
                                 0.000001 -0.000000  0.000032  0.000327  0.001176  0.002712  0.002733 -0.001967 -0.000189 -0.000587
                                -0.000736  0.000227  0.000000  0.000061 -0.000000

   3.1   2    -0.3122   -9.3490 -0.000000  0.000000 -0.000000  0.000000 -0.000000  0.000000 -0.000000  0.000000 -0.000000  0.000000
                                -0.000000  0.000000 -0.000001  0.000008 -0.000014  0.000012 -0.000016  0.000048 -0.000230  0.002391
                                -0.002860 -0.001183  0.003497  0.001646 -0.000949 -0.003828 -0.004719 -0.010418  0.010205 -0.008542
                                -0.005607 -0.009400 -0.000000  0.000000 -0.000000  0.000000 -0.000000  0.000000 -0.000000  0.000002
                                -0.000004  0.000024 -0.000056  0.001089 -0.001560  0.001467 -0.007418  0.010296 -0.001268  0.002056
                                -0.012637 -0.007141 -0.012060  0.013001  0.007425 -0.003566 -0.005167 -0.000000  0.000000 -0.000002
                                 0.000000 -0.000013  0.000000 -0.000094  0.000002 -0.000314  0.000005 -0.000714  0.000012  0.004255
                                -0.000071  0.011202 -0.000194 -0.133181  0.002336  0.231576 -0.004073 -0.063804  0.001235  0.315962
                                -0.005503 -0.106159  0.002076  0.404936 -0.007089  0.225798 -0.003764  0.187812 -0.003136  0.088359
                                -0.001576 -0.000688  0.000052  0.000345  0.000001  0.000284 -0.000000  0.000133 -0.000000  0.001113
                                 0.000001  0.002578  0.000006 -0.000714  0.000219 -0.000014 -0.001527  0.000112 -0.000015 -0.001844
                                 0.000709 -0.000010  0.001438  0.015643  0.060974  0.141979  0.106036  0.019238 -0.002256 -0.009128
                                -0.011791  0.000823 -0.000002  0.000772 -0.000006

   4.1   +    -0.4070   -5.6966  0.000000 -0.000000  0.000000 -0.000000  0.000000 -0.000000  0.000000 -0.000000  0.000000 -0.000000
                                 0.000001 -0.000003  0.000010 -0.000101  0.000177 -0.000163  0.000208 -0.000527  0.003884 -0.045146
                                 0.086704 -0.110249  0.114617 -0.020947  0.010982 -0.075442 -0.056784 -0.001818  0.044995  0.036925
                                 0.012541 -0.004231 -0.000000  0.000000 -0.000000  0.000000 -0.000000  0.000000 -0.000000  0.000002
                                -0.000000  0.000034 -0.000004  0.001129 -0.001504  0.001763 -0.011141  0.014437  0.008351 -0.023027
                                -0.002395 -0.038467 -0.022227  0.017013  0.010628  0.005753 -0.001592  0.000000 -0.000000  0.000001
                                -0.000000  0.000006 -0.000000  0.000044 -0.000002  0.000151 -0.000007  0.000332 -0.000016 -0.001996
                                 0.000097 -0.005380  0.000264  0.064704 -0.003168 -0.113033  0.005505  0.033614 -0.001615 -0.153425
                                 0.007487  0.055929 -0.002653 -0.196392  0.009572 -0.104096  0.005071 -0.086803  0.003814 -0.050096
                                 0.001585 -0.000336 -0.000050  0.001167 -0.000003 -0.002508  0.000008  0.003840 -0.000012  0.002902
                                -0.000022  0.002692 -0.000026  0.000428  0.000202 -0.000015  0.001104  0.000589 -0.000035  0.001904
                                 0.001139 -0.000040  0.003665  0.040577  0.168628  0.426541  0.412923  0.027381  0.001167  0.002312
                                -0.005299 -0.000152  0.000004  0.001014  0.000029

   5.1   +    -0.3736  -10.3925 -0.000000  0.000000 -0.000000  0.000000 -0.000000  0.000000 -0.000000  0.000000 -0.000000  0.000000
                                -0.000000  0.000000 -0.000001  0.000005 -0.000009  0.000009 -0.000011  0.000028 -0.000208  0.002389
                                -0.004629  0.006092 -0.006590  0.001288 -0.000558  0.004569  0.003578 -0.000586 -0.003864 -0.005211
                                -0.001523 -0.000063 -0.000000  0.000000 -0.000000  0.000000 -0.000000  0.000000 -0.000000 -0.000000
                                -0.000000 -0.000000 -0.000001  0.000002 -0.000005 -0.000002  0.000058 -0.000062 -0.000190  0.000494
                                -0.000214  0.000595  0.000185 -0.000144  0.000028 -0.000153 -0.000065 -0.000000 -0.000000 -0.000000
                                -0.000003 -0.000000 -0.000015 -0.000002 -0.000105 -0.000008 -0.000361 -0.000018 -0.000797  0.000105
                                 0.004781  0.000279  0.012946 -0.003322 -0.155292  0.005772  0.269718 -0.001633 -0.079078  0.007897
                                 0.367229 -0.002698 -0.129349  0.010156  0.470372  0.005555  0.250768  0.004302  0.181194  0.001832
                                 0.064755 -0.000109 -0.002535 -0.000015 -0.000258  0.000039  0.000508 -0.000057 -0.000808 -0.000066
                                -0.000856 -0.000020 -0.001254 -0.000040 -0.000062 -0.001255 -0.000092 -0.000124 -0.002519 -0.000138
                                -0.000210 -0.004032 -0.000044 -0.000487 -0.002015 -0.005188 -0.005471 -0.000093 -0.000038 -0.000067
                                 0.000038  0.000009  0.000177 -0.000019  0.000183

   6.1   0     0.0106   -2.8468 -0.000000  0.000000 -0.000000  0.000000 -0.000000  0.000000 -0.000000  0.000000 -0.000001  0.000003
                                -0.000009  0.000029 -0.000116  0.001065 -0.001913  0.001703 -0.002258  0.006313 -0.037662  0.434636
                                -0.706393  0.514260 -0.334843  0.264164 -0.233657  0.113750 -0.256203  0.253872 -0.367051  0.642427
                                -0.694437  1.545858 -0.000000  0.000000 -0.000000  0.000000 -0.000000  0.000001 -0.000003  0.000009
                                -0.000034  0.000097 -0.000479  0.005694 -0.008529  0.006724 -0.025098  0.036954 -0.035432  0.084467
                                -0.082136  0.053347 -0.007771  0.020890 -0.095808  0.139434 -0.252694 -0.000000 -0.000000  0.000000
                                -0.000000 -0.000001 -0.000000 -0.000002 -0.000000 -0.000028 -0.000001 -0.000008 -0.000003  0.000137
                                 0.000018  0.001072  0.000049 -0.014777 -0.000588  0.026315  0.001018 -0.016153 -0.000291  0.030636
                                 0.001391 -0.026234 -0.000468  0.039311  0.001759  0.006137  0.000905  0.011429  0.000648 -0.009943
                                 0.000314  0.035203  0.000137 -0.000313  0.000004  0.000910 -0.000016 -0.001270  0.000021 -0.000032
                                 0.000006 -0.002057  0.000037 -0.000109 -0.000101 -0.000007 -0.000038 -0.000196 -0.000014 -0.000137
                                 0.000961  0.000001 -0.000466 -0.005184 -0.022220 -0.059101 -0.075769 -0.391673 -0.000735 -0.006882
                                -0.015762  0.000181 -0.000000  0.001453  0.000007

   7.1   0     0.0302   -1.6218 -0.000000  0.000000 -0.000000  0.000000 -0.000000  0.000000 -0.000000  0.000000 -0.000000  0.000001
                                -0.000003  0.000010 -0.000038  0.000350 -0.000627  0.000561 -0.000739  0.002034 -0.012534  0.144575
                                -0.242249  0.202379 -0.155371  0.083496 -0.068641  0.070585 -0.032374  0.063548 -0.117547  0.214297
                                -0.029134  2.258677  0.000000 -0.000000  0.000000 -0.000000  0.000000 -0.000001  0.000002 -0.000007
                                 0.000022 -0.000073  0.000313 -0.004018  0.005963 -0.004858  0.019378 -0.027962  0.020433 -0.046410
                                 0.051325 -0.021742  0.009494 -0.017247  0.112501  0.058291  2.041005 -0.000000  0.000000  0.000001
                                 0.000000 -0.000008  0.000000  0.000027  0.000000 -0.000119  0.000000  0.000308  0.000000 -0.000916
                                -0.000001  0.005037 -0.000003 -0.080098  0.000039  0.145982 -0.000069 -0.134998  0.000037  0.147379
                                -0.000084 -0.234691  0.000063  0.212840 -0.000108 -0.066654 -0.000022  0.098004 -0.000052 -0.105574
                                -0.000031  0.423205 -0.000091 -0.000397 -0.000002  0.001786  0.000005 -0.002169 -0.000007 -0.000491
                                -0.000002  0.003256 -0.000012  0.000087 -0.000013 -0.000000 -0.000556 -0.000058 -0.000001  0.000878
                                -0.000134 -0.000002 -0.000293 -0.004325 -0.012017 -0.060646 -0.012271 -2.604421  0.000568  0.001672
                                 0.079075  0.000831 -0.000000 -0.012914 -0.000001

                                   1 2px     1 2px     1 2px     1 2px     1 2px     1 2px     1 2px     1 2px     1 2px     1 2px
                                   1 2px     1 2px     1 2px     1 2px     1 2px     1 2px     1 2px     1 2px     1 2px     1 2px
                                   1 2px     1 2px     1 2px     1 2px     1 2px     1 3d1+    1 3d1+    1 3d1+    1 3d1+    1 3d1+
                                   1 3d1+    1 3d1+    1 3d1+    1 3d1+    1 3d1+    1 3d1+    1 3d1+    1 3d1+    1 3d1+    1 3d1+
                                   1 3d1+    1 3d1+    1 3d1+    1 4f1+    1 4f3+    1 4f1+    1 4f3+    1 4f1+    1 4f3+    1 4f1+
                                   1 4f3+    1 4f1+    1 4f3+    1 5g1+    1 5g3+    1 5g1+    1 5g3+    1 5g1+    1 5g3+    2 2px
                                   2 2px     2 2px     2 3d1+    2 3d1+

   1.2   2    -2.2417  -15.6433  0.000000 -0.000000  0.000000 -0.000000  0.000000 -0.000001 -0.000000 -0.000023 -0.000034 -0.000366
                                -0.000438 -0.009602  0.011754 -0.017005  0.114121 -0.125196 -0.188848  0.330702  0.036582  0.515373
                                 0.305904  0.044626 -0.003430  0.001906 -0.000567  0.000000 -0.000000  0.000000  0.000000  0.000000
                                -0.000000 -0.000000 -0.000009  0.000125 -0.000196  0.000149 -0.000216  0.000355 -0.000673 -0.000471
                                -0.000012 -0.000055 -0.000002 -0.000584 -0.003126  0.000273  0.005526 -0.001257 -0.008325  0.000045
                                -0.002753  0.000351 -0.001221  0.000017  0.000003 -0.000072  0.000001  0.000023  0.000017  0.000020
                                 0.000104  0.000094 -0.000033  0.000022

   2.2   2    -0.3086  -10.1845 -0.000000  0.000000 -0.000000  0.000000 -0.000000  0.000000 -0.000000  0.000000 -0.000001  0.000000
                                -0.000009  0.000059 -0.000097  0.000051  0.000026  0.000028 -0.001030  0.002944 -0.001837  0.003172
                                 0.000409 -0.003457 -0.004228 -0.000439  0.000180 -0.000000 -0.000003 -0.000015 -0.000103 -0.000356
                                -0.000777  0.004683  0.012718 -0.152691  0.266231 -0.079009  0.360462 -0.132271  0.462216  0.245118
                                 0.198244  0.088068 -0.000316 -0.000316  0.000007  0.000629 -0.000018 -0.000939  0.000031 -0.001197
                                 0.000020 -0.000937  0.000045 -0.000755 -0.000173 -0.001435 -0.000104 -0.002471 -0.000541  0.000898
                                 0.005254  0.002537 -0.000570 -0.001134

   3.2   0     0.0263   -1.9220  0.000000 -0.000000  0.000000 -0.000000  0.000001 -0.000003  0.000011 -0.000036  0.000120 -0.000386
                                 0.001704 -0.021554  0.032061 -0.025987  0.102744 -0.149166  0.116325 -0.272558  0.295803 -0.144168
                                 0.057716 -0.089075  0.250449 -0.509041  1.287524  0.000000 -0.000000  0.000000 -0.000002  0.000006
                                -0.000020  0.000066 -0.000260  0.004240 -0.007739  0.007544 -0.007413  0.012530 -0.010235  0.003503
                                -0.003086  0.007231 -0.026664 -0.000011 -0.000028  0.000503 -0.000134 -0.000502  0.000086 -0.000004
                                -0.000006 -0.000805  0.000451  0.000036  0.000001 -0.000133  0.000000  0.000293  0.000003  0.000933
                                 0.002905  0.015498 -0.000272  0.002192

   4.2   0     0.0894   -2.2386 -0.000000  0.000000 -0.000000  0.000000 -0.000000  0.000002 -0.000007  0.000025 -0.000078  0.000281
                                -0.001116  0.015036 -0.022218  0.018481 -0.076839  0.110336 -0.069580  0.158865 -0.196277  0.062193
                                -0.059775  0.077555 -0.133247  0.567370 -0.331655 -0.000001  0.000006 -0.000028  0.000129 -0.000381
                                 0.001371 -0.004627  0.016632 -0.275152  0.503488 -0.502720  0.484017 -0.862163  0.698526 -0.287116
                                 0.257031 -0.457326  1.197679  0.000261 -0.000026 -0.001765 -0.000106  0.002060  0.000062 -0.000924
                                 0.000029  0.001099  0.000461  0.000048 -0.000031  0.000344 -0.000101  0.000011 -0.000035 -0.000442
                                 0.024557 -0.012800  0.001343 -0.002255

                                   1 2py     1 2py     1 2py     1 2py     1 2py     1 2py     1 2py     1 2py     1 2py     1 2py
                                   1 2py     1 2py     1 2py     1 2py     1 2py     1 2py     1 2py     1 2py     1 2py     1 2py
                                   1 2py     1 2py     1 2py     1 2py     1 2py     1 3d1-    1 3d1-    1 3d1-    1 3d1-    1 3d1-
                                   1 3d1-    1 3d1-    1 3d1-    1 3d1-    1 3d1-    1 3d1-    1 3d1-    1 3d1-    1 3d1-    1 3d1-
                                   1 3d1-    1 3d1-    1 3d1-    1 4f1-    1 4f3-    1 4f1-    1 4f3-    1 4f1-    1 4f3-    1 4f1-
                                   1 4f3-    1 4f1-    1 4f3-    1 5g1-    1 5g3-    1 5g1-    1 5g3-    1 5g1-    1 5g3-    2 2py
                                   2 2py     2 2py     2 3d1-    2 3d1-

   1.3   2    -2.2417  -15.6434  0.000000 -0.000000  0.000000 -0.000000  0.000000 -0.000001 -0.000000 -0.000023 -0.000034 -0.000366
                                -0.000438 -0.009600  0.011752 -0.017003  0.114107 -0.125164 -0.188884  0.330696  0.036602  0.515394
                                 0.305868  0.044643 -0.003421  0.001904 -0.000567  0.000000 -0.000000  0.000000  0.000000  0.000000
                                 0.000000 -0.000000 -0.000009  0.000125 -0.000195  0.000147 -0.000216  0.000353 -0.000672 -0.000472
                                -0.000010 -0.000056 -0.000002 -0.000520  0.003052  0.000132 -0.005499 -0.001060  0.008228  0.000121
                                 0.002762  0.000390  0.001235  0.000017 -0.000003 -0.000072 -0.000001  0.000024 -0.000017  0.000021
                                 0.000104  0.000095 -0.000033  0.000022

   2.3   2    -0.3095  -10.1879 -0.000000  0.000000 -0.000000  0.000000 -0.000000  0.000000 -0.000000  0.000000 -0.000001  0.000000
                                -0.000009  0.000059 -0.000097  0.000051  0.000026  0.000028 -0.001032  0.002949 -0.001840  0.003178
                                 0.000409 -0.003458 -0.004238 -0.000451  0.000188 -0.000000 -0.000003 -0.000015 -0.000103 -0.000356
                                -0.000777  0.004685  0.012721 -0.152731  0.266290 -0.078984  0.360566 -0.132199  0.462301  0.245181
                                 0.198029  0.087676 -0.000386 -0.000316 -0.000007  0.000631  0.000018 -0.000940 -0.000031 -0.001194
                                -0.000019 -0.000936 -0.000045 -0.000768  0.000123 -0.001458  0.000038 -0.002481  0.000455  0.000895
                                 0.005245  0.002533 -0.000570 -0.001138

   3.3   0     0.0263   -1.9237  0.000000 -0.000000  0.000000 -0.000000  0.000001 -0.000003  0.000011 -0.000036  0.000120 -0.000385
                                 0.001702 -0.021524  0.032017 -0.025949  0.102576 -0.148927  0.116223 -0.272343  0.295454 -0.144177
                                 0.057547 -0.088774  0.250599 -0.507810  1.286619  0.000000 -0.000000  0.000000 -0.000002  0.000006
                                -0.000020  0.000066 -0.000260  0.004246 -0.007751  0.007558 -0.007424  0.012556 -0.010251  0.003516
                                -0.003096  0.007238 -0.026662 -0.000013  0.000017  0.000518  0.000186 -0.000518 -0.000152 -0.000014
                                -0.000021 -0.000854 -0.000580  0.000036 -0.000000 -0.000133 -0.000001  0.000294 -0.000001  0.000932
                                 0.002923  0.015452 -0.000273  0.002189

   4.3   0     0.0893   -2.2486  0.000000 -0.000000  0.000000 -0.000000  0.000000 -0.000002  0.000008 -0.000027  0.000084 -0.000301
                                 0.001198 -0.016142  0.023853 -0.019838  0.082456 -0.118410  0.074778 -0.170769  0.210785 -0.067023
                                 0.064029 -0.083228  0.143136 -0.604396  0.354560  0.000001 -0.000006  0.000027 -0.000128  0.000378
                                -0.001362  0.004596 -0.016526  0.273378 -0.500238  0.499437 -0.480907  0.856514 -0.694009  0.285156
                                -0.255377  0.454284 -1.190251 -0.000258 -0.000019  0.001719 -0.000153 -0.002010  0.000117  0.000925
                                 0.000058 -0.000947  0.000600 -0.000048 -0.000034 -0.000352 -0.000107 -0.000005 -0.000038  0.000423
                                -0.024756  0.012654 -0.001335  0.002370

                                   1 3d2-    1 3d2-    1 3d2-    1 3d2-    1 3d2-    1 3d2-    1 3d2-    1 3d2-    1 3d2-    1 3d2-
                                   1 3d2-    1 3d2-    1 3d2-    1 3d2-    1 3d2-    1 3d2-    1 3d2-    1 3d2-    1 4f2-    1 4f2-
                                   1 4f2-    1 4f2-    1 4f2-    1 5g2-    1 5g4-    1 5g2-    1 5g4-    1 5g2-    1 5g4-    2 3d2-
                                   2 3d2-

   1.4   2    -0.3327  -10.2654 -0.000000 -0.000003 -0.000015 -0.000104 -0.000360 -0.000784  0.004724  0.012856 -0.154666  0.269492
                                -0.080221  0.364742 -0.133531  0.467191  0.247468  0.192651  0.078279 -0.001813 -0.000276  0.000742
                                -0.001043 -0.000725 -0.002045 -0.000580 -0.000030 -0.000903 -0.000045 -0.002081 -0.000039  0.000167
                                 0.000013

   2.4   0     0.0894   -2.1129 -0.000001  0.000006 -0.000030  0.000139 -0.000420  0.001482 -0.004970  0.018325 -0.302299  0.553012
                                -0.549345  0.533481 -0.942944  0.769835 -0.310312  0.284979 -0.500144  1.259920 -0.000097  0.001029
                                -0.001159  0.000678 -0.000924  0.000040  0.000003  0.000186  0.000009  0.000013  0.000001  0.000059
                                 0.002077

   3.4   0     0.3015   -3.1003  0.000002 -0.000018  0.000103 -0.000378  0.001507 -0.004198  0.012938 -0.064256  1.032849 -1.885747
                                 1.776387 -1.892412  3.097741 -2.743362  0.900430 -1.134610  1.982629 -0.909935 -0.000254  0.002448
                                -0.002787  0.001563 -0.002659  0.000150  0.000009  0.000535  0.000031  0.000007 -0.000014  0.001287
                                -0.005357

 HOMO      2.2    -0.308612 =      -8.3978eV
 LUMO      6.1     0.010631 =       0.2893eV
 LUMO-HOMO         0.319243 =       8.6870eV

 No convergence



 **********************************************************************************************************************************
 DATASETS  * FILE   NREC   LENGTH (MB)   RECORD NAMES
              1      19       21.03       500      610      700      900      950      970     1000      129      960     1100
                                          VAR    BASINP    GEOM    SYMINP    ZMAT    AOBASIS   BASIS     P2S    ABASIS      S
                                         1400     1410     1420     1200     1210     1080     1600     1650     1700
                                           T        V       ECP      H0       H01     AOSYM     SMH    MOLCAS    OPER

              2       4        3.50       700     1000      520     2100
                                         GEOM     BASIS   MCVARS     RHF

 PROGRAMS   *        TOTAL       RHF       INT
 CPU TIMES  *        63.95     20.64     42.79
 REAL TIME  *        67.54 SEC
 DISK USED  *         2.44 GB
 SF USED    *         0.10 MB
 GA USED    *         0.00 MB       (max)       0.00 MB       (current)
 **********************************************************************************************************************************
   -->
   <time start="09:52:06" end="09:53:12" cpu="63.95" system="3.31" real="67.54"/>
   <storage units="megabyte" memory="8001.84" sf="0.1" df="310.38" eaf="2129.35" ga="0.0"/>
  </jobstep><!--
 SETTING SCF            =      -109.73536410  AU
 SETTING _CC_NORM_MAX   =         2.00000000
  --><jobstep command="RCCSD(T)" commandset="CCSD">
   <!--


 PROGRAM * CCSD (Restricted open-shell coupled cluster)     Authors: C. Hampel, H.-J. Werner, 1991, M. Deegan, P.J. Knowles, 1992


 Convergence thresholds:  THRVAR = 1.00D-08  THRDEN = 1.00D-06

 CCSD(T)     terms to be evaluated (factor= 1.000)


 Number of closed-shell orbitals:   8 (   3   2   2   1 )
 Number of active  orbitals:        2 (   2   0   0   0 )
 Number of external orbitals:     274 ( 120  62  62  30 )

 Memory could be reduced to 97.68 Mwords without degradation in triples

 Number of N-1 electron functions:              18
 Number of N-2 electron functions:             153
 Number of singly external CSFs:              1532
 Number of doubly external CSFs:           2251566
 Total number of CSFs:                     2253098

 Molecular orbitals read from record     2100.2  Type=RHF/CANONICAL (state 1.1)

 ?Error: RHF not converged. This error exit can be avoided using the IGNORE_ERROR option on the ORBITAL directive
   --><error/><!--
  --></jobstep><!--
  -->
  <input>
  <!--
 --></job><!--
--></molpro>
