
 Primary working directories    : /global/cscratch1/sd/haihan
 Secondary working directories  : /global/cscratch1/sd/haihan
 Wavefunction directory         : /global/homes/h/haihan/Research/ECP/f_group_element_ecps/Rh/Molpro/molecules/RhO/AE/wfu/
 Main file repository           : /global/cscratch1/sd/haihan/

 SHA1      : 19cd028119e0e09f93f0674bd8af7968d9b3eff6
 NAME      : 2015.1.36
 ARCHNAME  : linux/x86_64
 FC        : /opt/cray/pe/craype/2.5.14/bin/ftn
 BLASLIB   : -L/opt/intel/compilers_and_libraries_2018.1.163/linux/mkl/lib/intel64 -Wl,-_start-group -lmkl_intel_ilp64 -lmkl_intel_thread -lmkl_core -Wl,-_end-group -liomp5
 id        : lbl

 Nodes     nprocs
 nid02200    11
 Number of processes for MPI-2 version of Molpro:   nprocs(total)=   12   nprocs(compute)=   11   nprocs(helper)=    1

 Using customized tuning parameters: mindgm=7; mindgv=16; mindgc=1; mindgr=1; noblas=0; minvec=7
 default implementation of scratch files=sf  

 ***,Calculation for all-electron YH molecule, SCF and CCSD(T)
 memory,1,g
 gthresh,twoint=1.0E-15
 gthresh,throvl=1.0E-15
 
 set,dkroll=1,dkho=10,dkhp=4
 basis={
 Including file /global/u2/h/haihan/Research/ECP/f_group_element_ecps/Rh/Molpro/molecules/RhO/AE/r_1.40/../generate/Rh-aug-cc-pwCVTZ.basis
 Including file /global/u2/h/haihan/Research/ECP/f_group_element_ecps/Rh/Molpro/molecules/RhO/AE/r_1.40/../generate/O-aug-cc-pwCVTZ.basis
 }
 
 Rh_ccsd=-4782.723260
 O_ccsd=-75.09173839
 
                                                                                 !These are the wf cards parameters
 ne = 53
 symm = 1
 ss= 3
 
                                                                                 !There are irrep cards paramters
 A1=14
 B1=6
 B2=6
 A2=2
 
 
 geometry={
     2
     RhH molecule
     Rh 0.0 0.0 0.0
     O 0.0 0.0 1.40
 }
 {rhf,nitord=20;
  maxit,200;
  wf,ne,symm,ss
  occ,A1,B1,B2,A2
  closed,A1,B1-1,B2-1,A2-1
  print,orbitals=2
 }
 scf=energy
 _CC_NORM_MAX=2.0
 {rccsd(t),shifts=0.5,shiftp=0.5,thrdis=1.0;diis,1,1,15,1;maxit,200;core}
 ccsd=energy
 bind=ccsd-Rh_ccsd-O_ccsd
 
 
 table,1.40,scf,ccsd,bind
 save
 type,csv
 

 Variables initialized (889), CPU time= 0.01 sec
 Commands  initialized (702), CPU time= 0.01 sec, 572 directives.
 Default parameters read. Elapsed time= 0.12 sec

 Checking input...
 Passed
1


                                         ***  PROGRAM SYSTEM MOLPRO  ***
                                       Copyright, TTI GmbH Stuttgart, 2015
                                    Version 2015.1 linked Dec 29 2018 15:55:43


 **********************************************************************************************************************************
 LABEL *   Calculation for all-electron YH molecule, SCF and CCSD(T)                     
  64 bit mpp version                                                                     DATE: 25-Sep-22          TIME: 12:46:13  
 **********************************************************************************************************************************

 SHA1:             19cd028119e0e09f93f0674bd8af7968d9b3eff6
 **********************************************************************************************************************************

 THRESHOLDS:

 ZERO    =  1.00D-12  ONEINT  =  1.00D-12  TWOINT  =  1.00D-15  PREFAC  =  1.00D-14  LOCALI  =  1.00D-09  EORDER  =  1.00D-04
 ENERGY  =  0.00D+00  ETEST   =  0.00D+00  EDENS   =  0.00D+00  THRDEDEF=  1.00D-06  GRADIENT=  1.00D-02  STEP    =  1.00D-03
 ORBITAL =  1.00D-05  CIVEC   =  1.00D-05  COEFF   =  1.00D-04  PRINTCI =  5.00D-02  PUNCHCI =  9.90D+01  OPTGRAD =  3.00D-04
 OPTENERG=  1.00D-06  OPTSTEP =  3.00D-04  THRGRAD =  1.00D-10  COMPRESS=  1.00D-11  VARMIN  =  1.00D-07  VARMAX  =  1.00D-03
 THRDOUB =  0.00D+00  THRDIV  =  1.00D-05  THRRED  =  1.00D-07  THRPSP  =  1.00D+00  THRDC   =  1.00D-10  THRCS   =  1.00D-10
 THRNRM  =  1.00D-08  THREQ   =  0.00D+00  THRDE   =  1.00D+00  THRREF  =  1.00D-05  SPARFAC =  1.00D+00  THRDLP  =  1.00D-07
 THRDIA  =  1.00D-10  THRDLS  =  1.00D-07  THRGPS  =  0.00D+00  THRKEX  =  0.00D+00  THRDIS  =  2.00D-01  THRVAR  =  1.00D-10
 THRLOC  =  1.00D-06  THRGAP  =  1.00D-06  THRLOCT = -1.00D+00  THRGAPT = -1.00D+00  THRORB  =  1.00D-06  THRMLTP =  0.00D+00
 THRCPQCI=  1.00D-10  KEXTA   =  0.00D+00  THRCOARS=  0.00D+00  SYMTOL  =  1.00D-06  GRADTOL =  1.00D-06  THROVL  =  1.00D-08
 THRORTH =  1.00D-08  GRID    =  1.00D-06  GRIDMAX =  1.00D-03  DTMAX   =  0.00D+00  THROCCDE=  1.00D-01  THROCCDE=  1.00D-01



 THRESHOLDS:

 ZERO    =  1.00D-12  ONEINT  =  1.00D-12  TWOINT  =  1.00D-15  PREFAC  =  1.00D-14  LOCALI  =  1.00D-09  EORDER  =  1.00D-04
 ENERGY  =  0.00D+00  ETEST   =  0.00D+00  EDENS   =  0.00D+00  THRDEDEF=  1.00D-06  GRADIENT=  1.00D-02  STEP    =  1.00D-03
 ORBITAL =  1.00D-05  CIVEC   =  1.00D-05  COEFF   =  1.00D-04  PRINTCI =  5.00D-02  PUNCHCI =  9.90D+01  OPTGRAD =  3.00D-04
 OPTENERG=  1.00D-06  OPTSTEP =  3.00D-04  THRGRAD =  1.00D-10  COMPRESS=  1.00D-11  VARMIN  =  1.00D-07  VARMAX  =  1.00D-03
 THRDOUB =  0.00D+00  THRDIV  =  1.00D-05  THRRED  =  1.00D-07  THRPSP  =  1.00D+00  THRDC   =  1.00D-10  THRCS   =  1.00D-10
 THRNRM  =  1.00D-08  THREQ   =  0.00D+00  THRDE   =  1.00D+00  THRREF  =  1.00D-05  SPARFAC =  1.00D+00  THRDLP  =  1.00D-07
 THRDIA  =  1.00D-10  THRDLS  =  1.00D-07  THRGPS  =  0.00D+00  THRKEX  =  0.00D+00  THRDIS  =  2.00D-01  THRVAR  =  1.00D-10
 THRLOC  =  1.00D-06  THRGAP  =  1.00D-06  THRLOCT = -1.00D+00  THRGAPT = -1.00D+00  THRORB  =  1.00D-06  THRMLTP =  0.00D+00
 THRCPQCI=  1.00D-10  KEXTA   =  0.00D+00  THRCOARS=  0.00D+00  SYMTOL  =  1.00D-06  GRADTOL =  1.00D-06  THROVL  =  1.00D-15
 THRORTH =  1.00D-08  GRID    =  1.00D-06  GRIDMAX =  1.00D-03  DTMAX   =  0.00D+00  THROCCDE=  1.00D-01  THROCCDE=  1.00D-01


 SETTING DKROLL         =         1.00000000                                  
 SETTING DKHO           =        10.00000000                                  
 SETTING DKHP           =         4.00000000                                  

 Variable memory set to 1000000000 words,  buffer space   230000 words

 SETTING BASIS          =    USERDEF
 SETTING RH_CCSD        =     -4782.72326000                                  
 SETTING O_CCSD         =       -75.09173839                                  
 SETTING NE             =        53.00000000                                  
 SETTING SYMM           =         1.00000000                                  
 SETTING SS             =         3.00000000                                  
 SETTING A1             =        14.00000000                                  
 SETTING B1             =         6.00000000                                  
 SETTING B2             =         6.00000000                                  
 SETTING A2             =         2.00000000                                  

Geometry recognized as XYZ



 Recomputing integrals since basis changed


 Using spherical harmonics



 PROGRAM * SEWARD (Integral evaluation for generally contracted gaussian basis sets)     Author: Roland Lindh, 1990

 Geometry written to block  1 of record 700


 Point group  C2v 



 ATOMIC COORDINATES

 NR  ATOM    CHARGE       X              Y              Z

   1  RH     45.00    0.000000000    0.000000000    0.000000000
   2  O       8.00    0.000000000    0.000000000    2.645616574

 Bond lengths in Bohr (Angstrom)

 1-2  2.645616574
     ( 1.400000000)

 NUCLEAR CHARGE:                   53
 NUMBER OF PRIMITIVE AOS:         391
 NUMBER OF SYMMETRY AOS:          330
 NUMBER OF CONTRACTIONS:          330   ( 145A1  +  75B1  +  75B2  +  35A2  )
 NUMBER OF CORE ORBITALS:          19   (  10A1  +   4B1  +   4B2  +   1A2  )
 NUMBER OF VALENCE ORBITALS:       10   (   5A1  +   2B1  +   2B2  +   1A2  )


 NUCLEAR REPULSION ENERGY  136.07413995

 One-electron integrals computed with SEWARD

 10nd-order Douglas-Kroll-Hess method activated. McWeeny DKH parametrization is used.

 Computing Douglas-Kroll / X2C integrals

 AO integral compression algorithm  1   Integral accuracy      1.0D-15

     1731.985 MB (compressed) written to integral file ( 47.6%)

     Node minimum: 106.955 MB, node maximum: 239.600 MB


 NUMBER OF SORTED TWO-ELECTRON INTEGRALS:   35099806.     BUFFER LENGTH:  32768
 NUMBER OF SEGMENTS:   2  SEGMENT LENGTH:   31967806      RECORD LENGTH: 524288

 Memory used in sort:      32.52 MW

 SORT1 READ   454841961. AND WROTE    17468394. INTEGRALS IN     51 RECORDS. CPU TIME:     6.84 SEC, REAL TIME:     8.69 SEC
 SORT2 READ   190522555. AND WROTE   386140795. INTEGRALS IN   6325 RECORDS. CPU TIME:     0.68 SEC, REAL TIME:     1.11 SEC

 Node minimum:    35061033.  Node maximum:    35222262. integrals

 OPERATOR DM      FOR CENTER  0  COORDINATES:    0.000000    0.000000    0.000000

 EXTRA SYMMETRY OF AOS IN SYMMETRY 1:   1 1 1 1 1 1 1 1 1 1   1 1 1 1 1 1 1 1 1 1   1 1 1 1 1 1 1 1 1 1   1 1 1 1 1 1 1 1 1 1
                                        1 1 1 1 1 1 1 1 1 1   1 1 1 1 1 1 1 1 2 1   2 1 2 1 2 1 2 1 2 1   2 1 2 1 2 1 2 1 2 1
                                        2 1 2 1 2 1 2 1 2 1   2 1 2 1 2 1 2 1 2 1   2 1 2 1 3 2 1 3 2 1   3 2 1 1 1 1 1 1 1 1
                                        1 1 1 1 1 1 1 1 1 1   1 1 1 1 2 1 2 1 2 1   2 1 2 1 2
 EXTRA SYMMETRY OF AOS IN SYMMETRY 2:   1 1 1 1 1 1 1 1 1 1   1 1 1 1 1 1 1 1 1 1   1 1 1 1 1 1 1 1 1 1   1 1 1 1 1 1 1 1 1 1
                                        1 1 1 1 2 1 2 1 2 1   2 1 2 1 2 1 2 1 2 1   1 1 1 1 1 1 1 1 1 1   1 1 2 1 2
 EXTRA SYMMETRY OF AOS IN SYMMETRY 3:   1 1 1 1 1 1 1 1 1 1   1 1 1 1 1 1 1 1 1 1   1 1 1 1 1 1 1 1 1 1   1 1 1 1 1 1 1 1 1 1
                                        1 1 1 1 2 1 2 1 2 1   2 1 2 1 2 1 2 1 2 1   1 1 1 1 1 1 1 1 1 1   1 1 2 1 2
 EXTRA SYMMETRY OF AOS IN SYMMETRY 4:   1 1 1 1 1 1 1 1 1 1   1 1 1 1 1 1 1 1 1 1   1 1 1 1 2 1 2 1 2 1   1 1 1 1 1

 Eigenvalues of metric

         1 0.115E-07 0.810E-06 0.854E-06 0.253E-05 0.276E-05 0.430E-05 0.548E-05 0.177E-04
         2 0.877E-06 0.271E-05 0.609E-05 0.324E-04 0.471E-04 0.530E-03 0.657E-03 0.144E-02
         3 0.877E-06 0.271E-05 0.609E-05 0.324E-04 0.471E-04 0.530E-03 0.657E-03 0.144E-02
         4 0.276E-05 0.492E-04 0.684E-03 0.158E-02 0.451E-02 0.126E-01 0.269E-01 0.546E-01


 **********************************************************************************************************************************
 DATASETS  * FILE   NREC   LENGTH (MB)   RECORD NAMES
              1      22       22.21       500      610      700      900      950      970     1000      129      960     1700   
                                          VAR    BASINP    GEOM    SYMINP    ZMAT    AOBASIS   BASIS     P2S    ABASIS    OPER   
                                         1101     1401     1411     1412     1650     1100     1400     1410     1200     1210   
                                          SR      EKINR    POTR     PVPR    MOLCAS      S      EKIN      POT      H0       H01  
                                         1080     1600   
                                         AOSYM     SMH  

 PROGRAMS   *        TOTAL       INT
 CPU TIMES  *        45.25     45.05
 REAL TIME  *        49.32 SEC
 DISK USED  *         3.99 GB      
 GA USED    *         0.00 MB       (max)       0.00 MB       (current)
 **********************************************************************************************************************************


 PROGRAM * RHF-SCF (OPEN SHELL)       Authors: W. Meyer, H.-J. Werner


 NUMBER OF ELECTRONS:      28+   25-    SPACE SYMMETRY=1    SPIN SYMMETRY: Quartet 
 CONVERGENCE THRESHOLDS:    1.00E-05 (Density)    1.06E-07 (Energy)
 MAX. NUMBER OF ITERATIONS:      200
 INTERPOLATION TYPE:            DIIS
 INTERPOLATION STEPS:              2 (START)      1 (STEP)
 LEVEL SHIFTS:                 -0.60 (CLOSED) -0.30 (OPEN) 

 Number of closed-shell orbitals:   25 (  14   5   5   1 )
 Number of open-shell orbitals:      3 (   0   1   1   1 )


 Orbital guess generated from atomic densities. Full valence occupancy:   15   6   6   2

 Molecular orbital dump at record        2100.2

 ITERATION    DDIFF          GRAD             ENERGY        2-EL.EN.            DIPOLE MOMENTS         DIIS   ORB.
    1      0.000D+00      0.000D+00     -4844.77908268   3557.832360    0.00000    0.00000   -2.33879    0    start
    2      0.000D+00      0.428D-01     -4850.87107981   4190.457085    0.00000    0.00000    1.21307    1    diag,B
    3      0.109D+01      0.659D-01     -4854.59723091   4067.111717    0.00000    0.00000   -0.63367    2    diag,B
    4      0.399D-01      0.263D-01     -4855.66751165   3994.934709    0.00000    0.00000   -1.23348    3    diag,B
    5      0.223D-01      0.888D-02     -4855.86412807   3961.848111    0.00000    0.00000   -1.69187    4    diag,B
    6      0.776D-02      0.238D-02     -4855.90264915   3949.734333    0.00000    0.00000   -1.62778    5    diag,B
    7      0.552D-02      0.130D-02     -4855.91598495   3946.824848    0.00000    0.00000   -1.60374    6    diag,B
    8      0.267D-02      0.996D-03     -4855.92785118   3945.653228    0.00000    0.00000   -1.43262    7    diag,B
    9      0.241D-02      0.637D-03     -4855.93762959   3944.067673    0.00000    0.00000   -1.20279    8    diag,B
   10      0.286D-02      0.381D-03     -4855.94195487   3942.988629    0.00000    0.00000   -0.99252    9    orth
   11      0.219D-02      0.230D-03     -4855.94376925   3942.047537    0.00000    0.00000   -0.81736    9    diag,B
   12      0.144D-02      0.112D-03     -4855.94412951   3941.659167    0.00000    0.00000   -0.72395    9    diag,B
   13      0.143D-02      0.446D-04     -4855.94416975   3941.579687    0.00000    0.00000   -0.69783    9    diag,B
   14      0.796D-03      0.181D-04     -4855.94417565   3941.550294    0.00000    0.00000   -0.68851    9    diag,B
   15      0.207D-03      0.840D-05     -4855.94417693   3941.547803    0.00000    0.00000   -0.68658    9    diag,B
   16      0.207D-03      0.371D-05     -4855.94417716   3941.544999    0.00000    0.00000   -0.68526    9    diag,B
   17      0.911D-04      0.168D-05     -4855.94417720   3941.544312    0.00000    0.00000   -0.68512    9    diag,B
   18      0.122D-04      0.931D-06     -4855.94417721   3941.544984    0.00000    0.00000   -0.68507    9    diag,B
   19      0.470D-05      0.451D-06     -4855.94417721   3941.544404    0.00000    0.00000   -0.68513    0    orth

 Final alpha occupancy:  14   6   6   2
 Final beta  occupancy:  14   5   5   1

 !RHF STATE 1.1 Energy              -4855.944177213281
 Nuclear energy                       136.07413995
 One-electron energy                -6962.79051911
 Two-electron energy                 1970.77220195
 Virial quotient                       -0.89100158
 !RHF STATE 1.1 Dipole moment           0.00000000     0.00000000    -0.68512644
 Dipole moment /Debye                   0.00000000     0.00000000    -1.74130367

 ELECTRON ORBITALS
 =================


   Orb  Occ    Energy  Couls-En    Coefficients

                                   1 1s      1 1s      1 1s      1 1s      1 1s      1 1s      1 1s      1 1s      1 1s      1 1s   
                                   1 1s      1 1s      1 1s      1 1s      1 1s      1 1s      1 1s      1 1s      1 1s      1 1s   
                                   1 1s      1 1s      1 1s      1 1s      1 1s      1 1s      1 1s      1 1s      1 1s      1 1s   
                                   1 1s      1 1s      1 2pz     1 2pz     1 2pz     1 2pz     1 2pz     1 2pz     1 2pz     1 2pz  
                                   1 2pz     1 2pz     1 2pz     1 2pz     1 2pz     1 2pz     1 2pz     1 2pz     1 2pz     1 2pz  
                                   1 2pz     1 2pz     1 2pz     1 2pz     1 2pz     1 2pz     1 2pz     1 3d0     1 3d2+    1 3d0  
                                   1 3d2+    1 3d0     1 3d2+    1 3d0     1 3d2+    1 3d0     1 3d2+    1 3d0     1 3d2+    1 3d0  
                                   1 3d2+    1 3d0     1 3d2+    1 3d0     1 3d2+    1 3d0     1 3d2+    1 3d0     1 3d2+    1 3d0  
                                   1 3d2+    1 3d0     1 3d2+    1 3d0     1 3d2+    1 3d0     1 3d2+    1 3d0     1 3d2+    1 3d0  
                                   1 3d2+    1 3d0     1 3d2+    1 4f0     1 4f2+    1 4f0     1 4f2+    1 4f0     1 4f2+    1 4f0  
                                   1 4f2+    1 4f0     1 4f2+    1 5g0     1 5g4+    1 5g2+    1 5g0     1 5g4+    1 5g2+    1 5g0  
                                   1 5g4+    1 5g2+    2 1s      2 1s      2 1s      2 1s      2 1s      2 1s      2 1s      2 1s   
                                   2 1s      2 1s      2 1s      2 1s      2 1s      2 2pz     2 2pz     2 2pz     2 2pz     2 2pz  
                                   2 2pz     2 2pz     2 2pz     2 3d0     2 3d2+    2 3d0     2 3d2+    2 3d0     2 3d2+    2 3d0  
                                   2 3d2+    2 4f0     2 4f2+    2 4f0     2 4f2+ 

   1.1   2  -857.9667-1902.1645  0.000045  0.000122  0.000335  0.000765  0.001628  0.003290  0.006567  0.013170  0.026884  0.055549
                                 0.112516  0.208271  0.308814  0.297915 -0.004402  0.130174  0.011230  0.004380 -0.010094  0.057956
                                -0.076630  0.039045 -0.017153  0.005423 -0.001722  0.000851 -0.000193  0.000094 -0.000036  0.000033
                                -0.000004  0.000001 -0.000000 -0.000000 -0.000000 -0.000000 -0.000000 -0.000000 -0.000000 -0.000001
                                -0.000000  0.000001  0.000001 -0.000010  0.000014 -0.000010  0.000031 -0.000040  0.000023 -0.000032
                                 0.000029 -0.000004 -0.000006  0.000012  0.000007  0.000001 -0.000000  0.000000 -0.000000  0.000000
                                 0.000000  0.000000 -0.000000  0.000000 -0.000000 -0.000000  0.000000 -0.000000 -0.000000  0.000000
                                 0.000000 -0.000001 -0.000000  0.000013  0.000000 -0.000023 -0.000000  0.000021  0.000000 -0.000021
                                -0.000000  0.000037  0.000000 -0.000033 -0.000000  0.000007  0.000000  0.000003 -0.000000  0.000002
                                 0.000000 -0.000000 -0.000000 -0.000001 -0.000000  0.000006  0.000000 -0.000006 -0.000000  0.000001
                                 0.000000  0.000002 -0.000000  0.000000  0.000000 -0.000000 -0.000001  0.000000  0.000000  0.000000
                                 0.000000 -0.000000  0.000000 -0.000000  0.000000 -0.000000  0.000000 -0.000003 -0.000008 -0.000005
                                 0.000003 -0.000013 -0.000017  0.000008  0.000006 -0.000000 -0.000001  0.000001 -0.000002  0.000005
                                 0.000004  0.000001  0.000000  0.000000  0.000000  0.000003 -0.000000 -0.000000  0.000000  0.000000
                                 0.000000 -0.000000 -0.000000 -0.000002  0.000000

   2.1   2  -127.5532 -390.2821 -0.000015 -0.000041 -0.000113 -0.000258 -0.000550 -0.001115 -0.002238 -0.004529 -0.009382 -0.019887
                                -0.042213 -0.085438 -0.150306 -0.190845  0.002602 -0.066973  0.308964  0.553440  0.266711  0.113239
                                -0.130150  0.100247 -0.048526  0.017635 -0.006189  0.003041 -0.000783  0.000376 -0.000146  0.000137
                                -0.000016  0.000004  0.000000  0.000000  0.000000  0.000000  0.000001  0.000003  0.000010  0.000028
                                 0.000062  0.000103  0.000141  0.000080  0.000028 -0.000005  0.000095 -0.000126  0.000077 -0.000118
                                 0.000112 -0.000017 -0.000023  0.000050  0.000029  0.000006 -0.000002  0.000000 -0.000000  0.000000
                                -0.000000  0.000000 -0.000000  0.000002 -0.000000  0.000010 -0.000000  0.000007 -0.000000  0.000003
                                -0.000000 -0.000001 -0.000000  0.000043  0.000000 -0.000076 -0.000000  0.000072  0.000000 -0.000073
                                -0.000000  0.000137 -0.000000 -0.000124  0.000000  0.000028  0.000000  0.000012  0.000000  0.000008
                                 0.000000 -0.000001 -0.000000  0.000005  0.000000  0.000011 -0.000000 -0.000014  0.000000  0.000002
                                -0.000000  0.000008 -0.000000  0.000001 -0.000004  0.000000 -0.000003  0.000001  0.000000  0.000002
                                -0.000001  0.000000  0.000000 -0.000000  0.000000 -0.000000  0.000001 -0.000010 -0.000028 -0.000018
                                 0.000013 -0.000055 -0.000070  0.000027  0.000019 -0.000000 -0.000003  0.000002 -0.000007  0.000022
                                 0.000015  0.000002  0.000000  0.000000  0.000000  0.000010  0.000000 -0.000001 -0.000000  0.000000
                                -0.000000 -0.000000 -0.000000 -0.000006 -0.000000

   3.1   2  -114.1222 -371.1841  0.000000  0.000000  0.000000  0.000000  0.000000  0.000000  0.000001  0.000002  0.000004  0.000008
                                 0.000016  0.000033  0.000059  0.000075 -0.000000  0.000024 -0.000128 -0.000194 -0.000121  0.000167
                                -0.000326  0.000249 -0.000193  0.000118 -0.000089  0.000088 -0.000064  0.000065 -0.000032  0.000033
                                 0.000001 -0.000001  0.000016  0.000055  0.000203  0.000713  0.002485  0.008366  0.026117  0.072481
                                 0.167210  0.295999  0.348871  0.212834  0.000927  0.050221  0.007582 -0.004706  0.002631 -0.002611
                                 0.002229 -0.000525  0.000092 -0.000018  0.000016 -0.000001 -0.000000  0.000000 -0.000000  0.000000
                                -0.000000  0.000001 -0.000000  0.000007 -0.000000  0.000031 -0.000000  0.000027 -0.000000 -0.000004
                                -0.000000  0.000010 -0.000000 -0.000073 -0.000000  0.000126  0.000000 -0.000096 -0.000000  0.000076
                                 0.000000 -0.000074  0.000000  0.000038  0.000000  0.000014  0.000000 -0.000007  0.000000  0.000004
                                 0.000000 -0.000001 -0.000000  0.000006 -0.000000 -0.000001  0.000000 -0.000004 -0.000000  0.000008
                                 0.000000 -0.000001 -0.000000  0.000001  0.000000  0.000000 -0.000002 -0.000000  0.000000  0.000003
                                 0.000000  0.000000  0.000000  0.000000 -0.000000  0.000000 -0.000000  0.000005  0.000017  0.000011
                                -0.000020  0.000003 -0.000026 -0.000017 -0.000010  0.000000  0.000004  0.000000  0.000012  0.000003
                                 0.000007 -0.000003 -0.000000  0.000000  0.000000 -0.000002  0.000000 -0.000002  0.000000 -0.000000
                                 0.000000 -0.000001 -0.000000 -0.000001 -0.000000

   4.1   2   -24.2424 -134.6605  0.000007  0.000018  0.000049  0.000111  0.000237  0.000481  0.000965  0.001956  0.004060  0.008642
                                 0.018451  0.037885  0.068236  0.092170 -0.003565  0.035074 -0.204839 -0.489502 -0.316941  0.273771
                                -0.060638  0.470127  0.369336  0.291937  0.055792 -0.006163  0.003382 -0.001030 -0.000087  0.000002
                                 0.000026 -0.000010 -0.000000 -0.000000 -0.000000 -0.000001 -0.000003 -0.000010 -0.000032 -0.000091
                                -0.000220 -0.000400 -0.000524  0.000034 -0.000232  0.001029  0.000586  0.001040  0.000172  0.001430
                                -0.001383  0.000352  0.000093 -0.000530  0.000097 -0.000031  0.000006  0.000000  0.000000  0.000001
                                 0.000000  0.000004  0.000000  0.000015  0.000000  0.000041  0.000000  0.000114  0.000000  0.000187
                                 0.000000  0.000222  0.000000  0.000314  0.000000 -0.000070 -0.000000 -0.000009  0.000000  0.000163
                                -0.000000 -0.000614  0.000000  0.000692 -0.000000 -0.000307 -0.000000 -0.000077 -0.000000  0.000015
                                -0.000000 -0.000007 -0.000000  0.000357  0.000000 -0.001388 -0.000000  0.001234  0.000000 -0.000188
                                -0.000000 -0.000016  0.000000  0.000001 -0.000047  0.000000  0.000028  0.000083 -0.000000 -0.000037
                                -0.000020  0.000000  0.000000  0.000000  0.000000  0.000002  0.000003  0.000026  0.000060  0.000052
                                 0.000042  0.000433 -0.000033 -0.000054 -0.000036 -0.000001 -0.000005 -0.000017 -0.000028 -0.000184
                                 0.000026  0.000002  0.000000  0.000003 -0.000000 -0.000060 -0.000000  0.000014 -0.000000  0.000001
                                 0.000000  0.000007  0.000000  0.000044  0.000000

   5.1   2   -20.6558  -69.6165 -0.000000 -0.000000 -0.000000 -0.000000 -0.000000 -0.000000 -0.000000 -0.000000  0.000000 -0.000001
                                 0.000001 -0.000004  0.000012 -0.000126  0.000222 -0.000198  0.000259 -0.000680  0.004025 -0.044037
                                 0.071678 -0.055087  0.037896 -0.019770  0.013168 -0.009886  0.002002  0.005369 -0.019336  0.000061
                                -0.001288  0.000298 -0.000000 -0.000000 -0.000000 -0.000000 -0.000000 -0.000001 -0.000001 -0.000009
                                -0.000003 -0.000064  0.000121 -0.001971  0.002904 -0.002309  0.009618 -0.013830  0.010065 -0.023350
                                 0.026578 -0.011621  0.007816 -0.012607 -0.001571 -0.000059  0.000016 -0.000000  0.000000 -0.000000
                                 0.000000 -0.000000  0.000000 -0.000002  0.000000 -0.000005  0.000000 -0.000011  0.000000 -0.000020
                                 0.000000  0.000019  0.000000 -0.001465  0.000000  0.003365  0.000000 -0.004659  0.000000  0.006125
                                 0.000000 -0.012073  0.000000  0.010775 -0.000000 -0.000491 -0.000000 -0.004550 -0.000000  0.000101
                                 0.000000 -0.000043 -0.000000  0.000009 -0.000000 -0.000140  0.000000  0.000295 -0.000000  0.001176
                                 0.000000 -0.001255 -0.000000  0.000028  0.000000  0.000000  0.000091  0.000000 -0.000000  0.000418
                                 0.000000  0.000000  0.000743  0.004237  0.020733  0.079660  0.231718  0.426234  0.339324  0.045935
                                -0.015990  0.020908  0.003939  0.005204  0.010784 -0.000071  0.000004 -0.001302  0.002756 -0.008871
                                -0.000772 -0.000778 -0.000034  0.000155 -0.000000 -0.001207  0.000000  0.001809 -0.000000  0.000079
                                -0.000000  0.000068  0.000000  0.000311  0.000000

   6.1   2   -19.7085 -126.5582 -0.000000 -0.000000 -0.000000 -0.000000 -0.000001 -0.000001 -0.000003 -0.000005 -0.000011 -0.000024
                                -0.000050 -0.000103 -0.000186 -0.000250  0.000006 -0.000091  0.000569  0.001320  0.000784 -0.000012
                                -0.000830 -0.000570 -0.001775 -0.000276 -0.000331  0.000060  0.000008  0.000153 -0.000818  0.000681
                                -0.000016 -0.000005 -0.000007 -0.000025 -0.000091 -0.000320 -0.001118 -0.003788 -0.011971 -0.034022
                                -0.081568 -0.152255 -0.185077 -0.030157 -0.003571  0.296780  0.488629  0.010977  0.284752  0.039711
                                 0.007510  0.000329  0.000807 -0.000649  0.000333 -0.000034  0.000003  0.000000  0.000000  0.000001
                                 0.000000  0.000003  0.000000  0.000013  0.000000  0.000019  0.000000  0.000081  0.000000  0.000204
                                 0.000000  0.000441  0.000000  0.000577  0.000000  0.000126  0.000000 -0.000343  0.000000  0.000443
                                 0.000000 -0.000608 -0.000000  0.000500  0.000000 -0.000170  0.000000 -0.000085  0.000000  0.000081
                                -0.000000 -0.000023  0.000000  0.000599 -0.000000 -0.001598  0.000000  0.001389 -0.000000 -0.000192
                                -0.000000  0.000020  0.000000  0.000084  0.000000  0.000000 -0.000042 -0.000000 -0.000000  0.000009
                                 0.000000  0.000000 -0.000000 -0.000001 -0.000005 -0.000019 -0.000059 -0.000059  0.000061  0.000069
                                 0.000023  0.000487 -0.000430 -0.000152 -0.000093  0.000001  0.000008 -0.000035 -0.000108 -0.000243
                                 0.000132 -0.000015 -0.000001  0.000025  0.000000  0.000022  0.000000  0.000029 -0.000000 -0.000002
                                 0.000000 -0.000025 -0.000000  0.000017 -0.000000

   7.1   2   -12.4420 -114.7077 -0.000000  0.000000 -0.000000 -0.000000 -0.000000 -0.000000 -0.000000 -0.000000 -0.000000 -0.000000
                                -0.000000 -0.000000 -0.000000 -0.000000 -0.000000 -0.000000  0.000000  0.000000  0.000000 -0.000000
                                 0.000000 -0.000000  0.000000 -0.000000  0.000000 -0.000000  0.000000 -0.000000 -0.000000  0.000000
                                -0.000000 -0.000000  0.000000  0.000000  0.000000  0.000000  0.000000  0.000000  0.000000  0.000000
                                 0.000000  0.000000  0.000000  0.000000 -0.000000 -0.000000 -0.000000  0.000000 -0.000000  0.000000
                                -0.000000  0.000000 -0.000000 -0.000000  0.000000 -0.000000  0.000000  0.000000  0.000149  0.000000
                                 0.001274  0.000000  0.007722  0.000000  0.031732  0.000000  0.096259  0.000000  0.214177  0.000000
                                 0.329835  0.000000  0.338625  0.000000  0.194926 -0.000000 -0.016783  0.000000  0.034139  0.000000
                                 0.018374 -0.000000 -0.006914  0.000000  0.005642 -0.000000 -0.000528  0.000000  0.000207  0.000000
                                -0.000047 -0.000000  0.000014  0.000000  0.000265 -0.000000 -0.000619  0.000000  0.000536 -0.000000
                                -0.000071  0.000000  0.000033  0.000000  0.000000  0.000193 -0.000000 -0.000000 -0.000105 -0.000000
                                 0.000000  0.000041 -0.000000 -0.000000 -0.000000 -0.000000 -0.000000 -0.000000 -0.000000  0.000000
                                 0.000000  0.000000 -0.000000 -0.000000 -0.000000 -0.000000  0.000000 -0.000000 -0.000000 -0.000000
                                 0.000000 -0.000000 -0.000000  0.000000 -0.000001  0.000000 -0.000007  0.000000 -0.000028 -0.000000
                                -0.000000 -0.000000 -0.000003  0.000000  0.000013

   8.1   2   -12.4380 -114.6780 -0.000000 -0.000000 -0.000000 -0.000000 -0.000000 -0.000000 -0.000001 -0.000002 -0.000003 -0.000007
                                -0.000015 -0.000031 -0.000056 -0.000079  0.000008 -0.000034  0.000178  0.000394  0.000426 -0.001542
                                 0.002291 -0.002245  0.000582 -0.000948  0.001055 -0.000653  0.001005 -0.000587 -0.001543  0.001238
                                -0.000109  0.000008  0.000000  0.000000  0.000000  0.000001  0.000002  0.000007  0.000021  0.000059
                                 0.000143  0.000274  0.000315  0.000079 -0.000138 -0.000595 -0.001696  0.000867 -0.000433  0.002394
                                -0.002322  0.000980 -0.000186 -0.001222  0.000620 -0.000096  0.000012  0.000148 -0.000000  0.001272
                                -0.000000  0.007707 -0.000000  0.031668 -0.000000  0.096052 -0.000000  0.213739 -0.000000  0.329257
                                -0.000000  0.338591 -0.000000  0.195479 -0.000000 -0.015924  0.000000  0.033700 -0.000000  0.019564
                                -0.000000 -0.008316  0.000000  0.006945 -0.000000 -0.001280  0.000000  0.000147 -0.000000  0.000078
                                 0.000000 -0.000031 -0.000000  0.001026 -0.000000 -0.003187  0.000000  0.002841 -0.000000 -0.000527
                                 0.000000  0.000067 -0.000000  0.000285  0.000080 -0.000000 -0.000057 -0.000113  0.000000 -0.000038
                                 0.000021 -0.000000 -0.000000 -0.000000 -0.000002 -0.000007 -0.000025 -0.000019  0.000057  0.000040
                                 0.000293  0.001089 -0.000598 -0.000115 -0.000059 -0.000001 -0.000000 -0.000059 -0.000341 -0.000681
                                 0.000220 -0.000015 -0.000001  0.000059  0.000000  0.000032  0.000000  0.000132  0.000000 -0.000002
                                 0.000000 -0.000045  0.000000  0.000064 -0.000000

   9.1   2    -3.9114  -55.1824 -0.000003 -0.000007 -0.000020 -0.000045 -0.000097 -0.000197 -0.000396 -0.000802 -0.001666 -0.003543
                                -0.007591 -0.015579 -0.028364 -0.037501 -0.000300 -0.013215  0.088953  0.238447  0.117611  0.328112
                                -0.773905  0.326971 -0.918693  0.003325 -0.099534  0.886598  0.501802 -0.013176  0.004309 -0.022863
                                 0.000105 -0.000100  0.000000  0.000000  0.000001  0.000002  0.000008  0.000029  0.000090  0.000265
                                 0.000612  0.001232  0.001241  0.002864 -0.004107  0.000309 -0.019854  0.020848 -0.019037  0.052907
                                -0.055439  0.035146 -0.009113 -0.019039 -0.006808 -0.001695  0.000484 -0.000001  0.000000 -0.000006
                                 0.000000 -0.000036 -0.000000 -0.000144 -0.000000 -0.000447 -0.000000 -0.000990 -0.000000 -0.001552
                                -0.000000 -0.001290  0.000000 -0.001482 -0.000000  0.001410  0.000000  0.003439 -0.000000 -0.003783
                                 0.000000  0.019165 -0.000000 -0.008985  0.000000 -0.006185 -0.000000 -0.005546 -0.000000 -0.001409
                                 0.000000  0.000014 -0.000000  0.000277 -0.000000 -0.005012  0.000000  0.006645 -0.000000 -0.003585
                                -0.000000 -0.001360  0.000000 -0.000070  0.000152 -0.000000  0.001403  0.000597 -0.000000 -0.001443
                                 0.000567 -0.000000 -0.000007 -0.000040 -0.000201 -0.000776 -0.002488 -0.004506 -0.003373  0.005928
                                 0.020290  0.030825  0.018850 -0.003411 -0.001943 -0.000309 -0.001847 -0.008594 -0.018241 -0.015877
                                -0.003342 -0.000798 -0.000095  0.002677 -0.000000  0.006050 -0.000000  0.002324  0.000000  0.000088
                                 0.000000 -0.001484  0.000000 -0.000399 -0.000000

  10.1   2    -2.5944  -48.9254  0.000000  0.000000  0.000001  0.000002  0.000005  0.000009  0.000019  0.000038  0.000078  0.000168
                                 0.000356  0.000741  0.001310  0.002022 -0.000438  0.001027 -0.004743 -0.009839 -0.014325  0.082986
                                -0.125666  0.112568 -0.045238  0.046699 -0.016260 -0.044002  0.003561 -0.053310 -0.040232 -0.033479
                                -0.006505  0.001401  0.000003  0.000009  0.000034  0.000119  0.000415  0.001409  0.004456  0.012742
                                 0.030684  0.058098  0.070328  0.009835 -0.008719 -0.142587 -0.301180  0.024614 -0.157280  0.409374
                                -0.109777  0.583199  0.240964 -0.017951 -0.018015 -0.002761  0.000718 -0.000001 -0.000000 -0.000009
                                 0.000000 -0.000056  0.000000 -0.000230  0.000000 -0.000699  0.000000 -0.001569  0.000000 -0.002421
                                 0.000000 -0.002294  0.000000  0.001565  0.000000 -0.006869  0.000000  0.016417 -0.000000 -0.023921
                                 0.000000  0.060909 -0.000000 -0.039141  0.000000 -0.008650  0.000000 -0.011976  0.000000 -0.002563
                                -0.000000 -0.000180 -0.000000  0.003785 -0.000000 -0.015388  0.000000  0.024351 -0.000000 -0.007285
                                 0.000000 -0.002657  0.000000  0.000377 -0.000009  0.000000  0.003388 -0.000028  0.000000 -0.002819
                                -0.000030 -0.000000 -0.000030 -0.000169 -0.000841 -0.003284 -0.010440 -0.020754 -0.020707  0.026357
                                 0.091434  0.091516  0.043992 -0.008688 -0.005381 -0.001292 -0.008473 -0.034105 -0.064384 -0.047402
                                -0.007493 -0.002249 -0.000326  0.007197 -0.000000  0.018944  0.000000  0.007844  0.000000  0.000287
                                 0.000000 -0.003593  0.000000 -0.002573 -0.000000

  11.1   2    -1.3226  -28.8691 -0.000000 -0.000001 -0.000003 -0.000006 -0.000013 -0.000027 -0.000054 -0.000110 -0.000229 -0.000487
                                -0.001044 -0.002143 -0.003902 -0.005177 -0.000021 -0.001842  0.012372  0.033298  0.016848  0.045198
                                -0.109292  0.047586 -0.144282  0.008693 -0.032425  0.200920  0.062330  0.004763  0.134853  0.023013
                                 0.016722 -0.003531  0.000001  0.000003  0.000010  0.000037  0.000128  0.000434  0.001374  0.003923
                                 0.009476  0.017880  0.021921  0.000033  0.001514 -0.048595 -0.078476 -0.019310 -0.025171  0.067285
                                 0.062757  0.157991  0.091596  0.115135  0.020469  0.005202 -0.001112  0.000013 -0.000000  0.000113
                                -0.000000  0.000691 -0.000000  0.002834 -0.000000  0.008757 -0.000000  0.019460 -0.000000  0.029598
                                -0.000000  0.025760 -0.000000  0.010228  0.000000 -0.026115 -0.000000 -0.013990  0.000000 -0.068359
                                -0.000000 -0.020759  0.000000 -0.095369 -0.000000 -0.040928  0.000000  0.026845 -0.000000  0.000194
                                 0.000000  0.001065 -0.000000 -0.010433 -0.000000  0.029066 -0.000000 -0.043830  0.000000 -0.001930
                                -0.000000  0.005015 -0.000000 -0.000807  0.000011  0.000000 -0.005277  0.000063 -0.000000  0.001572
                                 0.000230  0.000000  0.000159  0.000905  0.004488  0.017591  0.055938  0.115702  0.129197 -0.160469
                                -0.539922 -0.486960 -0.078058  0.032416  0.023521  0.001224  0.008505  0.029525  0.072502  0.112501
                                 0.011193  0.001229  0.000260 -0.003899  0.000000 -0.018020 -0.000000 -0.020931  0.000000 -0.000071
                                -0.000000  0.001976  0.000000  0.002267 -0.000000

  12.1   2    -0.6969  -29.1113 -0.000000 -0.000000 -0.000001 -0.000003 -0.000005 -0.000011 -0.000022 -0.000045 -0.000093 -0.000201
                                -0.000424 -0.000891 -0.001550 -0.002580  0.000810 -0.001487  0.006044  0.011032  0.023085 -0.165820
                                 0.260217 -0.223738  0.113844 -0.089064  0.033128  0.076201 -0.025796  0.087782  0.045927  0.104005
                                 0.010063 -0.003055  0.000000  0.000001  0.000004  0.000014  0.000049  0.000165  0.000530  0.001485
                                 0.003674  0.006683  0.009081 -0.009092  0.014071 -0.030221  0.018983 -0.082780  0.051867 -0.156844
                                 0.258789 -0.047606  0.091562  0.055033  0.032548  0.004557 -0.002438  0.000029  0.000000  0.000247
                                 0.000000  0.001510  0.000000  0.006206  0.000000  0.019154  0.000000  0.042657  0.000000  0.064644
                                 0.000000  0.056473  0.000000  0.012191  0.000000 -0.042320 -0.000000 -0.054355 -0.000000 -0.128657
                                -0.000000 -0.110641  0.000000 -0.158667 -0.000000 -0.134023 -0.000000 -0.042765 -0.000000 -0.001501
                                -0.000000 -0.000016  0.000000 -0.013097 -0.000000  0.043593  0.000000 -0.064821 -0.000000  0.008465
                                 0.000000 -0.005439  0.000000 -0.000774  0.000125 -0.000000 -0.009572  0.000136  0.000000  0.004699
                                 0.000474 -0.000000 -0.000039 -0.000222 -0.001103 -0.004324 -0.013809 -0.028710 -0.032984  0.048707
                                 0.125618  0.156085 -0.055784 -0.007613 -0.005991  0.008859  0.063792  0.230066  0.374140  0.224961
                                 0.028515  0.009612  0.001880 -0.013828 -0.000000 -0.039299  0.000000 -0.014565 -0.000000 -0.000637
                                -0.000000  0.005818 -0.000000  0.005861  0.000000

  13.1   2    -0.5579  -37.4049 -0.000000 -0.000000 -0.000000 -0.000000 -0.000000 -0.000000 -0.000000 -0.000000 -0.000000 -0.000000
                                -0.000000 -0.000000 -0.000000  0.000000 -0.000000  0.000000 -0.000000  0.000000 -0.000000  0.000000
                                -0.000000  0.000000 -0.000000  0.000000 -0.000000  0.000000 -0.000000  0.000000 -0.000000  0.000000
                                -0.000000  0.000000  0.000000  0.000000  0.000000  0.000000  0.000000  0.000000  0.000000  0.000000
                                 0.000000  0.000000  0.000000  0.000000 -0.000000  0.000000 -0.000000  0.000000 -0.000000  0.000000
                                -0.000000  0.000000 -0.000000 -0.000000  0.000000  0.000000 -0.000000  0.000000 -0.000047  0.000000
                                -0.000396  0.000000 -0.002428  0.000000 -0.009960  0.000000 -0.030808  0.000000 -0.068464  0.000000
                                -0.104083  0.000000 -0.088924 -0.000000 -0.042205  0.000000  0.123548 -0.000000  0.014012  0.000000
                                 0.333818 -0.000000 -0.071206  0.000000  0.450536 -0.000000  0.253122  0.000000  0.130662  0.000000
                                 0.030441 -0.000000 -0.003009  0.000000  0.001072 -0.000000 -0.002921  0.000000  0.003910 -0.000000
                                -0.000340  0.000000 -0.003315 -0.000000 -0.000000  0.000312  0.000000  0.000000  0.002195 -0.000000
                                 0.000000  0.002693 -0.000000 -0.000000 -0.000000 -0.000000 -0.000000  0.000000  0.000000  0.000000
                                -0.000000  0.000000 -0.000000 -0.000000 -0.000000  0.000000  0.000000  0.000000  0.000000  0.000000
                                 0.000000  0.000000  0.000000 -0.000000  0.002695 -0.000000  0.008709  0.000000  0.003168  0.000000
                                 0.000163  0.000000 -0.002325  0.000000 -0.001948

  14.1   2    -0.2874  -21.6643 -0.000001 -0.000002 -0.000006 -0.000013 -0.000027 -0.000055 -0.000110 -0.000223 -0.000463 -0.000984
                                -0.002109 -0.004327 -0.007892 -0.010401 -0.000159 -0.003620  0.024944  0.068056  0.032127  0.115080
                                -0.259077  0.119881 -0.311588  0.015414 -0.033520  0.385050  0.344684 -0.012972 -0.295581 -0.605598
                                -0.183766  0.002738  0.000000  0.000000  0.000001  0.000005  0.000018  0.000062  0.000192  0.000560
                                 0.001321  0.002589  0.002843  0.003369 -0.004785 -0.002860 -0.027866  0.021171 -0.020721  0.050573
                                -0.037057  0.046208  0.001881  0.017324  0.020328  0.020925  0.000124 -0.000015  0.000000 -0.000125
                                 0.000000 -0.000767  0.000000 -0.003150  0.000000 -0.009729  0.000000 -0.021669  0.000000 -0.032825
                                 0.000000 -0.028540  0.000000 -0.006128 -0.000000  0.025775  0.000000  0.016881 -0.000000  0.096073
                                -0.000000 -0.009018 -0.000000  0.137674  0.000000  0.084963 -0.000000  0.060757  0.000000  0.028070
                                 0.000000  0.001881 -0.000000 -0.004892 -0.000000  0.010006 -0.000000 -0.015783  0.000000 -0.009588
                                -0.000000 -0.010111 -0.000000 -0.000053 -0.000305  0.000000 -0.000179 -0.000358 -0.000000  0.000803
                                 0.000092  0.000000 -0.000009 -0.000049 -0.000245 -0.000946 -0.003110 -0.005497 -0.003775  0.015749
                                 0.031469  0.078973  0.108263 -0.006149 -0.003207  0.003926  0.029044  0.099072  0.160160  0.146775
                                 0.030173  0.003163  0.000769  0.003054  0.000000  0.007913 -0.000000 -0.000882  0.000000  0.000219
                                -0.000000 -0.001643  0.000000 -0.000828 -0.000000

  15.1   0     0.0146   -9.0004 -0.000000 -0.000000 -0.000001 -0.000002 -0.000005 -0.000010 -0.000021 -0.000042 -0.000089 -0.000181
                                -0.000410 -0.000779 -0.001636 -0.000624 -0.002424  0.001447  0.001916  0.020546 -0.040406  0.554618
                                -0.933672  0.736520 -0.588057  0.313505 -0.271763  0.313106 -0.119999  0.312964 -0.576083  0.161611
                                -1.198853  1.435410  0.000000  0.000001  0.000004  0.000014  0.000049  0.000169  0.000528  0.001530
                                 0.003631  0.007055  0.007958  0.006912 -0.009699 -0.010668 -0.064904  0.041509 -0.045208  0.114580
                                -0.073419  0.112500  0.030863 -0.076865 -0.404617  0.069227 -0.555004 -0.000009 -0.000000 -0.000073
                                -0.000000 -0.000451 -0.000000 -0.001835 -0.000000 -0.005724 -0.000000 -0.012591 -0.000000 -0.019519
                                -0.000000 -0.015422 -0.000000 -0.024713  0.000000  0.053485 -0.000000 -0.027186  0.000000  0.093631
                                -0.000000 -0.066010  0.000000  0.129967 -0.000000  0.040584  0.000000  0.010969 -0.000000 -0.001981
                                 0.000000  0.149901 -0.000000 -0.003810  0.000000  0.010316 -0.000000 -0.014569  0.000000 -0.002509
                                -0.000000 -0.028845  0.000000 -0.000443  0.000069  0.000000 -0.000161  0.000428  0.000000 -0.001340
                                 0.000675  0.000000  0.000005  0.000027  0.000125  0.000539  0.001433  0.006343  0.015305  0.008449
                                -0.039014  0.131325  0.430128 -0.012552 -0.005511  0.002301  0.017097  0.058086  0.097052  0.043834
                                -0.090549  0.001744  0.000445  0.002624 -0.000000  0.005591 -0.000000  0.007426 -0.000000  0.000171
                                -0.000000 -0.001493 -0.000000  0.000235  0.000000

  16.1   0     0.0299   -5.4582 -0.000000 -0.000000 -0.000000 -0.000001 -0.000001 -0.000003 -0.000006 -0.000012 -0.000024 -0.000051
                                -0.000111 -0.000221 -0.000424 -0.000410 -0.000243  0.000021  0.001022  0.004299 -0.002954  0.059445
                                -0.102540  0.078665 -0.070401  0.032710 -0.026004  0.033681  0.058768  0.045572 -0.914187 -1.319700
                                -2.099198  1.650917 -0.000000 -0.000000 -0.000000 -0.000002 -0.000006 -0.000020 -0.000063 -0.000176
                                -0.000437 -0.000793 -0.001082  0.001096 -0.001680  0.003553 -0.001663  0.008680 -0.004861  0.016614
                                -0.031998  0.014718 -0.012723 -0.555556 -0.739820 -0.791559  1.198797 -0.000002  0.000000 -0.000012
                                 0.000000 -0.000085  0.000000 -0.000305  0.000000 -0.001087  0.000000 -0.002017  0.000000 -0.004171
                                 0.000000  0.000284  0.000000 -0.054020 -0.000000  0.100783  0.000000 -0.093808 -0.000000  0.106394
                                 0.000000 -0.155505 -0.000000  0.146895  0.000000 -0.102856 -0.000000 -0.189519  0.000000 -0.238376
                                -0.000000 -0.049478  0.000000 -0.000252  0.000000 -0.000952 -0.000000  0.002235  0.000000 -0.022526
                                 0.000000 -0.068008 -0.000000 -0.000010  0.000003 -0.000000  0.000365  0.000088 -0.000000 -0.009662
                                 0.000126 -0.000000  0.000006  0.000034  0.000158  0.000686  0.001814  0.008172  0.019394  0.007687
                                -0.070687  0.702831  2.591149 -0.015357 -0.007135 -0.000533 -0.005126 -0.003566 -0.041623 -0.547311
                                -0.642252  0.001849  0.000029 -0.000637  0.000000  0.022968  0.000000  0.103424  0.000000  0.000110
                                 0.000000 -0.001164  0.000000 -0.003848 -0.000000

                                   1 2px     1 2px     1 2px     1 2px     1 2px     1 2px     1 2px     1 2px     1 2px     1 2px  
                                   1 2px     1 2px     1 2px     1 2px     1 2px     1 2px     1 2px     1 2px     1 2px     1 2px  
                                   1 2px     1 2px     1 2px     1 2px     1 2px     1 3d1+    1 3d1+    1 3d1+    1 3d1+    1 3d1+ 
                                   1 3d1+    1 3d1+    1 3d1+    1 3d1+    1 3d1+    1 3d1+    1 3d1+    1 3d1+    1 3d1+    1 3d1+ 
                                   1 3d1+    1 3d1+    1 3d1+    1 4f1+    1 4f3+    1 4f1+    1 4f3+    1 4f1+    1 4f3+    1 4f1+ 
                                   1 4f3+    1 4f1+    1 4f3+    1 5g1+    1 5g3+    1 5g1+    1 5g3+    1 5g1+    1 5g3+    2 2px  
                                   2 2px     2 2px     2 2px     2 2px     2 2px     2 2px     2 2px     2 3d1+    2 3d1+    2 3d1+ 
                                   2 3d1+    2 4f1+    2 4f3+    2 4f1+    2 4f3+ 

   1.2   2  -114.1200 -371.1772  0.000016  0.000055  0.000203  0.000713  0.002485  0.008366  0.026117  0.072482  0.167211  0.296000
                                 0.348863  0.212884  0.000856  0.050279  0.007392 -0.004448  0.002468 -0.002314  0.001913 -0.000420
                                 0.000057 -0.000024  0.000007 -0.000003  0.000001 -0.000000  0.000000 -0.000001 -0.000001  0.000009
                                 0.000018  0.000011 -0.000001 -0.000003  0.000000 -0.000002  0.000001 -0.000000  0.000002  0.000003
                                -0.000003  0.000001  0.000000  0.000004 -0.000011 -0.000013 -0.000006  0.000010  0.000002 -0.000001
                                -0.000002 -0.000001  0.000000  0.000001 -0.000000 -0.000000 -0.000000  0.000000 -0.000000 -0.000000
                                -0.000001 -0.000001 -0.000003  0.000003 -0.000001  0.000001  0.000000 -0.000000  0.000001 -0.000002
                                 0.000000  0.000000 -0.000000 -0.000000 -0.000000

   2.2   2   -19.6976 -126.5114 -0.000007 -0.000025 -0.000091 -0.000320 -0.001118 -0.003789 -0.011973 -0.034029 -0.081586 -0.152287
                                -0.185118 -0.030041 -0.003735  0.296989  0.488425  0.011585  0.284210  0.040035  0.007002  0.000470
                                 0.000744 -0.000104  0.000083 -0.000020  0.000008  0.000000  0.000001  0.000007  0.000027  0.000073
                                 0.000185  0.000343  0.000315  0.000091  0.000131  0.000002  0.000056 -0.000014 -0.000001 -0.000021
                                 0.000014  0.000013  0.000003  0.000442 -0.000256 -0.001100  0.000902  0.000938 -0.000655 -0.000107
                                 0.000100  0.000042 -0.000016  0.000057 -0.000000 -0.000058  0.000000  0.000018  0.000000  0.000001
                                 0.000007  0.000012  0.000021 -0.000025 -0.000022 -0.000001  0.000000 -0.000002 -0.000003  0.000006
                                -0.000000  0.000004  0.000000 -0.000003 -0.000001

   3.2   2   -12.4380 -114.6785  0.000000  0.000000  0.000000  0.000000  0.000001  0.000004  0.000011  0.000032  0.000076  0.000143
                                 0.000164  0.000072 -0.000064 -0.000197 -0.000656  0.000163 -0.000575  0.000606 -0.000557  0.000316
                                -0.000105  0.000088  0.000051 -0.000002  0.000003  0.000148  0.001272  0.007710  0.031680  0.096092
                                 0.213817  0.329375  0.338546  0.196012 -0.017232  0.034832  0.018459 -0.006846  0.005696 -0.000587
                                 0.000357 -0.000032  0.000018  0.000816  0.000002 -0.002386 -0.000005  0.002019  0.000005 -0.000284
                                -0.000000  0.000131 -0.000000  0.000253 -0.000049 -0.000085  0.000070  0.000027 -0.000014  0.000001
                                 0.000009 -0.000035  0.000024 -0.000236 -0.000037 -0.000012 -0.000001 -0.000009 -0.000040  0.000075
                                -0.000000  0.000023 -0.000001 -0.000011  0.000003

   4.2   2    -2.5042  -49.5834  0.000003  0.000009  0.000035  0.000124  0.000432  0.001467  0.004643  0.013261  0.031987  0.060415
                                 0.073663  0.004775 -0.000999 -0.155491 -0.284988 -0.018515 -0.128341  0.325372  0.016818  0.545757
                                 0.285066  0.031510 -0.001528  0.001452 -0.000378 -0.000000 -0.000002 -0.000009 -0.000039 -0.000102
                                -0.000276 -0.000354 -0.000725  0.005033 -0.009257  0.010204 -0.008656  0.013495 -0.008441 -0.004436
                                -0.002681 -0.000583  0.000170  0.001956  0.002573 -0.007126 -0.003644  0.010863  0.006918 -0.001425
                                 0.002844 -0.000989  0.000706  0.000005 -0.000001  0.001109  0.000010 -0.001236  0.000016  0.000348
                                 0.002469  0.008433  0.015188  0.007304 -0.000091  0.000350  0.000073 -0.002049 -0.006176 -0.001472
                                -0.000092  0.001771  0.000011  0.001200  0.000020

   5.2   2    -0.7046  -28.3550 -0.000000 -0.000001 -0.000003 -0.000012 -0.000042 -0.000144 -0.000455 -0.001301 -0.003135 -0.005942
                                -0.007196 -0.000867  0.000806  0.015154  0.030742 -0.000019  0.013180 -0.039895  0.000122 -0.070127
                                -0.019431 -0.030117 -0.001309  0.008725 -0.002550 -0.000025 -0.000212 -0.001290 -0.005318 -0.016354
                                -0.036590 -0.054980 -0.049662  0.008921  0.004125  0.065653  0.111970  0.049652  0.176371  0.142603
                                 0.009190  0.008797  0.000584  0.011868 -0.000152 -0.033209  0.000204  0.048813 -0.000298  0.013565
                                -0.000065 -0.009083  0.000042  0.000648  0.000087  0.008316  0.000089  0.000857  0.000258  0.008949
                                 0.065623  0.224177  0.367074  0.280665  0.008266  0.007533  0.001774 -0.011559 -0.041985 -0.036266
                                -0.000601  0.007374  0.000003  0.008483  0.000027

   6.2   +    -0.4592  -32.8530 -0.000000 -0.000001 -0.000004 -0.000015 -0.000054 -0.000183 -0.000575 -0.001655 -0.003955 -0.007600
                                -0.008856 -0.004661  0.006352  0.014942  0.057577 -0.027029  0.037201 -0.103718  0.058727 -0.119774
                                -0.016957  0.062337  0.057516 -0.006591  0.000853  0.000040  0.000343  0.002102  0.008626  0.026676
                                 0.059314  0.090129  0.076851  0.036955 -0.107947 -0.011669 -0.294852  0.064340 -0.400361 -0.204360
                                -0.133714 -0.027896 -0.003499  0.007357  0.000262 -0.009906 -0.000086  0.017893  0.000486  0.027272
                                -0.000293  0.010570 -0.000292  0.000488  0.000437  0.000195  0.001079  0.003295  0.000738  0.007077
                                 0.052554  0.179460  0.293283  0.280901  0.057705  0.005500  0.001375  0.003095  0.004878 -0.014630
                                 0.000233 -0.001952 -0.000004 -0.002123 -0.000078

   7.2   0     0.0252   -6.1756 -0.000000 -0.000000 -0.000001 -0.000004 -0.000014 -0.000052 -0.000148 -0.000483 -0.000984 -0.002405
                                -0.001057 -0.018812  0.027681 -0.017023  0.100274 -0.129186  0.096886 -0.228898  0.244894 -0.127163
                                 0.042858 -0.039580  0.265126 -0.488074  1.244064 -0.000003 -0.000028 -0.000169 -0.000694 -0.002152
                                -0.004766 -0.007289 -0.006008 -0.005508  0.013759 -0.004164  0.029927 -0.015274  0.040781  0.018154
                                 0.028365 -0.012313 -0.112695 -0.001975  0.000003  0.004837  0.000221 -0.007479 -0.000192 -0.001990
                                -0.000118  0.005480 -0.000571  0.000039 -0.000035 -0.000754 -0.000090  0.001822 -0.000034 -0.001014
                                -0.007182 -0.029194 -0.042623 -0.089989  0.051904 -0.001634 -0.000249 -0.000507  0.002982  0.008439
                                -0.000002 -0.000249 -0.000007 -0.002111  0.000047

   8.2   0     0.0779   -8.8802  0.000000  0.000001  0.000003  0.000010  0.000039  0.000122  0.000424  0.001083  0.003005  0.004517
                                 0.009536 -0.039750  0.059195 -0.062230  0.167183 -0.280339  0.187496 -0.422114  0.523838 -0.154175
                                 0.158002 -0.188133  0.316356 -1.581570  1.075702  0.000006  0.000055  0.000305  0.001377  0.003850
                                 0.009715  0.011565  0.020763 -0.142014  0.252531 -0.262118  0.219267 -0.442553  0.323109 -0.168818
                                 0.199223 -0.185167  0.631329  0.003113 -0.000029 -0.007881 -0.000435  0.011634  0.000338  0.007257
                                 0.000362  0.036606  0.001325  0.000429  0.000062 -0.001054  0.000180  0.004723  0.000023  0.001677
                                 0.012809  0.040192  0.072379 -0.021753  0.060391  0.000626  0.000285  0.001780  0.001943  0.065727
                                 0.000044 -0.000055  0.000016 -0.006050 -0.000094

                                   1 2py     1 2py     1 2py     1 2py     1 2py     1 2py     1 2py     1 2py     1 2py     1 2py  
                                   1 2py     1 2py     1 2py     1 2py     1 2py     1 2py     1 2py     1 2py     1 2py     1 2py  
                                   1 2py     1 2py     1 2py     1 2py     1 2py     1 3d1-    1 3d1-    1 3d1-    1 3d1-    1 3d1- 
                                   1 3d1-    1 3d1-    1 3d1-    1 3d1-    1 3d1-    1 3d1-    1 3d1-    1 3d1-    1 3d1-    1 3d1- 
                                   1 3d1-    1 3d1-    1 3d1-    1 4f1-    1 4f3-    1 4f1-    1 4f3-    1 4f1-    1 4f3-    1 4f1- 
                                   1 4f3-    1 4f1-    1 4f3-    1 5g1-    1 5g3-    1 5g1-    1 5g3-    1 5g1-    1 5g3-    2 2py  
                                   2 2py     2 2py     2 2py     2 2py     2 2py     2 2py     2 2py     2 3d1-    2 3d1-    2 3d1- 
                                   2 3d1-    2 4f1-    2 4f3-    2 4f1-    2 4f3- 

   1.3   2  -114.1200 -371.1772  0.000016  0.000055  0.000203  0.000713  0.002485  0.008366  0.026117  0.072482  0.167211  0.296000
                                 0.348863  0.212884  0.000856  0.050279  0.007392 -0.004448  0.002468 -0.002314  0.001913 -0.000420
                                 0.000057 -0.000024  0.000007 -0.000003  0.000001 -0.000000  0.000000 -0.000001 -0.000001  0.000009
                                 0.000018  0.000011 -0.000001 -0.000003  0.000000 -0.000002  0.000001 -0.000000  0.000002  0.000003
                                -0.000003  0.000001  0.000000  0.000004  0.000011 -0.000013  0.000006  0.000010 -0.000002 -0.000001
                                 0.000002 -0.000001 -0.000000  0.000001  0.000000 -0.000000  0.000000  0.000000  0.000000 -0.000000
                                -0.000001 -0.000001 -0.000003  0.000003 -0.000001  0.000001  0.000000 -0.000000  0.000001 -0.000002
                                 0.000000  0.000000  0.000000 -0.000000  0.000000

   2.3   2   -19.6976 -126.5114 -0.000007 -0.000025 -0.000091 -0.000320 -0.001118 -0.003789 -0.011973 -0.034029 -0.081586 -0.152287
                                -0.185118 -0.030041 -0.003735  0.296989  0.488425  0.011585  0.284210  0.040035  0.007002  0.000470
                                 0.000744 -0.000104  0.000083 -0.000020  0.000008  0.000000  0.000001  0.000007  0.000027  0.000073
                                 0.000185  0.000343  0.000315  0.000091  0.000131  0.000002  0.000056 -0.000014 -0.000001 -0.000021
                                 0.000014  0.000013  0.000003  0.000442  0.000256 -0.001100 -0.000902  0.000938  0.000655 -0.000107
                                -0.000100  0.000042  0.000016  0.000057  0.000000 -0.000058 -0.000000  0.000018 -0.000000  0.000001
                                 0.000007  0.000012  0.000021 -0.000025 -0.000022 -0.000001  0.000000 -0.000002 -0.000003  0.000006
                                -0.000000  0.000004 -0.000000 -0.000003  0.000001

   3.3   2   -12.4380 -114.6785  0.000000  0.000000  0.000000  0.000000  0.000001  0.000004  0.000011  0.000032  0.000076  0.000143
                                 0.000164  0.000072 -0.000064 -0.000197 -0.000656  0.000163 -0.000575  0.000606 -0.000557  0.000316
                                -0.000105  0.000088  0.000051 -0.000002  0.000003  0.000148  0.001272  0.007710  0.031680  0.096092
                                 0.213817  0.329375  0.338546  0.196012 -0.017232  0.034832  0.018459 -0.006846  0.005696 -0.000587
                                 0.000357 -0.000032  0.000018  0.000816 -0.000002 -0.002386  0.000005  0.002019 -0.000005 -0.000284
                                 0.000000  0.000131  0.000000  0.000253  0.000049 -0.000085 -0.000070  0.000027  0.000014  0.000001
                                 0.000009 -0.000035  0.000024 -0.000236 -0.000037 -0.000012 -0.000001 -0.000009 -0.000040  0.000075
                                -0.000000  0.000023  0.000001 -0.000011 -0.000003

   4.3   2    -2.5042  -49.5834  0.000003  0.000009  0.000035  0.000124  0.000432  0.001467  0.004643  0.013261  0.031987  0.060415
                                 0.073663  0.004775 -0.000999 -0.155491 -0.284988 -0.018515 -0.128341  0.325372  0.016818  0.545757
                                 0.285066  0.031510 -0.001528  0.001452 -0.000378 -0.000000 -0.000002 -0.000009 -0.000039 -0.000102
                                -0.000276 -0.000354 -0.000725  0.005033 -0.009257  0.010204 -0.008656  0.013495 -0.008441 -0.004436
                                -0.002681 -0.000583  0.000170  0.001956 -0.002573 -0.007126  0.003644  0.010863 -0.006918 -0.001425
                                -0.002844 -0.000989 -0.000706  0.000005  0.000001  0.001109 -0.000010 -0.001236 -0.000016  0.000348
                                 0.002469  0.008433  0.015188  0.007304 -0.000091  0.000350  0.000073 -0.002049 -0.006176 -0.001472
                                -0.000092  0.001771 -0.000011  0.001200 -0.000020

   5.3   2    -0.7046  -28.3550 -0.000000 -0.000001 -0.000003 -0.000012 -0.000042 -0.000144 -0.000455 -0.001301 -0.003135 -0.005942
                                -0.007196 -0.000867  0.000806  0.015154  0.030742 -0.000019  0.013180 -0.039895  0.000122 -0.070127
                                -0.019431 -0.030117 -0.001309  0.008725 -0.002550 -0.000025 -0.000212 -0.001290 -0.005318 -0.016354
                                -0.036590 -0.054980 -0.049662  0.008921  0.004125  0.065653  0.111970  0.049652  0.176371  0.142603
                                 0.009190  0.008797  0.000584  0.011868  0.000152 -0.033209 -0.000204  0.048813  0.000298  0.013565
                                 0.000065 -0.009083 -0.000042  0.000648 -0.000087  0.008316 -0.000089  0.000857 -0.000258  0.008949
                                 0.065623  0.224177  0.367074  0.280665  0.008266  0.007533  0.001774 -0.011559 -0.041985 -0.036266
                                -0.000601  0.007374 -0.000003  0.008483 -0.000027

   6.3   +    -0.4592  -32.8530 -0.000000 -0.000001 -0.000004 -0.000015 -0.000054 -0.000183 -0.000575 -0.001655 -0.003955 -0.007600
                                -0.008856 -0.004661  0.006352  0.014942  0.057577 -0.027029  0.037201 -0.103718  0.058727 -0.119774
                                -0.016957  0.062337  0.057516 -0.006591  0.000853  0.000040  0.000343  0.002102  0.008626  0.026676
                                 0.059314  0.090129  0.076851  0.036955 -0.107947 -0.011669 -0.294852  0.064340 -0.400361 -0.204360
                                -0.133714 -0.027896 -0.003499  0.007357 -0.000262 -0.009906  0.000086  0.017893 -0.000486  0.027272
                                 0.000293  0.010570  0.000292  0.000488 -0.000437  0.000195 -0.001079  0.003295 -0.000738  0.007077
                                 0.052554  0.179460  0.293283  0.280901  0.057705  0.005500  0.001375  0.003095  0.004878 -0.014630
                                 0.000233 -0.001952  0.000004 -0.002123  0.000078

   7.3   0     0.0252   -6.1756 -0.000000 -0.000000 -0.000001 -0.000004 -0.000014 -0.000052 -0.000148 -0.000483 -0.000984 -0.002405
                                -0.001057 -0.018812  0.027681 -0.017023  0.100274 -0.129186  0.096886 -0.228898  0.244894 -0.127163
                                 0.042858 -0.039580  0.265126 -0.488074  1.244064 -0.000003 -0.000028 -0.000169 -0.000694 -0.002152
                                -0.004766 -0.007289 -0.006008 -0.005508  0.013759 -0.004164  0.029927 -0.015274  0.040781  0.018154
                                 0.028365 -0.012313 -0.112695 -0.001975 -0.000003  0.004837 -0.000221 -0.007479  0.000192 -0.001990
                                 0.000118  0.005480  0.000571  0.000039  0.000035 -0.000754  0.000090  0.001822  0.000034 -0.001014
                                -0.007182 -0.029194 -0.042623 -0.089989  0.051904 -0.001634 -0.000249 -0.000507  0.002982  0.008439
                                -0.000002 -0.000249  0.000007 -0.002111 -0.000047

   8.3   0     0.0779   -8.8802  0.000000  0.000001  0.000003  0.000010  0.000039  0.000122  0.000424  0.001083  0.003005  0.004517
                                 0.009536 -0.039750  0.059195 -0.062230  0.167183 -0.280339  0.187496 -0.422114  0.523838 -0.154175
                                 0.158002 -0.188133  0.316356 -1.581570  1.075702  0.000006  0.000055  0.000305  0.001377  0.003850
                                 0.009715  0.011565  0.020763 -0.142014  0.252531 -0.262118  0.219267 -0.442553  0.323109 -0.168818
                                 0.199223 -0.185167  0.631329  0.003113  0.000029 -0.007881  0.000435  0.011634 -0.000338  0.007257
                                -0.000362  0.036606 -0.001325  0.000429 -0.000062 -0.001054 -0.000180  0.004723 -0.000023  0.001677
                                 0.012809  0.040192  0.072379 -0.021753  0.060391  0.000626  0.000285  0.001780  0.001943  0.065727
                                 0.000044 -0.000055 -0.000016 -0.006050  0.000094

                                   1 3d2-    1 3d2-    1 3d2-    1 3d2-    1 3d2-    1 3d2-    1 3d2-    1 3d2-    1 3d2-    1 3d2- 
                                   1 3d2-    1 3d2-    1 3d2-    1 3d2-    1 3d2-    1 3d2-    1 3d2-    1 3d2-    1 4f2-    1 4f2- 
                                   1 4f2-    1 4f2-    1 4f2-    1 5g2-    1 5g4-    1 5g2-    1 5g4-    1 5g2-    1 5g4-    2 3d2- 
                                   2 3d2-    2 3d2-    2 3d2-    2 4f2-    2 4f2- 

   1.4   2   -12.4264 -114.6229  0.000148  0.001272  0.007706  0.031664  0.096041  0.213697  0.329233  0.338594  0.196548 -0.017652
                                 0.035096  0.018320 -0.006763  0.005670 -0.000442  0.000240 -0.000039  0.000013  0.000268 -0.000626
                                 0.000546 -0.000075  0.000024  0.000142 -0.000000 -0.000026  0.000000  0.000022 -0.000000 -0.000000
                                 0.000000 -0.000017  0.000000 -0.000002  0.000004

   2.4   +    -0.6181  -37.8448 -0.000047 -0.000402 -0.002462 -0.010104 -0.031240 -0.069467 -0.105553 -0.090246 -0.042692  0.122594
                                 0.015857  0.336886 -0.063690  0.451925  0.251852  0.116324  0.024049 -0.002657  0.001642 -0.002055
                                 0.003601 -0.002606 -0.004888  0.000721 -0.000000  0.002630 -0.000000  0.003262 -0.000000  0.002571
                                 0.007728  0.002945  0.000148 -0.002122 -0.001521

   3.4   0     0.0881   -6.6413  0.000002  0.000029  0.000105  0.000697  0.001290  0.005296  0.001355  0.024087 -0.305687  0.554592
                                -0.542391  0.529049 -0.923028  0.759475 -0.295164  0.290496 -0.454842  1.236066 -0.000621  0.004019
                                -0.004792  0.001827 -0.006371 -0.000073  0.000000  0.000012  0.000000 -0.000609 -0.000000  0.000514
                                 0.000878  0.006352  0.000010  0.000173 -0.000945

   4.4   0     0.2787  -10.5321 -0.000013 -0.000069 -0.000622 -0.001795 -0.008021 -0.010908 -0.035664  0.035423 -0.892213  1.640778
                                -1.555577  1.664170 -2.721891  2.410999 -0.797286  0.926010 -1.890563  0.916370  0.001722 -0.008552
                                 0.010667 -0.003126  0.007636 -0.000149 -0.000000  0.001524 -0.000000 -0.002175  0.000000 -0.000633
                                -0.012852  0.010408 -0.000233 -0.000309 -0.001420

 HOMO     14.1    -0.287420 =      -7.8211eV
 LUMO     15.1     0.014610 =       0.3976eV
 LUMO-HOMO         0.302029 =       8.2186eV


 **********************************************************************************************************************************
 DATASETS  * FILE   NREC   LENGTH (MB)   RECORD NAMES
              1      22       22.21       500      610      700      900      950      970     1000      129      960     1700   
                                          VAR    BASINP    GEOM    SYMINP    ZMAT    AOBASIS   BASIS     P2S    ABASIS    OPER   
                                         1101     1401     1411     1412     1650     1100     1400     1410     1200     1210   
                                          SR      EKINR    POTR     PVPR    MOLCAS      S      EKIN      POT      H0       H01  
                                         1080     1600   
                                         AOSYM     SMH  

              2       4        3.76       700     1000      520     2100   
                                         GEOM     BASIS   MCVARS     RHF  

 PROGRAMS   *        TOTAL       RHF       INT
 CPU TIMES  *        49.70      4.45     45.05
 REAL TIME  *        55.73 SEC
 DISK USED  *         4.33 GB      
 SF USED    *         0.14 MB      
 GA USED    *         0.00 MB       (max)       0.00 MB       (current)
 **********************************************************************************************************************************
 SETTING SCF            =     -4855.94417721  AU                              
 SETTING _CC_NORM_MAX   =         2.00000000                                  


 PROGRAM * CCSD (Restricted open-shell coupled cluster)     Authors: C. Hampel, H.-J. Werner, 1991, M. Deegan, P.J. Knowles, 1992


 Convergence thresholds:  THRVAR = 1.00D-08  THRDEN = 1.06D-06

 CCSD(T)     terms to be evaluated (factor= 1.000)


 Number of closed-shell orbitals:  25 (  14   5   5   1 )
 Number of active  orbitals:        3 (   0   1   1   1 )
 Number of external orbitals:     302 ( 131  69  69  33 )

 Memory could be reduced to 344.84 Mwords without degradation in triples

 Number of N-1 electron functions:              53
 Number of N-2 electron functions:            1378
 Number of singly external CSFs:              5310
 Number of doubly external CSFs:          25170062
 Total number of CSFs:                    25175372

 Molecular orbitals read from record     2100.2  Type=RHF/CANONICAL (state 1.1)

 Integral transformation finished. Total CPU:  12.51 sec, npass=  1  Memory used:  37.74 MW

 Starting RMP2 calculation

 Wavefunction is spin-projected

 ITER.      SQ.NORM     CORR.ENERGY   TOTAL ENERGY   ENERGY CHANGE        DEN1      VAR(S)    VAR(P)  DIIS     TIME
   1      1.23950795    -1.88970854 -4857.83388576    -1.88970854    -0.01105541  0.12D-03  0.42D-02  1  1    16.19
   2      1.25202084    -1.90233580 -4857.84651301    -0.01262725    -0.00019470  0.44D-05  0.12D-03  2  2    19.92
   3      1.25414116    -1.90348419 -4857.84766141    -0.00114840    -0.00000626  0.16D-06  0.45D-05  3  3    23.88
   4      1.25440578    -1.90355011 -4857.84772733    -0.00006592    -0.00000018  0.53D-08  0.12D-06  4  4    30.81
   5      1.25442931    -1.90355577 -4857.84773299    -0.00000566    -0.00000000  0.23D-09  0.26D-08  5  5    40.11
   6      1.25443046    -1.90355597 -4857.84773319    -0.00000020    -0.00000000  0.24D-10  0.67D-10  6  6    48.25

 Norm of t1 vector:      0.06250086      S-energy:    -0.00988008      T1 diagnostic:  0.00026351
 Norm of t2 vector:      0.50052382      P-energy:    -1.89367589
                                         Alpha-Beta:  -1.28649105
                                         Alpha-Alpha: -0.32171062
                                         Beta-Beta:   -0.28547422

 Spin contamination <S**2-Sz**2-Sz>     0.00000000
  Reference energy                  -4855.944177213276
  RHF-RMP2 correlation energy          -1.903555972530
 !RHF-RMP2 energy                   -4857.847733185806
 (NB above energy spin projected)

 Starting RCCSD calculation

 ITER.      SQ.NORM     CORR.ENERGY   TOTAL ENERGY   ENERGY CHANGE        DEN1      VAR(S)    VAR(P)  DIIS     TIME
   1      1.18541402    -1.75627172 -4857.70044893    -1.75627172    -0.03376133  0.46D-02  0.45D-02  0  0    94.10
   2      1.20416338    -1.78656241 -4857.73073962    -0.03029069    -0.00285933  0.42D-03  0.76D-03  1  1   138.86
   3      1.20986364    -1.78622737 -4857.73040458     0.00033504    -0.00074424  0.33D-03  0.14D-03  2  2   186.09
   4      1.21914492    -1.78994566 -4857.73412287    -0.00371829    -0.00010914  0.51D-04  0.19D-04  3  3   231.25
   5      1.22284957    -1.79063748 -4857.73481469    -0.00069182    -0.00002198  0.12D-04  0.33D-05  4  4   276.43
   6      1.22454392    -1.79081562 -4857.73499283    -0.00017814    -0.00000402  0.24D-05  0.63D-06  5  5   321.10
   7      1.22489368    -1.79086383 -4857.73504104    -0.00004821    -0.00000110  0.76D-06  0.16D-06  6  6   366.89
   8      1.22502480    -1.79087931 -4857.73505653    -0.00001548    -0.00000041  0.31D-06  0.54D-07  7  7   408.59
   9      1.22506576    -1.79088323 -4857.73506044    -0.00000392    -0.00000017  0.14D-06  0.20D-07  8  8   455.57
  10      1.22508441    -1.79088510 -4857.73506232    -0.00000187    -0.00000010  0.80D-07  0.11D-07  9  9   501.84
  11      1.22509648    -1.79088672 -4857.73506394    -0.00000162    -0.00000004  0.37D-07  0.47D-08 10 10   547.32
  12      1.22510170    -1.79088749 -4857.73506470    -0.00000077    -0.00000003  0.24D-07  0.32D-08 11 11   592.22
  13      1.22510548    -1.79088820 -4857.73506541    -0.00000071    -0.00000002  0.15D-07  0.21D-08 12 12   638.01
  14      1.22510628    -1.79088828 -4857.73506550    -0.00000009    -0.00000002  0.13D-07  0.19D-08 13 13   687.55
  15      1.22510783    -1.79088859 -4857.73506580    -0.00000031    -0.00000001  0.10D-07  0.15D-08 14 14   734.92
  16      1.22510900    -1.79088887 -4857.73506608    -0.00000028    -0.00000001  0.77D-08  0.11D-08 15 15   784.74

 Norm of t1 vector:      0.14545425      S-energy:    -0.00896975      T1 diagnostic:  0.01287394
                                                                       D1 diagnostic:  0.04287798
 Norm of t2 vector:      0.45161052      P-energy:    -1.78191913
                                         Alpha-Beta:  -1.24740391
                                         Alpha-Alpha: -0.28438091
                                         Beta-Beta:   -0.25013431

 Singles amplitudes (print threshold =  0.500E-01):

         I         SYM. A    A   T(IA) [Beta-Beta]

        19         2         1     -0.06035033
        25         3         1     -0.06035033

 Doubles amplitudes (print threshold =  0.500E-01):

         I         J         SYM. A    SYM. B    A         B      T(IJ, AB) [Beta-Beta]

        25        19         2         3         1         1      0.05818944
        25        19         3         2         1         1     -0.05818944

 Spin contamination <S**2-Sz**2-Sz>     0.00000000

 Memory could be reduced to 386.52 Mwords without degradation in triples
 

  Correlated core orbitals:             1.1       2.1       3.1       4.1       5.1       6.1       7.1       8.1       9.1      10.1
                                        1.2       2.2       3.2       4.2       1.3       2.3       3.3       4.3       1.4
  Orbital energies:                  -857.9672 -127.5662 -114.1339  -24.2500  -20.6674  -19.7165  -12.4477  -12.4439   -3.9873   -2.6705
                                     -114.1337  -19.7072  -12.4625   -2.6051 -114.1337  -19.7072  -12.4625   -2.6051  -12.4579
 
  RCCSD core-core energy               -0.911230803368
  RCCSD core-valence energy            -0.329599489953
  RCCSD valence correlation energy     -0.550058578227
 

 RESULTS
 =======

  Reference energy                  -4855.944177213276
  RCCSD singles energy                 -0.008969745125
  RCCSD pair energy                    -1.781919126422
  RCCSD correlation energy             -1.790888871547
  Triples (T) contribution             -0.051595256125
  Total correlation energy             -1.842484127672
 
  RHF-RCCSD energy                  -4857.735066084823
  RHF-RCCSD[T] energy               -4857.789299593230
  RHF-RCCSD-T energy                -4857.786206072593
 !RHF-RCCSD(T) energy               -4857.786661340948

 Program statistics:

 Available memory in ccsd:               999993348
 Min. memory needed in ccsd:              69392564
 Max. memory used in ccsd:               101957035
 Max. memory used in cckext:              81693108 (16 integral passes)
 Max. memory used in cckint:              37737602 ( 1 integral passes)



 **********************************************************************************************************************************
 DATASETS  * FILE   NREC   LENGTH (MB)   RECORD NAMES
              1      22       22.21       500      610      700      900      950      970     1000      129      960     1700   
                                          VAR    BASINP    GEOM    SYMINP    ZMAT    AOBASIS   BASIS     P2S    ABASIS    OPER   
                                         1101     1401     1411     1412     1650     1100     1400     1410     1200     1210   
                                          SR      EKINR    POTR     PVPR    MOLCAS      S      EKIN      POT      H0       H01  
                                         1080     1600   
                                         AOSYM     SMH  

              2       4        3.76       700     1000      520     2100   
                                         GEOM     BASIS   MCVARS     RHF  

 PROGRAMS   *        TOTAL  RCCSD(T)       RHF       INT
 CPU TIMES  *      1723.61   1673.89      4.45     45.05
 REAL TIME  *      2667.95 SEC
 DISK USED  *        92.45 GB      
 SF USED    *         7.63 GB      
 GA USED    *         0.00 MB       (max)       0.00 MB       (current)
 **********************************************************************************************************************************
 SETTING CCSD           =     -4857.78666134  AU                              
 SETTING BIND           =         0.02833705  AU                              
 Output type csv         
                                                                                                                                                                                                                                                                

  1.40,SCF,CCSD,BIND
   1.4,   -4855.944177,   -4857.786661,   0.02833705
                                                  

 RCCSD(T)/USERDEF energy=  -4857.786661340948

        RCCSD(T)        RHF-SCF 
  -4857.78666134  -4855.94417721
 **********************************************************************************************************************************
 Molpro calculation terminated
 Variable memory released
