<?xml version="1.0"?>
<molpro xmlns="http://www.molpro.net/schema/molpro-output"
  xmlns:xsd="http://www.w3.org/1999/XMLSchema"
  xmlns:cml="http://www.xml-cml.org/schema"
  xmlns:stm="http://www.xml-cml.org/schema"
  xmlns:xhtml="http://www.w3.org/1999/xhtml">
 <!--

 Nodes     nprocs
 nid01825     5
 Number of processes for MPI-2 version of Molpro:   nprocs(total)=    6   nprocs(compute)=    5   nprocs(helper)=    1

 Using customized tuning parameters: mindgm=7; mindgv=16; mindgc=1; mindgr=1; noblas=0; minvec=7
 default implementation of scratch files=sf

 --><job>
  <!--

 Variables initialized (889), CPU time= 0.02 sec
 Commands  initialized (702), CPU time= 0.01 sec, 572 directives.
 Default parameters read. Elapsed time= 0.12 sec

 Checking input...
 Passed
1


                                         ***  PROGRAM SYSTEM MOLPRO  ***
                                       Copyright, TTI GmbH Stuttgart, 2015
                                    Version 2015.1 linked Dec 29 2018 15:55:43


 **********************************************************************************************************************************
 LABEL *   Calculation for Gd atom, singlet and triplet
  64 bit mpp version                                                                     DATE: 07-Apr-23          TIME: 21:08:41
 **********************************************************************************************************************************

 SHA1:             19cd028119e0e09f93f0674bd8af7968d9b3eff6
 **********************************************************************************************************************************
  -->
  <!--

 THRESHOLDS:

 ZERO    =  1.00D-12  ONEINT  =  1.00D-12  TWOINT  =  1.00D-12  PREFAC  =  1.00D-14  LOCALI  =  1.00D-09  EORDER  =  1.00D-04
 ENERGY  =  0.00D+00  ETEST   =  0.00D+00  EDENS   =  0.00D+00  THRDEDEF=  1.00D-06  GRADIENT=  1.00D-02  STEP    =  1.00D-03
 ORBITAL =  1.00D-05  CIVEC   =  1.00D-05  COEFF   =  1.00D-04  PRINTCI =  5.00D-02  PUNCHCI =  9.90D+01  OPTGRAD =  3.00D-04
 OPTENERG=  1.00D-06  OPTSTEP =  3.00D-04  THRGRAD =  1.00D-10  COMPRESS=  1.00D-11  VARMIN  =  1.00D-07  VARMAX  =  1.00D-03
 THRDOUB =  0.00D+00  THRDIV  =  1.00D-05  THRRED  =  1.00D-07  THRPSP  =  1.00D+00  THRDC   =  1.00D-10  THRCS   =  1.00D-10
 THRNRM  =  1.00D-08  THREQ   =  0.00D+00  THRDE   =  1.00D+00  THRREF  =  1.00D-05  SPARFAC =  1.00D+00  THRDLP  =  1.00D-07
 THRDIA  =  1.00D-10  THRDLS  =  1.00D-07  THRGPS  =  0.00D+00  THRKEX  =  0.00D+00  THRDIS  =  2.00D-01  THRVAR  =  1.00D-10
 THRLOC  =  1.00D-06  THRGAP  =  1.00D-06  THRLOCT = -1.00D+00  THRGAPT = -1.00D+00  THRORB  =  1.00D-06  THRMLTP =  0.00D+00
 THRCPQCI=  1.00D-10  KEXTA   =  0.00D+00  THRCOARS=  0.00D+00  SYMTOL  =  1.00D-06  GRADTOL =  1.00D-06  THROVL  =  1.00D-08
 THRORTH =  1.00D-08  GRID    =  1.00D-06  GRIDMAX =  1.00D-03  DTMAX   =  0.00D+00  THROCCDE=  1.00D-01  THROCCDE=  1.00D-01



 THRESHOLDS:

 ZERO    =  1.00D-12  ONEINT  =  1.00D-12  TWOINT  =  1.00D-12  PREFAC  =  1.00D-14  LOCALI  =  1.00D-09  EORDER  =  1.00D-04
 ENERGY  =  0.00D+00  ETEST   =  0.00D+00  EDENS   =  0.00D+00  THRDEDEF=  1.00D-06  GRADIENT=  1.00D-02  STEP    =  1.00D-03
 ORBITAL =  1.00D-05  CIVEC   =  1.00D-05  COEFF   =  1.00D-04  PRINTCI =  5.00D-02  PUNCHCI =  9.90D+01  OPTGRAD =  3.00D-04
 OPTENERG=  1.00D-06  OPTSTEP =  3.00D-04  THRGRAD =  1.00D-10  COMPRESS=  1.00D-11  VARMIN  =  1.00D-07  VARMAX  =  1.00D-03
 THRDOUB =  0.00D+00  THRDIV  =  1.00D-05  THRRED  =  1.00D-07  THRPSP  =  1.00D+00  THRDC   =  1.00D-10  THRCS   =  1.00D-10
 THRNRM  =  1.00D-08  THREQ   =  0.00D+00  THRDE   =  1.00D+00  THRREF  =  1.00D-05  SPARFAC =  1.00D+00  THRDLP  =  1.00D-07
 THRDIA  =  1.00D-10  THRDLS  =  1.00D-07  THRGPS  =  0.00D+00  THRKEX  =  0.00D+00  THRDIS  =  2.00D-01  THRVAR  =  1.00D-10
 THRLOC  =  1.00D-06  THRGAP  =  1.00D-06  THRLOCT = -1.00D+00  THRGAPT = -1.00D+00  THRORB  =  1.00D-06  THRMLTP =  0.00D+00
 THRCPQCI=  1.00D-10  KEXTA   =  0.00D+00  THRCOARS=  0.00D+00  SYMTOL  =  1.00D-06  GRADTOL =  1.00D-06  THROVL  =  1.00D-08
 THRORTH =  1.00D-08  GRID    =  1.00D-06  GRIDMAX =  1.00D-03  DTMAX   =  0.00D+00  THROCCDE=  1.00D-01  THROCCDE=  1.00D-01


 SETTING DKROLL         =         1.00000000
 SETTING DKHO           =        10.00000000
 SETTING DKHP           =         4.00000000

Geometry recognized as XYZ


 Variable memory set to 2000000000 words,  buffer space   230000 words

 SETTING BASIS          =    USERDEF

 DO I                   =         4.00000000

 Running procedure=IEF1S2
  --><jobstep command="RHF-SCF" commandset="SCFPRO">
   <!--


 Recomputing integrals since basis changed


 Using spherical harmonics



 PROGRAM * SEWARD (Integral evaluation for generally contracted gaussian basis sets)     Author: Roland Lindh, 1990

 Geometry written to block  1 of record 700

 Orientation using atomic masses
 Molecule type: Atom
 Symmetry elements: X,Y,Z
 Rotational constants:       0.0000000      0.0000000      0.0000000 GHz  (calculated with average atomic masses)

 Point group  D2h


   --><cml:molecule>
    <cml:symmetry pointGroup="D2h"/>
    <cml:atomArray>
     <cml:atom id="a1" elementType="Lu" x3="0.0" y3="0.0" z3="0.0"/>
    </cml:atomArray>
    <cml:bondArray>
    </cml:bondArray>
   </cml:molecule><!--

 ATOMIC COORDINATES

 NR  ATOM    CHARGE       X              Y              Z

   1  LU     71.00    0.000000000    0.000000000    0.000000000

 NUCLEAR CHARGE:                   71
 NUMBER OF PRIMITIVE AOS:         581
 NUMBER OF SYMMETRY AOS:          442
 NUMBER OF CONTRACTIONS:          442   ( 103Ag  +  70B3u +  70B2u +  36B1g +  70B1u +  36B2g +  36B3g +  21Au  )
 NUMBER OF CORE ORBITALS:          23   (   8Ag  +   3B3u +   3B2u +   2B1g +   3B1u +   2B2g +   2B3g +   0Au  )
 NUMBER OF VALENCE ORBITALS:       17   (   4Ag  +   3B3u +   3B2u +   1B1g +   3B1u +   1B2g +   1B3g +   1Au  )


 NUCLEAR REPULSION ENERGY    0.00000000

 One-electron integrals computed with SEWARD

 10nd-order Douglas-Kroll-Hess method activated. McWeeny DKH parametrization is used.

 Computing Douglas-Kroll / X2C integrals

 AO integral compression algorithm  1   Integral accuracy      1.0D-12

     2294.022 MB (compressed) written to integral file ( 27.6%)

     Node minimum: 304.349 MB, node maximum: 625.476 MB


 NUMBER OF SORTED TWO-ELECTRON INTEGRALS:  122669171.     BUFFER LENGTH:  32768
 NUMBER OF SEGMENTS:   4  SEGMENT LENGTH:   31999800      RECORD LENGTH: 524288

 Memory used in sort:      32.56 MW

 SORT1 READ  1040188536. AND WROTE    60643285. INTEGRALS IN    175 RECORDS. CPU TIME:    22.38 SEC, REAL TIME:    26.53 SEC
 SORT2 READ   306059659. AND WROTE   613618504. INTEGRALS IN   8420 RECORDS. CPU TIME:     2.04 SEC, REAL TIME:     2.86 SEC

 Node minimum:   122669171.  Node maximum:   122832014. integrals

 OPERATOR DM      FOR CENTER  0  COORDINATES:    0.000000    0.000000    0.000000

 EXTRA SYMMETRY OF AOS IN SYMMETRY 1:   1 1 1 1 1 1 1 1 1 1   1 1 1 1 1 1 1 1 1 1   1 1 1 1 1 1 1 1 1 1   1 1 1 1 1 1 1 1 2 3
                                        2 3 2 3 2 3 2 3 2 3   2 3 2 3 2 3 2 3 2 3   2 3 2 3 2 3 2 3 2 3   2 3 2 3 2 3 2 3 2 3
                                        2 3 4 5 6 4 5 6 4 5   6 4 5 6 4 5 6 4 5 6   4 5 6
 EXTRA SYMMETRY OF AOS IN SYMMETRY 2:   1 1 1 1 1 1 1 1 1 1   1 1 1 1 1 1 1 1 1 1   1 1 1 1 1 1 1 1 1 1   1 2 3 2 3 2 3 2 3 2
                                        3 2 3 2 3 2 3 2 3 2   3 2 3 2 3 2 3 2 3 2   3 4 5 6 4 5 6 4 5 6
 EXTRA SYMMETRY OF AOS IN SYMMETRY 3:   1 1 1 1 1 1 1 1 1 1   1 1 1 1 1 1 1 1 1 1   1 1 1 1 1 1 1 1 1 1   1 2 3 2 3 2 3 2 3 2
                                        3 2 3 2 3 2 3 2 3 2   3 2 3 2 3 2 3 2 3 2   3 4 5 6 4 5 6 4 5 6
 EXTRA SYMMETRY OF AOS IN SYMMETRY 4:   1 1 1 1 1 1 1 1 1 1   1 1 1 1 1 1 1 1 1 1   1 1 2 3 2 3 2 3 2 3   2 3 2 3 2 3
 EXTRA SYMMETRY OF AOS IN SYMMETRY 5:   1 1 1 1 1 1 1 1 1 1   1 1 1 1 1 1 1 1 1 1   1 1 1 1 1 1 1 1 1 1   1 2 3 2 3 2 3 2 3 2
                                        3 2 3 2 3 2 3 2 3 2   3 2 3 2 3 2 3 2 3 2   3 4 5 6 4 5 6 4 5 6
 EXTRA SYMMETRY OF AOS IN SYMMETRY 6:   1 1 1 1 1 1 1 1 1 1   1 1 1 1 1 1 1 1 1 1   1 1 2 3 2 3 2 3 2 3   2 3 2 3 2 3
 EXTRA SYMMETRY OF AOS IN SYMMETRY 7:   1 1 1 1 1 1 1 1 1 1   1 1 1 1 1 1 1 1 1 1   1 1 2 3 2 3 2 3 2 3   2 3 2 3 2 3
 EXTRA SYMMETRY OF AOS IN SYMMETRY 8:   1 1 1 1 1 1 1 1 1 1   1 1 1 1 1 2 3 2 3 2   3

 Eigenvalues of metric

         1 0.333E-06 0.964E-06 0.340E-05 0.186E-04 0.475E-04 0.703E-04 0.799E-04 0.799E-04
         2 0.960E-06 0.179E-05 0.251E-04 0.110E-03 0.525E-03 0.525E-03 0.534E-03 0.156E-02
         3 0.960E-06 0.179E-05 0.251E-04 0.110E-03 0.525E-03 0.525E-03 0.534E-03 0.156E-02
         4 0.799E-04 0.144E-03 0.223E-02 0.632E-02 0.897E-02 0.238E-01 0.240E-01 0.240E-01
         5 0.960E-06 0.179E-05 0.251E-04 0.110E-03 0.525E-03 0.525E-03 0.534E-03 0.156E-02
         6 0.799E-04 0.144E-03 0.223E-02 0.632E-02 0.897E-02 0.238E-01 0.240E-01 0.240E-01
         7 0.799E-04 0.144E-03 0.223E-02 0.632E-02 0.897E-02 0.238E-01 0.240E-01 0.240E-01
         8 0.525E-03 0.142E-01 0.219E-01 0.528E-01 0.103E+00 0.167E+00 0.268E+00 0.268E+00


 **********************************************************************************************************************************
 DATASETS  * FILE   NREC   LENGTH (MB)   RECORD NAMES
              1      22       22.03       500      610      700      900      950      970     1000      129      960     1700
                                          VAR    BASINP    GEOM    SYMINP    ZMAT    AOBASIS   BASIS     P2S    ABASIS    OPER
                                         1101     1401     1411     1412     1650     1100     1400     1410     1200     1210
                                          SR      EKINR    POTR     PVPR    MOLCAS      S      EKIN      POT      H0       H01
                                         1080     1600
                                         AOSYM     SMH

 PROGRAMS   *        TOTAL       INT
 CPU TIMES  *       210.39    210.07
 REAL TIME  *       217.85 SEC
 DISK USED  *         5.93 GB
 GA USED    *         0.00 MB       (max)       0.00 MB       (current)
 **********************************************************************************************************************************


 PROGRAM * RHF-SCF (OPEN SHELL)       Authors: W. Meyer, H.-J. Werner


 NUMBER OF ELECTRONS:      36+   35-    SPACE SYMMETRY=2    SPIN SYMMETRY: Doublet
 CONVERGENCE THRESHOLDS:    1.00E-05 (Density)    1.42E-07 (Energy)
 MAX. NUMBER OF ITERATIONS:      150
 INTERPOLATION TYPE:            DIIS
 INTERPOLATION STEPS:              2 (START)      1 (STEP)
 LEVEL SHIFTS:                 -0.60 (CLOSED) -0.30 (OPEN)

 Number of closed-shell orbitals:   35 (  10   6   6   2   6   2   2   1 )
 Number of open-shell orbitals:      1 (   0   1   0   0   0   0   0   0 )



 Extra symmetries of mos in symmetry 2:   1   1   1   3   2   1   3   2
 Extra symmetries of mos in symmetry 3:   1   1   1   3   2   1   3   2
 Extra symmetries of mos in symmetry 5:   1   1   1   3   2   1   3   2
 Orbital guess generated from atomic densities. Full valence occupancy:   12   6   6   3   6   3   3   1


 Molecular orbital dump at record        4202.2

 ITERATION    DDIFF          GRAD             ENERGY        2-EL.EN.            DIPOLE MOMENTS         DIIS   ORB.
    1      0.000D+00      0.000D+00    -14558.47619045  10706.859787    0.00000    0.00000    0.00000    0    start
    2      0.000D+00      0.137D-01    -14559.22636282  10952.905903    0.00000    0.00000    0.00000    1    diag,B
    3      0.259D+02      0.219D-01    -14559.39628461  10888.548720    0.00000    0.00000    0.00000    2    diag,B
    4      0.532D-02      0.411D-02    -14559.42469153  10873.245212    0.00000    0.00000    0.00000    3    diag,B
    5      0.480D-02      0.161D-02    -14559.44382568  10865.012660    0.00000    0.00000    0.00000    4    diag,B
    6      0.565D-02      0.962D-03    -14559.45562041  10861.854491    0.00000    0.00000    0.00000    5    diag,B
    7      0.329D-02      0.934D-03    -14559.46567664  10860.473821    0.00000    0.00000    0.00000    6    diag,B
    8      0.193D-02      0.954D-03    -14559.44722604  10862.499063    0.00000    0.00000    0.00000    7    diag,B
    9      0.245D-02      0.871D-03    -14559.42053589  10865.589098    0.00000    0.00000    0.00000    8    diag,B
   10      0.633D-02      0.566D-03    -14559.41935039  10867.162221    0.00000    0.00000    0.00000    9    orth
   11      0.586D-02      0.211D-03    -14559.41950379  10866.792697    0.00000    0.00000    0.00000    9    diag,B
   12      0.230D-02      0.129D-03    -14559.41993050  10867.071182    0.00000    0.00000    0.00000    9    diag,B
   13      0.139D-02      0.664D-04    -14559.42021099  10867.483178    0.00000    0.00000    0.00000    9    diag,B
   14      0.164D-02      0.574D-04    -14559.42026641  10867.364593    0.00000    0.00000    0.00000    9    diag,B
   15      0.700D-03      0.243D-04    -14559.42031373  10867.429789    0.00000    0.00000    0.00000    9    diag,B
   16      0.602D-03      0.134D-04    -14559.42032637  10867.522884    0.00000    0.00000    0.00000    9    diag,B
   17      0.459D-03      0.584D-05    -14559.42032847  10867.558583    0.00000    0.00000    0.00000    9    diag,B
   18      0.230D-03      0.317D-05    -14559.42032893  10867.578374    0.00000    0.00000    0.00000    9    diag,B
   19      0.864D-04      0.153D-05    -14559.42032898  10867.583955    0.00000    0.00000    0.00000    9    diag,B
   20      0.397D-04      0.732D-06    -14559.42032899  10867.587123    0.00000    0.00000    0.00000    9    orth
   21      0.440D-04      0.282D-06    -14559.42032899  10867.587894    0.00000    0.00000    0.00000    9    diag,B
   22      0.121D-04      0.150D-06    -14559.42032899  10867.587911    0.00000    0.00000    0.00000    9    diag,B
   23      0.271D-05      0.901D-07    -14559.42032899  10867.587954    0.00000    0.00000    0.00000    0    orth

 Final alpha occupancy:  10   7   6   2   6   2   2   1
 Final beta  occupancy:  10   6   6   2   6   2   2   1

 !RHF STATE 1.2 Energy               -14559.4203289915
   --><property name="Energy" method="RHF" principal="true" stateSymmetry="2" stateNumber="1"
     value="-14559.4203289915"/><!--
 Nuclear energy                         0.00000000
 One-electron energy               -19993.21430587
 Two-electron energy                 5433.79397688
 Virial quotient                       -0.73342127
 !RHF STATE 1.2 Dipole moment           0.00000000     0.00000000     0.00000000
 Dipole moment /Debye                   0.00000000     0.00000000     0.00000000
   --><property name="Dipole moment" method="RHF" principal="true" stateSymmetry="2"
     stateNumber="1" value="0.0 0.0 0.0"/><!--

 ELECTRON ORBITALS
 =================


   Orb  Occ    Energy  Couls-En    Coefficients

                                   1 1s      1 1s      1 1s      1 1s      1 1s      1 1s      1 1s      1 1s      1 1s      1 1s
                                   1 1s      1 1s      1 1s      1 1s      1 1s      1 1s      1 1s      1 1s      1 1s      1 1s
                                   1 1s      1 1s      1 1s      1 1s      1 1s      1 1s      1 1s      1 1s      1 1s      1 1s
                                   1 1s      1 1s      1 1s      1 1s      1 1s      1 1s      1 1s      1 1s      1 3d0     1 3d2+
                                   1 3d0     1 3d2+    1 3d0     1 3d2+    1 3d0     1 3d2+    1 3d0     1 3d2+    1 3d0     1 3d2+
                                   1 3d0     1 3d2+    1 3d0     1 3d2+    1 3d0     1 3d2+    1 3d0     1 3d2+    1 3d0     1 3d2+
                                   1 3d0     1 3d2+    1 3d0     1 3d2+    1 3d0     1 3d2+    1 3d0     1 3d2+    1 3d0     1 3d2+
                                   1 3d0     1 3d2+    1 3d0     1 3d2+    1 3d0     1 3d2+    1 3d0     1 3d2+    1 3d0     1 3d2+
                                   1 3d0     1 3d2+    1 5g0     1 5g4+    1 5g2+    1 5g0     1 5g4+    1 5g2+    1 5g0     1 5g4+
                                   1 5g2+    1 5g0     1 5g4+    1 5g2+    1 5g0     1 5g4+    1 5g2+    1 5g0     1 5g4+    1 5g2+
                                   1 5g0     1 5g4+    1 5g2+

   1.1   2 -2339.3305-5056.0620  0.000557  0.000534  0.001533  0.002162  0.004338  0.006949  0.012527  0.020942  0.036467  0.061405
                                 0.103343  0.164150  0.236136  0.269729  0.207066  0.077677  0.006033  0.001625 -0.001238 -0.003741
                                 0.001345 -0.003408  0.003340 -0.000987  0.000337 -0.000119  0.000055 -0.000036  0.000027 -0.000028
                                 0.000027 -0.000034  0.000049 -0.000036  0.000014 -0.000005  0.000001 -0.000000 -0.000000 -0.000000
                                -0.000000 -0.000000 -0.000000  0.000000 -0.000000  0.000000 -0.000000 -0.000000  0.000000 -0.000000
                                 0.000000 -0.000000 -0.000000 -0.000000  0.000000 -0.000000 -0.000000  0.000000  0.000000 -0.000000
                                -0.000000 -0.000000  0.000000 -0.000000  0.000000 -0.000000  0.000000  0.000000 -0.000000 -0.000000
                                 0.000000  0.000000 -0.000000 -0.000000  0.000000  0.000000 -0.000000  0.000000  0.000000 -0.000000
                                -0.000000  0.000000  0.000000 -0.000000  0.000000 -0.000000  0.000000 -0.000000  0.000000 -0.000000
                                 0.000000 -0.000000  0.000000 -0.000000  0.000000  0.000000  0.000000 -0.000000 -0.000000  0.000000
                                 0.000000  0.000000 -0.000000

   2.1   2  -403.2052-1092.0812 -0.000208 -0.000200 -0.000574 -0.000812 -0.001633 -0.002630 -0.004775 -0.008076 -0.014296 -0.024711
                                -0.043281 -0.073363 -0.117105 -0.156699 -0.133737  0.052250  0.375337  0.474139  0.225877  0.001378
                                 0.029561  0.000971 -0.000402  0.000129 -0.000199  0.000005 -0.000007  0.000011 -0.000005  0.000006
                                -0.000005  0.000007 -0.000010  0.000007 -0.000003  0.000001 -0.000000  0.000000 -0.000000  0.000000
                                -0.000000  0.000000 -0.000000  0.000000 -0.000000  0.000000 -0.000001  0.000000 -0.000002 -0.000000
                                -0.000001 -0.000000 -0.000001  0.000000  0.000000 -0.000000 -0.000001  0.000000  0.000000 -0.000000
                                -0.000000  0.000000  0.000000  0.000000 -0.000000  0.000000  0.000000 -0.000000  0.000000  0.000000
                                 0.000000 -0.000000 -0.000000  0.000000  0.000000 -0.000000 -0.000000 -0.000000  0.000000  0.000000
                                -0.000000  0.000000 -0.000001  0.000000 -0.000000  0.000000 -0.000000  0.000000 -0.000000  0.000000
                                -0.000000  0.000000 -0.000000  0.000000 -0.000000 -0.000000 -0.000000  0.000000  0.000000  0.000000
                                -0.000000 -0.000000  0.000000

   3.1   2   -93.5822 -385.2013  0.000098  0.000094  0.000271  0.000383  0.000771  0.001244  0.002260  0.003829  0.006797  0.011800
                                 0.020802  0.035657  0.057954  0.079933  0.069996 -0.042322 -0.305921 -0.508415 -0.205925 -0.000303
                                 0.563413  0.609266  0.072917  0.158399  0.001640  0.004072 -0.001316  0.000804 -0.000655  0.000668
                                -0.000636  0.000823 -0.001188  0.000868 -0.000333  0.000126 -0.000032  0.000006 -0.000000  0.000000
                                -0.000000  0.000000 -0.000000  0.000000 -0.000002  0.000000 -0.000005 -0.000000 -0.000014  0.000000
                                -0.000027  0.000000 -0.000039  0.000000 -0.000040  0.000000  0.000008 -0.000000 -0.000009  0.000000
                                 0.000000 -0.000000 -0.000001  0.000000 -0.000000 -0.000000 -0.000000  0.000000 -0.000000 -0.000000
                                -0.000000  0.000000  0.000000 -0.000000 -0.000000  0.000000  0.000000  0.000000 -0.000000 -0.000000
                                 0.000000  0.000000 -0.000001 -0.000000 -0.000000  0.000002 -0.000000  0.000000 -0.000003  0.000000
                                -0.000000 -0.000000  0.000000 -0.000000  0.000000  0.000000 -0.000000 -0.000000 -0.000000  0.000000
                                 0.000000  0.000000 -0.000000

   4.1   2   -60.8240 -329.4342 -0.000000 -0.000000 -0.000000 -0.000000 -0.000000 -0.000000  0.000000 -0.000000 -0.000000 -0.000000
                                -0.000000 -0.000000 -0.000000 -0.000000 -0.000000  0.000000 -0.000000  0.000000 -0.000000 -0.000000
                                -0.000000  0.000000  0.000000 -0.000000 -0.000000  0.000000  0.000000  0.000000  0.000000 -0.000000
                                 0.000000 -0.000000  0.000000 -0.000000  0.000000 -0.000000  0.000000 -0.000000 -0.000000  0.000105
                                -0.000000  0.000790 -0.000000  0.004461 -0.000000  0.019793 -0.000000  0.067751 -0.000000  0.174602
                                -0.000000  0.315599 -0.000000  0.365648 -0.000000  0.218333  0.000000 -0.000318 -0.000000  0.051466
                                -0.000000  0.003184 -0.000000  0.000579 -0.000000  0.000003  0.000000  0.000043  0.000000 -0.000036
                                -0.000000  0.000129  0.000000 -0.000185 -0.000000  0.000093  0.000000 -0.000018 -0.000000  0.000007
                                 0.000000 -0.000002  0.000000  0.000000 -0.000010 -0.000000  0.000000  0.000001  0.000000 -0.000000
                                 0.000000 -0.000000 -0.000000 -0.000000  0.000000 -0.000000  0.000000 -0.000000  0.000000 -0.000000
                                 0.000000 -0.000000  0.000000

   5.1   2   -60.8231 -329.4404  0.000000  0.000000  0.000000  0.000000  0.000000  0.000000  0.000000  0.000000  0.000001  0.000001
                                 0.000002  0.000004  0.000006  0.000008  0.000007 -0.000005 -0.000031 -0.000055 -0.000031  0.000000
                                 0.000077  0.000092 -0.000022  0.000017 -0.000004 -0.000003 -0.000003 -0.000000  0.000000  0.000001
                                 0.000000  0.000000 -0.000000  0.000000 -0.000000  0.000000  0.000000 -0.000000  0.000105  0.000000
                                 0.000790  0.000000  0.004462  0.000000  0.019796  0.000000  0.067761  0.000000  0.174628  0.000000
                                 0.315640  0.000000  0.365649  0.000000  0.218261  0.000000 -0.000306  0.000000  0.051440  0.000000
                                 0.003180  0.000000  0.000573  0.000000  0.000002  0.000000  0.000044  0.000000 -0.000036 -0.000000
                                 0.000128  0.000000 -0.000185 -0.000000  0.000092  0.000000 -0.000018 -0.000000  0.000007  0.000000
                                -0.000002 -0.000000 -0.000024 -0.000000  0.000000  0.000003  0.000000 -0.000000 -0.000005 -0.000000
                                 0.000000  0.000000  0.000000 -0.000000 -0.000000 -0.000000  0.000000  0.000000  0.000000 -0.000000
                                -0.000000 -0.000000  0.000000

   6.1   2   -19.7829 -165.0357 -0.000048 -0.000046 -0.000132 -0.000187 -0.000375 -0.000605 -0.001101 -0.001865 -0.003313 -0.005756
                                -0.010169 -0.017464 -0.028544 -0.039548 -0.035390  0.021435  0.171481  0.300341  0.134492  0.001585
                                -0.530452 -0.849102 -0.002489  0.025120  0.859940  0.510222  0.050113 -0.002263  0.001741 -0.000989
                                 0.000797 -0.000885  0.001214 -0.000861  0.000321 -0.000120  0.000030 -0.000005  0.000000  0.000000
                                 0.000000  0.000000  0.000001  0.000000  0.000006  0.000000  0.000022  0.000000  0.000058  0.000000
                                 0.000106  0.000000  0.000110  0.000000  0.000031 -0.000000 -0.000102  0.000000 -0.000164 -0.000000
                                -0.000341 -0.000000 -0.000266 -0.000000 -0.000007 -0.000000  0.000006 -0.000000  0.000002 -0.000000
                                -0.000003 -0.000000  0.000004  0.000000 -0.000002 -0.000000  0.000000 -0.000000 -0.000000  0.000000
                                 0.000000 -0.000000  0.000028 -0.000000  0.000000 -0.000069 -0.000000 -0.000000 -0.000026  0.000000
                                -0.000000  0.000038 -0.000000  0.000000 -0.000037 -0.000000 -0.000000  0.000015  0.000000  0.000000
                                -0.000005 -0.000000  0.000000

   7.1   2    -8.2501 -132.9384 -0.000000 -0.000000 -0.000000 -0.000000 -0.000000 -0.000000 -0.000000 -0.000000 -0.000000 -0.000000
                                -0.000000 -0.000000 -0.000000 -0.000000 -0.000000  0.000000  0.000000  0.000000  0.000000  0.000000
                                -0.000000 -0.000000 -0.000000  0.000000  0.000000  0.000000 -0.000000 -0.000000 -0.000000  0.000000
                                -0.000000  0.000000 -0.000000  0.000000 -0.000000  0.000000 -0.000000  0.000000 -0.000000 -0.000051
                                -0.000000 -0.000386 -0.000000 -0.002187 -0.000000 -0.009782 -0.000000 -0.033902 -0.000000 -0.089044
                                -0.000000 -0.159125 -0.000000 -0.162413  0.000000  0.049493  0.000000  0.001229  0.000000  0.375352
                                 0.000000  0.461018  0.000000  0.230140  0.000000  0.033511 -0.000000 -0.000659  0.000000  0.001576
                                -0.000000 -0.005349  0.000000  0.007676 -0.000000 -0.003837  0.000000  0.000765 -0.000000 -0.000276
                                 0.000000  0.000074 -0.000000  0.000000 -0.000044 -0.000000  0.000000 -0.000094 -0.000000 -0.000000
                                -0.000232 -0.000000 -0.000000 -0.000190  0.000000 -0.000000  0.000175 -0.000000  0.000000 -0.000070
                                 0.000000 -0.000000  0.000022

   8.1   2    -8.2459 -133.0539 -0.000000 -0.000000 -0.000000 -0.000000 -0.000000 -0.000001 -0.000001 -0.000002 -0.000004 -0.000007
                                -0.000013 -0.000023 -0.000037 -0.000051 -0.000047  0.000025  0.000228  0.000395  0.000195  0.000005
                                -0.000772 -0.001211  0.000028  0.000014  0.001465  0.001777 -0.001380 -0.001004  0.000176  0.000013
                                 0.000077 -0.000065  0.000103 -0.000076  0.000029 -0.000011  0.000003 -0.000000 -0.000051  0.000000
                                -0.000386  0.000000 -0.002191  0.000000 -0.009799  0.000000 -0.033966  0.000000 -0.089203  0.000000
                                -0.159426  0.000000 -0.162640  0.000000  0.049643 -0.000000  0.001587 -0.000000  0.376006 -0.000000
                                 0.461946 -0.000000  0.228452 -0.000000  0.032385 -0.000000 -0.000498  0.000000  0.001504 -0.000000
                                -0.004993  0.000000  0.007160 -0.000000 -0.003576  0.000000  0.000712 -0.000000 -0.000257  0.000000
                                 0.000068 -0.000000 -0.000049  0.000000  0.000000 -0.000378 -0.000000  0.000000 -0.000497  0.000000
                                -0.000000  0.000120  0.000000 -0.000000 -0.000102  0.000000  0.000000  0.000043 -0.000000 -0.000000
                                -0.000014  0.000000 -0.000000

   9.1   2    -2.7880  -68.3037  0.000018  0.000018  0.000051  0.000072  0.000145  0.000234  0.000425  0.000721  0.001281  0.002225
                                 0.003933  0.006757  0.011059  0.015333  0.013810 -0.008296 -0.068432 -0.121158 -0.056400 -0.000801
                                 0.239531  0.425807 -0.028663 -0.022365 -0.618089 -0.561801  0.277283  0.758983  0.359971  0.001971
                                 0.021456 -0.023982  0.033945 -0.024477  0.009293 -0.003509  0.000894 -0.000158 -0.000000 -0.000000
                                -0.000002 -0.000000 -0.000010 -0.000000 -0.000048 -0.000000 -0.000162 -0.000000 -0.000438 -0.000000
                                -0.000751 -0.000000 -0.000833 -0.000000  0.000633  0.000000 -0.000633 -0.000000  0.002693  0.000000
                                 0.002194  0.000000  0.000838  0.000000 -0.007884 -0.000000 -0.003853 -0.000000  0.002832 -0.000000
                                -0.007080  0.000000  0.010178 -0.000000 -0.005075  0.000000  0.001016 -0.000000 -0.000368  0.000000
                                 0.000099 -0.000000 -0.000027  0.000000 -0.000000 -0.000177  0.000000 -0.000000  0.000123 -0.000000
                                 0.000000  0.003617 -0.000000  0.000000 -0.002588  0.000000 -0.000000  0.001145 -0.000000  0.000000
                                -0.000353  0.000000 -0.000000

  10.1   2    -0.2553  -32.0690  0.000000  0.000000  0.000001  0.000002  0.000004  0.000006  0.000010  0.000017  0.000031  0.000054
                                 0.000095  0.000164  0.000268  0.000373  0.000333 -0.000210 -0.001662 -0.002969 -0.001364 -0.000012
                                 0.005892  0.011069 -0.001284 -0.000245 -0.016915 -0.015878  0.009655  0.028317  0.029340  0.024502
                                -0.026798 -0.097227 -0.026368 -0.034793  0.003233 -0.002222  0.000703 -0.000144 -0.000009 -0.000000
                                -0.000069 -0.000000 -0.000395 -0.000000 -0.001762 -0.000000 -0.006139 -0.000000 -0.016106 -0.000000
                                -0.028899 -0.000000 -0.028378 -0.000000  0.013126  0.000000  0.004471  0.000000  0.076645  0.000000
                                 0.099362  0.000000 -0.004042 -0.000000 -0.217473 -0.000000 -0.406417 -0.000000 -0.446672 -0.000000
                                 0.040501 -0.000000 -0.322833 -0.000000  0.135731  0.000000 -0.041613  0.000000  0.015631  0.000000
                                -0.004406  0.000000  0.000069 -0.000000  0.000000 -0.000213 -0.000000 -0.000000  0.001840 -0.000000
                                 0.000000  0.024117 -0.000000  0.000000 -0.010137  0.000000  0.000000  0.013378 -0.000000  0.000000
                                -0.003597  0.000000  0.000000

  11.1   0    -0.1154  -20.5608 -0.000004 -0.000004 -0.000012 -0.000017 -0.000034 -0.000055 -0.000100 -0.000170 -0.000302 -0.000525
                                -0.000927 -0.001593 -0.002605 -0.003621 -0.003225  0.002067  0.016112  0.028832  0.013187  0.000090
                                -0.056918 -0.107504  0.013120  0.002003  0.161129  0.151955 -0.086603 -0.281322 -0.253593 -0.064408
                                 0.261785  0.599016  0.037001  0.288423  0.014581  0.023890 -0.005418  0.001039 -0.000001 -0.000000
                                -0.000007 -0.000000 -0.000042 -0.000000 -0.000184 -0.000000 -0.000647 -0.000000 -0.001683 -0.000000
                                -0.003059 -0.000000 -0.002904 -0.000000  0.000994  0.000000  0.001365 -0.000000  0.007193  0.000000
                                 0.010886  0.000000 -0.000997  0.000000 -0.019638 -0.000000 -0.042422 -0.000000 -0.077641 -0.000000
                                -0.011814 -0.000002 -0.050352  0.000002  0.021457 -0.000002 -0.011692  0.000004  0.003007  0.000001
                                -0.000952 -0.000000  0.000041  0.000000  0.000000 -0.000060 -0.000000  0.000000  0.000981  0.000000
                                 0.000000  0.006703 -0.000000  0.000000 -0.003097  0.000001 -0.000000  0.004470 -0.000001  0.000000
                                -0.000113  0.000003 -0.000001

  12.1   0    -0.0088  -18.7273  0.000000  0.000000  0.000000  0.000000  0.000000  0.000000  0.000000  0.000000  0.000000  0.000000
                                 0.000000  0.000000  0.000000  0.000000  0.000000 -0.000000 -0.000000 -0.000000 -0.000000  0.000000
                                 0.000001  0.000001 -0.000000  0.000000 -0.000002 -0.000001  0.000001  0.000003  0.000003  0.000001
                                -0.000004 -0.000010  0.000001 -0.000006  0.000005  0.000009  0.000005  0.000003  0.000000  0.000005
                                 0.000000  0.000039  0.000000  0.000223  0.000000  0.000997  0.000000  0.003474  0.000000  0.009114
                                 0.000000  0.016353  0.000000  0.016075 -0.000000 -0.007329 -0.000000 -0.002500 -0.000000 -0.043199
                                -0.000000 -0.056015  0.000000  0.001036  0.000000  0.117312  0.000000  0.222302  0.000001  0.290752
                                -0.000000  0.098736  0.000000  0.230936 -0.000001  0.046874 -0.000002  0.279405 -0.000000  0.133362
                                 0.000000  0.063526 -0.000000  0.000004 -0.000033  0.000000 -0.000020  0.000119 -0.000000  0.000078
                                -0.001093 -0.000000 -0.007273 -0.011538  0.000000  0.016409  0.001958 -0.000000 -0.025463 -0.009955
                                 0.000000  0.047908 -0.006818

                                   1 2px     1 2px     1 2px     1 2px     1 2px     1 2px     1 2px     1 2px     1 2px     1 2px
                                   1 2px     1 2px     1 2px     1 2px     1 2px     1 2px     1 2px     1 2px     1 2px     1 2px
                                   1 2px     1 2px     1 2px     1 2px     1 2px     1 2px     1 2px     1 2px     1 2px     1 2px
                                   1 2px     1 4f1+    1 4f3+    1 4f1+    1 4f3+    1 4f1+    1 4f3+    1 4f1+    1 4f3+    1 4f1+
                                   1 4f3+    1 4f1+    1 4f3+    1 4f1+    1 4f3+    1 4f1+    1 4f3+    1 4f1+    1 4f3+    1 4f1+
                                   1 4f3+    1 4f1+    1 4f3+    1 4f1+    1 4f3+    1 4f1+    1 4f3+    1 4f1+    1 4f3+    1 4f1+
                                   1 4f3+    1 6h1+    1 6h3+    1 6h5+    1 6h1+    1 6h3+    1 6h5+    1 6h1+    1 6h3+    1 6h5+


   1.2   2  -355.3868-1008.0254  0.000016  0.000042  0.000122  0.000334  0.000941  0.002702  0.007905  0.022919  0.063093  0.152098
                                 0.288638  0.364193  0.236686  0.055894  0.002700 -0.001238  0.002734 -0.003221  0.002403 -0.000958
                                 0.000193 -0.000195  0.000192 -0.000077  0.000194  0.000014 -0.000009 -0.000193  0.000004 -0.000002
                                 0.000000 -0.000001  0.000000 -0.000002 -0.000000 -0.000002 -0.000000  0.000000  0.000000  0.000001
                                -0.000000 -0.000000  0.000000  0.000000 -0.000000 -0.000000  0.000000 -0.000000 -0.000000 -0.000000
                                -0.000000 -0.000000 -0.000000 -0.000000 -0.000000  0.000000  0.000000 -0.000000 -0.000000  0.000000
                                 0.000000 -0.000000 -0.000000  0.000000  0.000000  0.000000 -0.000000 -0.000000  0.000000  0.000000

   2.2   2   -78.9129 -357.6396 -0.000008 -0.000021 -0.000061 -0.000169 -0.000477 -0.001375 -0.004052 -0.011890 -0.033438 -0.083583
                                -0.167010 -0.215931 -0.041721  0.366862  0.520396  0.209497  0.012480  0.005773  0.014700 -0.005174
                                 0.001592 -0.001592  0.001577 -0.000642  0.001669  0.000117 -0.000075 -0.001655  0.000037 -0.000016
                                 0.000003  0.000000 -0.000000 -0.000001  0.000000 -0.000004  0.000000 -0.000007  0.000000 -0.000016
                                 0.000000  0.000001 -0.000000 -0.000007  0.000000  0.000002  0.000000  0.000003  0.000000  0.000002
                                 0.000000  0.000001  0.000000  0.000000  0.000000 -0.000000 -0.000000  0.000000  0.000000 -0.000000
                                -0.000000 -0.000001 -0.000000  0.000000 -0.000000 -0.000000 -0.000000 -0.000000 -0.000000  0.000000

   3.2   2   -14.8670 -151.3897  0.000004  0.000010  0.000029  0.000081  0.000229  0.000661  0.001953  0.005739  0.016244  0.040881
                                 0.082950  0.107372  0.004043 -0.274271 -0.415880  0.025647  0.054915  0.530368  0.062333  0.427160
                                 0.091783 -0.015144  0.016974 -0.006286  0.016073  0.001150 -0.000724 -0.015940  0.000358 -0.000152
                                 0.000034 -0.000000 -0.000000 -0.000002 -0.000000 -0.000009 -0.000000 -0.000033 -0.000000 -0.000102
                                -0.000000 -0.000021  0.000000 -0.000179 -0.000000 -0.000158 -0.000000 -0.000101 -0.000000 -0.000028
                                -0.000000 -0.000011 -0.000000 -0.000002 -0.000000 -0.000000  0.000000 -0.000000 -0.000000  0.000000
                                 0.000000 -0.000060 -0.000000  0.000000 -0.000003 -0.000000 -0.000000  0.000012  0.000000 -0.000000

   4.2   2    -0.9232 -102.8405 -0.000000 -0.000000 -0.000000 -0.000000 -0.000000 -0.000000 -0.000000 -0.000000 -0.000000 -0.000000
                                -0.000000 -0.000000 -0.000000  0.000000  0.000000 -0.000000 -0.000000 -0.000000 -0.000000 -0.000000
                                 0.000000  0.000000 -0.000000  0.000000 -0.000000 -0.000000 -0.000000  0.000000 -0.000000  0.000000
                                -0.000000  0.000000  0.000825  0.000000  0.007174  0.000000  0.034174  0.000000  0.104213  0.000000
                                 0.217752 -0.000000 -0.000198  0.000000  0.308059  0.000000  0.320004  0.000000  0.250608  0.000000
                                 0.141837  0.000000  0.044914  0.000000  0.003104 -0.000000  0.000006  0.000000 -0.000177 -0.000000
                                 0.000079 -0.000000 -0.000117 -0.000000 -0.000000 -0.000335  0.000000 -0.000000 -0.000651 -0.000000

   5.2   2    -0.9107 -102.9067 -0.000000 -0.000000 -0.000000 -0.000001 -0.000002 -0.000005 -0.000014 -0.000041 -0.000118 -0.000296
                                -0.000603 -0.000781 -0.000001  0.002172  0.003379 -0.000980 -0.000084 -0.006635 -0.000329 -0.005153
                                 0.005290  0.012076 -0.000202  0.007371  0.005522  0.000155 -0.000470 -0.005451  0.000111 -0.000047
                                 0.000010  0.000826 -0.000000  0.007185 -0.000000  0.034226 -0.000000  0.104375 -0.000000  0.218095
                                -0.000000 -0.000216 -0.000000  0.308475 -0.000000  0.320182 -0.000000  0.249855 -0.000000  0.140108
                                -0.000000  0.045802 -0.000000  0.005261  0.000000 -0.000513 -0.000000  0.000200 -0.000000 -0.000039
                                 0.000000 -0.000480 -0.000000 -0.000000 -0.001325  0.000000 -0.000000 -0.001185 -0.000000  0.000000

   6.2   2    -1.5454  -58.0798 -0.000001 -0.000003 -0.000010 -0.000028 -0.000079 -0.000228 -0.000672 -0.001977 -0.005601 -0.014118
                                -0.028727 -0.037209 -0.000094  0.102710  0.159249 -0.044652 -0.000144 -0.308906 -0.003007 -0.257366
                                 0.197611  0.551805 -0.009791  0.406561  0.199783  0.067764 -0.009773 -0.197851  0.004324 -0.001833
                                 0.000404 -0.000011 -0.000000 -0.000099 -0.000000 -0.000467 -0.000000 -0.001430 -0.000000 -0.002917
                                -0.000000 -0.000076 -0.000000 -0.004139 -0.000000 -0.004539 -0.000000 -0.004922 -0.000000 -0.009531
                                -0.000000 -0.008049 -0.000000 -0.001277 -0.000000 -0.000114  0.000000  0.000018 -0.000000 -0.000017
                                -0.000000 -0.000015  0.000000 -0.000000 -0.000518 -0.000000  0.000000  0.000198  0.000000 -0.000000

   7.2   +    -0.0244   -6.3283  0.000000  0.000000  0.000000  0.000000  0.000000  0.000000  0.000000  0.000000  0.000000  0.000000
                                 0.000000  0.000000  0.000000 -0.000001 -0.000002  0.000000  0.000000  0.000004  0.000001  0.000003
                                -0.000003 -0.000010  0.000002 -0.000010  0.000130  0.000001  0.000029 -0.000084  0.000018 -0.000002
                                 0.000001  0.000000 -0.000003  0.000000 -0.000037  0.000000 -0.000126  0.000000 -0.000569  0.000000
                                -0.000077  0.000000 -0.001614  0.000000  0.000001  0.000000 -0.002604  0.000000  0.001094  0.000000
                                -0.004211 -0.000000  0.013397 -0.000002 -0.053185 -0.000002  0.201783 -0.000002 -0.256551 -0.000000
                                 1.126942  0.000000 -0.000004  0.000000  0.000000  0.000042 -0.000000 -0.000000 -0.000127  0.000000

   8.2   0     7.2819  -53.3311 -0.000000 -0.000000 -0.000000 -0.000001 -0.000001 -0.000005 -0.000012 -0.000041 -0.000099 -0.000308
                                -0.000469 -0.000994  0.000753 -0.000136  0.011475 -0.067935  0.160656 -0.274410  0.317005 -0.216701
                                 0.172295 -0.331254  0.366822 -0.157569  0.423507  0.030715 -0.019668 -0.419685  0.009247 -0.003922
                                 0.000861 -0.000296  0.000000 -0.009392  0.000000 -0.016215  0.000000 -0.158744  0.000000  0.350746
                                -0.000000 -1.006594  0.000001  0.632647 -0.000000 -1.036119  0.000001  2.259008 -0.000001 -1.776229
                                 0.000001  0.894420 -0.000001 -0.629242  0.000000  0.530304 -0.000000 -0.262585  0.000000  0.085004
                                -0.000000 -0.000962 -0.000000  0.000000 -0.005833  0.000000 -0.000002  0.000499 -0.000000  0.000001

   9.2   0    -0.0298  -13.2462  0.000000  0.000001  0.000002  0.000004  0.000012  0.000034  0.000100  0.000294  0.000832  0.002097
                                 0.004271  0.005524  0.000016 -0.015416 -0.023663  0.005591  0.003432  0.041708  0.007340  0.035518
                                -0.032188 -0.110059  0.021401 -0.118383  1.795304  0.013183  0.328611 -1.316795  0.298591  0.022340
                                 0.013720  0.000003  0.000000  0.000026  0.000000  0.000119  0.000000  0.000389  0.000000  0.000653
                                -0.000000  0.000225  0.000000  0.000903 -0.000000  0.001294  0.000000  0.000597 -0.000000  0.001358
                                 0.000000 -0.004628 -0.000001 -0.020673  0.000007 -0.015972 -0.000021 -0.007930  0.000038 -0.007989
                                -0.000105 -0.000000  0.000000  0.000001  0.000176 -0.000000 -0.000006 -0.000024  0.000000  0.000014

                                   1 2py     1 2py     1 2py     1 2py     1 2py     1 2py     1 2py     1 2py     1 2py     1 2py
                                   1 2py     1 2py     1 2py     1 2py     1 2py     1 2py     1 2py     1 2py     1 2py     1 2py
                                   1 2py     1 2py     1 2py     1 2py     1 2py     1 2py     1 2py     1 2py     1 2py     1 2py
                                   1 2py     1 4f1-    1 4f3-    1 4f1-    1 4f3-    1 4f1-    1 4f3-    1 4f1-    1 4f3-    1 4f1-
                                   1 4f3-    1 4f1-    1 4f3-    1 4f1-    1 4f3-    1 4f1-    1 4f3-    1 4f1-    1 4f3-    1 4f1-
                                   1 4f3-    1 4f1-    1 4f3-    1 4f1-    1 4f3-    1 4f1-    1 4f3-    1 4f1-    1 4f3-    1 4f1-
                                   1 4f3-    1 6h1-    1 6h3-    1 6h5-    1 6h1-    1 6h3-    1 6h5-    1 6h1-    1 6h3-    1 6h5-


   1.3   2  -355.3868-1008.0254  0.000016  0.000042  0.000122  0.000334  0.000941  0.002702  0.007905  0.022919  0.063093  0.152098
                                 0.288638  0.364193  0.236686  0.055894  0.002700 -0.001238  0.002734 -0.003221  0.002403 -0.000958
                                 0.000193 -0.000195  0.000192 -0.000077  0.000194  0.000014 -0.000009 -0.000193  0.000004 -0.000002
                                 0.000000 -0.000001  0.000000 -0.000002 -0.000000 -0.000002 -0.000000  0.000000  0.000000  0.000001
                                -0.000000 -0.000000  0.000000  0.000000  0.000000 -0.000000 -0.000000 -0.000000 -0.000000 -0.000000
                                -0.000000 -0.000000 -0.000000 -0.000000 -0.000000  0.000000 -0.000000 -0.000000  0.000000  0.000000
                                -0.000000 -0.000000 -0.000000 -0.000000  0.000000  0.000000  0.000000 -0.000000  0.000000 -0.000000

   2.3   2   -78.9129 -357.6396 -0.000008 -0.000021 -0.000061 -0.000169 -0.000477 -0.001375 -0.004052 -0.011890 -0.033438 -0.083583
                                -0.167010 -0.215931 -0.041721  0.366862  0.520396  0.209497  0.012480  0.005773  0.014700 -0.005174
                                 0.001592 -0.001592  0.001577 -0.000642  0.001669  0.000117 -0.000075 -0.001655  0.000037 -0.000016
                                 0.000003  0.000000 -0.000000 -0.000001  0.000000 -0.000004 -0.000000 -0.000007  0.000000 -0.000016
                                 0.000000  0.000001 -0.000000 -0.000007  0.000000  0.000002 -0.000000  0.000003  0.000000  0.000002
                                 0.000000  0.000001  0.000000  0.000000  0.000000 -0.000000  0.000000  0.000000 -0.000000 -0.000000
                                -0.000000 -0.000001 -0.000000 -0.000000 -0.000000 -0.000000  0.000000 -0.000000 -0.000000 -0.000000

   3.3   2   -14.8670 -151.3897  0.000004  0.000010  0.000029  0.000081  0.000229  0.000661  0.001953  0.005739  0.016244  0.040881
                                 0.082950  0.107372  0.004043 -0.274271 -0.415880  0.025647  0.054915  0.530368  0.062333  0.427160
                                 0.091783 -0.015144  0.016974 -0.006286  0.016073  0.001150 -0.000724 -0.015940  0.000358 -0.000152
                                 0.000034 -0.000000 -0.000000 -0.000002 -0.000000 -0.000009 -0.000000 -0.000033 -0.000000 -0.000102
                                -0.000000 -0.000021  0.000000 -0.000179 -0.000000 -0.000158 -0.000000 -0.000101 -0.000000 -0.000028
                                -0.000000 -0.000011 -0.000000 -0.000002 -0.000000 -0.000000  0.000000 -0.000000 -0.000000  0.000000
                                 0.000000 -0.000060 -0.000000 -0.000000 -0.000003 -0.000000  0.000000  0.000012  0.000000  0.000000

   4.3   2    -0.9232 -102.8403 -0.000000 -0.000000 -0.000000 -0.000000 -0.000000 -0.000000 -0.000000 -0.000000 -0.000000 -0.000000
                                -0.000000 -0.000000  0.000000  0.000000  0.000000 -0.000000  0.000000 -0.000000  0.000000 -0.000000
                                 0.000000  0.000000  0.000000  0.000000  0.000000 -0.000000 -0.000000 -0.000000  0.000000 -0.000000
                                 0.000000  0.000000  0.000825  0.000000  0.007174  0.000000  0.034174  0.000000  0.104213  0.000000
                                 0.217751 -0.000000 -0.000198  0.000000  0.308058  0.000000  0.320003  0.000000  0.250609  0.000000
                                 0.141838  0.000000  0.044917  0.000000  0.003108 -0.000000  0.000005  0.000000 -0.000179 -0.000000
                                 0.000081 -0.000000 -0.000117 -0.000000 -0.000000 -0.000335  0.000000 -0.000000 -0.000651 -0.000000

   5.3   2    -0.9107 -102.9067 -0.000000 -0.000000 -0.000000 -0.000001 -0.000002 -0.000005 -0.000014 -0.000041 -0.000118 -0.000296
                                -0.000603 -0.000781 -0.000001  0.002172  0.003379 -0.000980 -0.000084 -0.006635 -0.000329 -0.005153
                                 0.005290  0.012076 -0.000202  0.007371  0.005522  0.000155 -0.000470 -0.005451  0.000111 -0.000047
                                 0.000010  0.000826 -0.000000  0.007185 -0.000000  0.034226 -0.000000  0.104375 -0.000000  0.218095
                                -0.000000 -0.000216  0.000000  0.308475 -0.000000  0.320182 -0.000000  0.249855 -0.000000  0.140108
                                -0.000000  0.045802 -0.000000  0.005261  0.000000 -0.000513 -0.000000  0.000200  0.000000 -0.000039
                                -0.000000 -0.000480 -0.000000  0.000000 -0.001325  0.000000  0.000000 -0.001185 -0.000000 -0.000000

   6.3   2    -1.5454  -58.0798 -0.000001 -0.000003 -0.000010 -0.000028 -0.000079 -0.000228 -0.000672 -0.001977 -0.005601 -0.014118
                                -0.028727 -0.037209 -0.000094  0.102710  0.159249 -0.044652 -0.000144 -0.308906 -0.003007 -0.257366
                                 0.197611  0.551805 -0.009791  0.406561  0.199783  0.067764 -0.009773 -0.197851  0.004324 -0.001833
                                 0.000404 -0.000011 -0.000000 -0.000099 -0.000000 -0.000467 -0.000000 -0.001430 -0.000000 -0.002917
                                -0.000000 -0.000076 -0.000000 -0.004139 -0.000000 -0.004539 -0.000000 -0.004922 -0.000000 -0.009531
                                -0.000000 -0.008049 -0.000000 -0.001277 -0.000000 -0.000114  0.000000  0.000018 -0.000000 -0.000017
                                 0.000000 -0.000015  0.000000  0.000000 -0.000518 -0.000000 -0.000000  0.000198  0.000000  0.000000

   7.3   0     0.0528   -5.8519 -0.000000 -0.000000 -0.000000 -0.000000 -0.000000 -0.000000 -0.000000 -0.000000 -0.000000 -0.000000
                                -0.000001 -0.000001  0.000000  0.000002  0.000005 -0.000013  0.000027 -0.000052  0.000050 -0.000038
                                 0.000026 -0.000048  0.000112 -0.000070  0.021844  0.000069 -0.000282 -0.022668  0.002199 -0.001583
                                 0.000433 -0.000000 -0.000001 -0.000000 -0.000030 -0.000000 -0.000066 -0.000000 -0.000497 -0.000000
                                 0.000756  0.000000 -0.002608 -0.000000  0.001236 -0.000000 -0.002951 -0.000000  0.002601  0.000000
                                -0.006828 -0.000000  0.019746  0.000009 -0.096705 -0.000014  0.304914  0.000031 -0.528926 -0.000058
                                 1.290873  0.000000 -0.000003 -0.000000 -0.000000  0.000028  0.000000  0.000000 -0.000085 -0.000000

   8.3   0     7.2819  -53.3311 -0.000000 -0.000000 -0.000000 -0.000001 -0.000001 -0.000005 -0.000012 -0.000041 -0.000099 -0.000308
                                -0.000469 -0.000994  0.000753 -0.000136  0.011475 -0.067935  0.160657 -0.274411  0.317006 -0.216702
                                 0.172296 -0.331256  0.366824 -0.157570  0.423511  0.030715 -0.019668 -0.419689  0.009247 -0.003922
                                 0.000861 -0.000296  0.000000 -0.009392  0.000000 -0.016215  0.000000 -0.158744  0.000000  0.350746
                                -0.000000 -1.006594  0.000000  0.632647 -0.000000 -1.036119  0.000000  2.259008 -0.000001 -1.776229
                                 0.000001  0.894420 -0.000000 -0.629242  0.000000  0.530304 -0.000000 -0.262585  0.000000  0.085004
                                -0.000000 -0.000962 -0.000000 -0.000000 -0.005833  0.000000  0.000002  0.000499 -0.000000 -0.000001

                                   1 3d2-    1 3d2-    1 3d2-    1 3d2-    1 3d2-    1 3d2-    1 3d2-    1 3d2-    1 3d2-    1 3d2-
                                   1 3d2-    1 3d2-    1 3d2-    1 3d2-    1 3d2-    1 3d2-    1 3d2-    1 3d2-    1 3d2-    1 3d2-
                                   1 3d2-    1 3d2-    1 5g2-    1 5g4-    1 5g2-    1 5g4-    1 5g2-    1 5g4-    1 5g2-    1 5g4-
                                   1 5g2-    1 5g4-    1 5g2-    1 5g4-    1 5g2-    1 5g4-

   1.4   2   -60.8240 -329.4342  0.000105  0.000790  0.004461  0.019793  0.067751  0.174602  0.315599  0.365648  0.218333 -0.000318
                                 0.051466  0.003184  0.000579  0.000003  0.000043 -0.000036  0.000129 -0.000185  0.000093 -0.000018
                                 0.000007 -0.000002 -0.000010 -0.000000  0.000001 -0.000000  0.000000  0.000000 -0.000000  0.000000
                                 0.000000  0.000000 -0.000000 -0.000000  0.000000  0.000000

   2.4   2    -8.2501 -132.9384 -0.000051 -0.000386 -0.002187 -0.009782 -0.033902 -0.089044 -0.159125 -0.162413  0.049493  0.001229
                                 0.375352  0.461018  0.230140  0.033511 -0.000659  0.001576 -0.005349  0.007676 -0.003837  0.000765
                                -0.000276  0.000074 -0.000044 -0.000000 -0.000094 -0.000000 -0.000232  0.000000 -0.000190  0.000000
                                 0.000175  0.000000 -0.000070 -0.000000  0.000022  0.000000

   3.4   0    -0.0088  -18.7277  0.000005  0.000039  0.000223  0.000997  0.003474  0.009115  0.016354  0.016076 -0.007330 -0.002501
                                -0.043200 -0.056016  0.001036  0.117314  0.222308  0.290759  0.098738  0.230937  0.046875  0.279393
                                 0.133351  0.063533 -0.000033 -0.000004  0.000119  0.000020 -0.001093 -0.000078 -0.011538  0.007272
                                 0.001959 -0.016407 -0.009955  0.025460 -0.006817 -0.047903

   4.4   0     0.0110   -5.1214 -0.000002 -0.000015 -0.000088 -0.000389 -0.001367 -0.003552 -0.006467 -0.006114  0.001980  0.003137
                                 0.014970  0.023086 -0.001767 -0.043819 -0.094277 -0.076124 -0.575186  1.170211 -1.119078  0.777813
                                -0.957733  1.460945  0.000012 -0.000002 -0.000045  0.000011  0.000417 -0.000042  0.005152  0.004112
                                -0.002412 -0.009216  0.005868  0.014585 -0.003553 -0.023602

                                   1 2pz     1 2pz     1 2pz     1 2pz     1 2pz     1 2pz     1 2pz     1 2pz     1 2pz     1 2pz
                                   1 2pz     1 2pz     1 2pz     1 2pz     1 2pz     1 2pz     1 2pz     1 2pz     1 2pz     1 2pz
                                   1 2pz     1 2pz     1 2pz     1 2pz     1 2pz     1 2pz     1 2pz     1 2pz     1 2pz     1 2pz
                                   1 2pz     1 4f0     1 4f2+    1 4f0     1 4f2+    1 4f0     1 4f2+    1 4f0     1 4f2+    1 4f0
                                   1 4f2+    1 4f0     1 4f2+    1 4f0     1 4f2+    1 4f0     1 4f2+    1 4f0     1 4f2+    1 4f0
                                   1 4f2+    1 4f0     1 4f2+    1 4f0     1 4f2+    1 4f0     1 4f2+    1 4f0     1 4f2+    1 4f0
                                   1 4f2+    1 6h2+    1 6h4+    1 6h0     1 6h2+    1 6h4+    1 6h0     1 6h2+    1 6h4+    1 6h0


   1.5   2  -355.3856-1008.0243  0.000016  0.000042  0.000122  0.000334  0.000941  0.002702  0.007905  0.022919  0.063093  0.152098
                                 0.288639  0.364192  0.236687  0.055895  0.002699 -0.001238  0.002732 -0.003220  0.002402 -0.000958
                                 0.000193 -0.000195  0.000191 -0.000077  0.000194  0.000014 -0.000009 -0.000193  0.000004 -0.000002
                                 0.000000 -0.000000  0.000000  0.000000  0.000000  0.000001  0.000000 -0.000002  0.000000  0.000000
                                -0.000000 -0.000002  0.000000  0.000000 -0.000000  0.000000  0.000000  0.000000  0.000000  0.000000
                                 0.000000  0.000000  0.000000  0.000000  0.000000  0.000000 -0.000000 -0.000000  0.000000  0.000000
                                -0.000000 -0.000000  0.000000 -0.000000  0.000000 -0.000000  0.000000 -0.000000  0.000000 -0.000000

   2.5   2   -78.9082 -357.6356 -0.000008 -0.000021 -0.000061 -0.000169 -0.000477 -0.001375 -0.004052 -0.011890 -0.033438 -0.083584
                                -0.167012 -0.215932 -0.041721  0.366877  0.520400  0.209449  0.012528  0.005740  0.014725 -0.005181
                                 0.001591 -0.001596  0.001578 -0.000645  0.001671  0.000116 -0.000076 -0.001657  0.000037 -0.000016
                                 0.000003  0.000000 -0.000000 -0.000000  0.000000 -0.000008 -0.000000 -0.000029  0.000000 -0.000024
                                 0.000000  0.000019 -0.000000 -0.000001 -0.000000 -0.000004 -0.000000 -0.000007 -0.000000 -0.000004
                                -0.000000 -0.000002 -0.000000 -0.000001 -0.000000  0.000000  0.000000 -0.000000  0.000000  0.000000
                                -0.000000 -0.000000 -0.000000 -0.000001 -0.000000  0.000000 -0.000000  0.000000 -0.000000  0.000000

   3.5   2   -14.8568 -151.4027  0.000004  0.000010  0.000029  0.000081  0.000229  0.000661  0.001954  0.005741  0.016249  0.040895
                                 0.082979  0.107407  0.004045 -0.274387 -0.416027  0.025734  0.054942  0.530465  0.062835  0.426999
                                 0.091228 -0.015212  0.016975 -0.006260  0.016075  0.001164 -0.000720 -0.015942  0.000358 -0.000152
                                 0.000034 -0.000000 -0.000000 -0.000001 -0.000000 -0.000003 -0.000000 -0.000002 -0.000000  0.000061
                                -0.000000 -0.000112  0.000000  0.000041 -0.000000 -0.000426 -0.000000 -0.000276 -0.000000  0.000048
                                -0.000000  0.000014 -0.000000  0.000011 -0.000000 -0.000006  0.000000  0.000003 -0.000000 -0.000001
                                -0.000000 -0.000000 -0.000000 -0.000076 -0.000000 -0.000000 -0.000003  0.000000 -0.000000  0.000014

   4.5   2    -0.9172 -103.0062 -0.000000 -0.000000 -0.000000 -0.000000 -0.000000 -0.000000 -0.000000 -0.000000 -0.000000 -0.000000
                                -0.000000 -0.000000 -0.000000  0.000000  0.000000 -0.000000 -0.000000 -0.000000 -0.000000 -0.000000
                                 0.000000  0.000000 -0.000000  0.000000 -0.000000 -0.000000  0.000000  0.000000 -0.000000  0.000000
                                -0.000000  0.000000  0.000826  0.000000  0.007189  0.000000  0.034245  0.000000  0.104432  0.000000
                                 0.218192 -0.000000 -0.000203  0.000000  0.308630  0.000000  0.320546  0.000000  0.250483  0.000000
                                 0.140005  0.000000  0.043028  0.000000  0.002858 -0.000000  0.000040  0.000000 -0.000182 -0.000000
                                 0.000081 -0.000315  0.000000 -0.000000 -0.000888  0.000000 -0.000000 -0.000928 -0.000000 -0.000000

   5.5   2    -0.9081 -102.8277  0.000000  0.000000  0.000000  0.000000  0.000000  0.000001  0.000002  0.000005  0.000015  0.000038
                                 0.000076  0.000100 -0.000003 -0.000280 -0.000486  0.000417 -0.000535  0.001902 -0.000819  0.001134
                                -0.002750 -0.001834 -0.002786  0.006024 -0.023224  0.011941  0.004827  0.023051 -0.000472  0.000195
                                -0.000043  0.000826 -0.000000  0.007181 -0.000000  0.034207 -0.000000  0.104320 -0.000000  0.217986
                                -0.000000 -0.000212  0.000000  0.308318 -0.000000  0.319948 -0.000000  0.249602 -0.000000  0.140672
                                -0.000000  0.047313 -0.000000  0.006366  0.000000 -0.000669 -0.000000  0.000354  0.000000 -0.000084
                                -0.000000 -0.000000  0.000000 -0.000542  0.000000 -0.000000 -0.001457 -0.000000  0.000000 -0.001336

   6.5   2    -1.5272  -57.8347 -0.000001 -0.000003 -0.000010 -0.000028 -0.000078 -0.000226 -0.000669 -0.001967 -0.005574 -0.014050
                                -0.028589 -0.037030 -0.000090  0.102220  0.158522 -0.044746  0.000467 -0.308367 -0.002161 -0.256928
                                 0.198682  0.549404 -0.014758  0.403200  0.165894  0.079630 -0.004049 -0.164191  0.003611 -0.001535
                                 0.000339 -0.000009 -0.000000 -0.000075 -0.000000 -0.000359 -0.000000 -0.001100 -0.000000 -0.002347
                                -0.000000  0.000071 -0.000000 -0.003402 -0.000000 -0.003337 -0.000000 -0.002291 -0.000000 -0.002783
                                -0.000000  0.005544 -0.000000  0.006166 -0.000000 -0.001809  0.000000  0.001113 -0.000000 -0.000346
                                 0.000000 -0.000000 -0.000000 -0.000041 -0.000000  0.000000 -0.000594 -0.000000 -0.000000 -0.000260

   7.5   0     0.0477   -5.8143 -0.000000 -0.000000 -0.000000 -0.000000 -0.000000 -0.000000 -0.000000 -0.000000 -0.000000 -0.000000
                                -0.000001 -0.000001  0.000000  0.000002  0.000008 -0.000034  0.000077 -0.000132  0.000141 -0.000095
                                 0.000063 -0.000163  0.000319 -0.000230  0.061941  0.000197 -0.000622 -0.064201  0.005859 -0.004376
                                 0.001230 -0.000000 -0.000001 -0.000000 -0.000027 -0.000000 -0.000049 -0.000001 -0.000441  0.000003
                                 0.000844 -0.000009 -0.002564  0.000004  0.001355 -0.000009 -0.002757  0.000009  0.002650 -0.000022
                                -0.006700  0.000065  0.019086 -0.000311 -0.096146  0.000974  0.295215 -0.001847 -0.538643  0.004293
                                 1.300138 -0.000004  0.000000 -0.000000  0.000044 -0.000001  0.000000 -0.000115  0.000003 -0.000000

   8.5   0     7.2905  -53.2876 -0.000000 -0.000000 -0.000000 -0.000001 -0.000003 -0.000010 -0.000026 -0.000090 -0.000213 -0.000664
                                -0.001000 -0.002161  0.001684 -0.000472  0.025442 -0.151820  0.358865 -0.612446  0.708637 -0.486541
                                 0.396526 -0.779132  0.864084 -0.370105  0.984279  0.071331 -0.045525 -0.975477  0.021490 -0.009085
                                 0.001992 -0.000296  0.000000 -0.009384  0.000000 -0.016209  0.000000 -0.158609  0.000000  0.350268
                                -0.000000 -1.005443  0.000001  0.631779 -0.000001 -1.034672  0.000001  2.258074 -0.000003 -1.777056
                                 0.000002  0.894933 -0.000001 -0.629319  0.000001  0.530275 -0.000001 -0.262542  0.000000  0.084986
                                -0.000000 -0.000000  0.000000 -0.001113  0.000000 -0.000000 -0.006151 -0.000000  0.000000  0.000320

                                   1 3d1+    1 3d1+    1 3d1+    1 3d1+    1 3d1+    1 3d1+    1 3d1+    1 3d1+    1 3d1+    1 3d1+
                                   1 3d1+    1 3d1+    1 3d1+    1 3d1+    1 3d1+    1 3d1+    1 3d1+    1 3d1+    1 3d1+    1 3d1+
                                   1 3d1+    1 3d1+    1 5g1+    1 5g3+    1 5g1+    1 5g3+    1 5g1+    1 5g3+    1 5g1+    1 5g3+
                                   1 5g1+    1 5g3+    1 5g1+    1 5g3+    1 5g1+    1 5g3+

   1.6   2   -60.8215 -329.4327  0.000105  0.000790  0.004461  0.019793  0.067752  0.174603  0.315603  0.365658  0.218329 -0.000324
                                 0.051450  0.003183  0.000585  0.000004  0.000043 -0.000036  0.000129 -0.000185  0.000093 -0.000018
                                 0.000007 -0.000002 -0.000020  0.000000  0.000002 -0.000000 -0.000003  0.000000  0.000000 -0.000000
                                -0.000000  0.000000  0.000000 -0.000000 -0.000000  0.000000

   2.6   2    -8.2424 -132.9488 -0.000051 -0.000386 -0.002187 -0.009784 -0.033910 -0.089062 -0.159166 -0.162428  0.049466  0.001390
                                 0.375280  0.461268  0.229998  0.033128 -0.000710  0.001564 -0.005312  0.007622 -0.003810  0.000760
                                -0.000274  0.000073 -0.000048 -0.000000 -0.000293 -0.000000 -0.000425 -0.000000  0.000025 -0.000000
                                -0.000016  0.000000  0.000008 -0.000000 -0.000002 -0.000000

   3.6   0     0.0076   -7.9372  0.000002  0.000018  0.000101  0.000453  0.001571  0.004141  0.007379  0.007382 -0.003798  0.000008
                                -0.020618 -0.024790 -0.000162  0.054454  0.095508  0.147965 -0.202563  0.700771 -0.459450  0.602555
                                -0.417784  0.944320 -0.000016  0.000000  0.000050 -0.000000 -0.000457  0.000000 -0.006751 -0.000000
                                 0.002917  0.000000 -0.011304 -0.000001 -0.000078  0.000001

   4.6   0     0.0140   -9.6945 -0.000003 -0.000024 -0.000136 -0.000602 -0.002110 -0.005496 -0.009967 -0.009527  0.003445  0.003918
                                 0.023974  0.035182 -0.002210 -0.068626 -0.139721 -0.126743 -0.697089  1.322586 -1.373052  0.695852
                                -1.489575  1.474581  0.000022 -0.000000 -0.000068  0.000000  0.000621 -0.000000  0.008502  0.000000
                                -0.002783 -0.000000  0.013136  0.000001  0.000546 -0.000001

                                   1 3d1-    1 3d1-    1 3d1-    1 3d1-    1 3d1-    1 3d1-    1 3d1-    1 3d1-    1 3d1-    1 3d1-
                                   1 3d1-    1 3d1-    1 3d1-    1 3d1-    1 3d1-    1 3d1-    1 3d1-    1 3d1-    1 3d1-    1 3d1-
                                   1 3d1-    1 3d1-    1 5g1-    1 5g3-    1 5g1-    1 5g3-    1 5g1-    1 5g3-    1 5g1-    1 5g3-
                                   1 5g1-    1 5g3-    1 5g1-    1 5g3-    1 5g1-    1 5g3-

   1.7   2   -60.8215 -329.4327  0.000105  0.000790  0.004461  0.019793  0.067752  0.174603  0.315603  0.365658  0.218329 -0.000324
                                 0.051450  0.003183  0.000585  0.000004  0.000043 -0.000036  0.000129 -0.000185  0.000093 -0.000018
                                 0.000007 -0.000002 -0.000020  0.000000  0.000002 -0.000000 -0.000003 -0.000000  0.000000 -0.000000
                                -0.000000  0.000000  0.000000 -0.000000 -0.000000  0.000000

   2.7   2    -8.2424 -132.9488 -0.000051 -0.000386 -0.002187 -0.009784 -0.033910 -0.089062 -0.159166 -0.162428  0.049466  0.001390
                                 0.375280  0.461268  0.229998  0.033128 -0.000710  0.001564 -0.005312  0.007622 -0.003810  0.000760
                                -0.000274  0.000073 -0.000048  0.000000 -0.000293 -0.000000 -0.000425 -0.000000  0.000025 -0.000000
                                -0.000016  0.000000  0.000008 -0.000000 -0.000002  0.000000

   3.7   0     0.0076   -7.9373  0.000002  0.000018  0.000101  0.000453  0.001571  0.004141  0.007380  0.007382 -0.003799  0.000008
                                -0.020618 -0.024791 -0.000162  0.054455  0.095510  0.147966 -0.202552  0.700751 -0.459429  0.602545
                                -0.417761  0.944299 -0.000016 -0.000000  0.000050  0.000000 -0.000457 -0.000000 -0.006751  0.000000
                                 0.002917 -0.000000 -0.011304  0.000000 -0.000079 -0.000001

   4.7   0     0.0140   -9.6944 -0.000003 -0.000024 -0.000136 -0.000602 -0.002110 -0.005496 -0.009967 -0.009526  0.003445  0.003918
                                 0.023973  0.035182 -0.002210 -0.068626 -0.139720 -0.126741 -0.697087  1.322584 -1.373049  0.695852
                                -1.489569  1.474589  0.000022  0.000000 -0.000068 -0.000000  0.000621  0.000000  0.008502 -0.000000
                                -0.002783  0.000000  0.013136 -0.000000  0.000546  0.000001

                                   1 4f2-    1 4f2-    1 4f2-    1 4f2-    1 4f2-    1 4f2-    1 4f2-    1 4f2-    1 4f2-    1 4f2-
                                   1 4f2-    1 4f2-    1 4f2-    1 4f2-    1 4f2-    1 6h4-    1 6h2-    1 6h4-    1 6h2-    1 6h4-
                                   1 6h2-

   1.8   2    -0.9172 -103.0062  0.000826  0.007189  0.034245  0.104432  0.218192 -0.000203  0.308630  0.320546  0.250483  0.140005
                                 0.043028  0.002858  0.000040 -0.000182  0.000081 -0.000000 -0.000315 -0.000000 -0.000888  0.000000
                                -0.000928

   2.8   0     0.0477   -5.8143 -0.000001 -0.000027 -0.000049 -0.000441  0.000844 -0.002564  0.001355 -0.002757  0.002650 -0.006700
                                 0.019086 -0.096147  0.295218 -0.538652  1.300148 -0.000000 -0.000004  0.000001  0.000044 -0.000003
                                -0.000115

   3.8   0     0.1217   -8.2757  0.000013  0.000069  0.000495  0.000886  0.005625 -0.005499  0.008259 -0.000477  0.009303 -0.014737
                                 0.033793 -0.270623  0.627340 -2.056569  1.207326  0.000000  0.000018 -0.000002 -0.000204  0.000004
                                 0.000547

 HOMO      7.2    -0.024428 =      -0.6647eV
 LUMO     11.1    -0.115411 =      -3.1405eV
 LUMO-HOMO        -0.090983 =      -2.4758eV


 **********************************************************************************************************************************
 DATASETS  * FILE   NREC   LENGTH (MB)   RECORD NAMES
              1      22       22.03       500      610      700      900      950      970     1000      129      960     1700
                                          VAR    BASINP    GEOM    SYMINP    ZMAT    AOBASIS   BASIS     P2S    ABASIS    OPER
                                         1101     1401     1411     1412     1650     1100     1400     1410     1200     1210
                                          SR      EKINR    POTR     PVPR    MOLCAS      S      EKIN      POT      H0       H01
                                         1080     1600
                                         AOSYM     SMH

              2       5        6.25       200      700     1000      520     4202
                                        OPTIONS   GEOM     BASIS   MCVARS     RHF

 PROGRAMS   *        TOTAL       RHF       INT
 CPU TIMES  *       218.40      8.01    210.07
 REAL TIME  *       226.70 SEC
 DISK USED  *         6.09 GB
 SF USED    *         0.12 MB
 GA USED    *         0.00 MB       (max)       0.00 MB       (current)
 **********************************************************************************************************************************
   -->
   <time start="21:08:41" end="21:12:27" cpu="218.4" system="7.55" real="226.7"/>
   <storage units="megabyte" memory="16001.84" sf="0.12" df="163.63" eaf="5930.77" ga="0.0"/>
  </jobstep><!--
  --><jobstep command="RHF-SCF" commandset="SCFPRO">
   <!--


 PROGRAM * RHF-SCF (OPEN SHELL)       Authors: W. Meyer, H.-J. Werner


 NUMBER OF ELECTRONS:      36+   35-    SPACE SYMMETRY=2    SPIN SYMMETRY: Doublet
 CONVERGENCE THRESHOLDS:    1.00E-05 (Density)    1.42E-07 (Energy)
 MAX. NUMBER OF ITERATIONS:        0
 INTERPOLATION TYPE:            DIIS
 INTERPOLATION STEPS:              2 (START)      1 (STEP)
 LEVEL SHIFTS:                 -0.60 (CLOSED) -0.30 (OPEN)

 Number of closed-shell orbitals:   35 (  10   6   6   2   6   2   2   1 )
 Number of open-shell orbitals:      1 (   0   1   0   0   0   0   0   0 )


 Molecular orbitals read from record     4202.2  Type=RHF/CANONICAL (state 1.2)

 Molecular orbital dump at record        2108.2

 ITERATION    DDIFF          GRAD             ENERGY        2-EL.EN.            DIPOLE MOMENTS         DIIS   ORB.
    1      0.000D+00      0.000D+00    -14559.42032899  10867.587954    0.00000    0.00000    0.00000    0    start

 Final alpha occupancy:  10   7   6   2   6   2   2   1
 Final beta  occupancy:  10   6   6   2   6   2   2   1

 !RHF STATE 1.2 Energy               -14559.4203289915
   --><property name="Energy" method="RHF" principal="true" stateSymmetry="2" stateNumber="1"
     value="-14559.4203289915"/><!--
 Nuclear energy                         0.00000000
 One-electron energy               -19993.21430587
 Two-electron energy                 5433.79397688
 Virial quotient                       -0.73342127
 !RHF STATE 1.2 Dipole moment           0.00000000     0.00000000     0.00000000
 Dipole moment /Debye                   0.00000000     0.00000000     0.00000000
   --><property name="Dipole moment" method="RHF" principal="true" stateSymmetry="2"
     stateNumber="1" value="0.0 0.0 0.0"/><!--

 Orbital energies:

         1.1          2.1          3.1          4.1          5.1          6.1          7.1          8.1          9.1         10.1
  -2339.330534  -403.205231   -93.582150   -60.824022   -60.823106   -19.782934    -8.250084    -8.245854    -2.787950    -0.255269

        11.1         12.1
     -0.115411    -0.008769

         1.2          2.2          3.2          4.2          5.2          6.2          7.2          8.2          9.2
   -355.386806   -78.912937   -14.866986    -0.923167    -0.910658    -1.545362    -0.024428     7.281867    -0.029820

         1.3          2.3          3.3          4.3          5.3          6.3          7.3          8.3
   -355.386806   -78.912937   -14.866986    -0.923158    -0.910658    -1.545362     0.052831     7.281867

         1.4          2.4          3.4          4.4
    -60.824022    -8.250084    -0.008767     0.011012

         1.5          2.5          3.5          4.5          5.5          6.5          7.5          8.5
   -355.385587   -78.908161   -14.856763    -0.917243    -0.908098    -1.527166     0.047676     7.290532

         1.6          2.6          3.6          4.6
    -60.821453    -8.242370     0.007625     0.013966

         1.7          2.7          3.7          4.7
    -60.821453    -8.242370     0.007625     0.013966

         1.8          2.8          3.8
     -0.917243     0.047676     0.121670

 HOMO      7.2    -0.024428 =      -0.6647eV
 LUMO     11.1    -0.115411 =      -3.1405eV
 LUMO-HOMO        -0.090983 =      -2.4758eV


 **********************************************************************************************************************************
 DATASETS  * FILE   NREC   LENGTH (MB)   RECORD NAMES
              1      22       22.03       500      610      700      900      950      970     1000      129      960     1700
                                          VAR    BASINP    GEOM    SYMINP    ZMAT    AOBASIS   BASIS     P2S    ABASIS    OPER
                                         1101     1401     1411     1412     1650     1100     1400     1410     1200     1210
                                          SR      EKINR    POTR     PVPR    MOLCAS      S      EKIN      POT      H0       H01
                                         1080     1600
                                         AOSYM     SMH

              2       6        9.95       200      700     1000      520     4202     2108
                                        OPTIONS   GEOM     BASIS   MCVARS     RHF      RHF

 PROGRAMS   *        TOTAL       RHF       RHF       INT
 CPU TIMES  *       218.78      0.33      8.01    210.07
 REAL TIME  *       227.10 SEC
 DISK USED  *         6.09 GB
 SF USED    *         0.12 MB
 GA USED    *         0.00 MB       (max)       0.00 MB       (current)
 **********************************************************************************************************************************
   -->
   <time start="21:12:27" end="21:12:28" cpu="0.38" system="0.02" real="0.4"/>
   <storage units="megabyte" memory="16001.84" sf="0.12" df="163.63" eaf="5930.77" ga="0.0"/>
  </jobstep><!--
 SETTING SCF(4)         =    -14559.42032899  AU
 SETTING _CC_NORM_MAX   =         2.00000000
  --><jobstep command="RCCSD(T)" commandset="CCSD">
   <!--


 PROGRAM * CCSD (Restricted open-shell coupled cluster)     Authors: C. Hampel, H.-J. Werner, 1991, M. Deegan, P.J. Knowles, 1992


 Convergence thresholds:  THRVAR = 1.00D-08  THRDEN = 1.42D-06

 CCSD(T)     terms to be evaluated (factor= 1.000)


 Number of core orbitals:          30 (   8   5   5   2   5   2   2   1 )
 Number of closed-shell orbitals:   5 (   2   1   1   0   1   0   0   0 )
 Number of active  orbitals:        1 (   0   1   0   0   0   0   0   0 )
 Number of external orbitals:     406 (  93  63  64  34  64  34  34  20 )

 Memory could be reduced to 113.27 Mwords without degradation in triples

 Number of N-1 electron functions:              11
 Number of N-2 electron functions:              55
 Number of singly external CSFs:               820
 Number of doubly external CSFs:            929021
 Total number of CSFs:                      929841

 Molecular orbitals read from record     2108.2  Type=RHF/CANONICAL (state 1.2)

 Integral transformation finished. Total CPU:   2.86 sec, npass=  1  Memory used:  19.45 MW

 Starting RMP2 calculation

 Wavefunction is spin-projected

 ITER.      SQ.NORM     CORR.ENERGY   TOTAL ENERGY   ENERGY CHANGE        DEN1      VAR(S)    VAR(P)  DIIS     TIME
   1      1.03635048    -0.21188407-14559.63221307    -0.21188407    -0.01745875  0.11D-08  0.29D-02  1  1     3.28
   2      1.05043967    -0.23801804-14559.65834703    -0.02613396    -0.00108690  0.78D-09  0.27D-03  2  2     3.40
   3      1.05575347    -0.24233258-14559.66266157    -0.00431454    -0.00026114  0.55D-09  0.80D-04  3  3     3.47
   4      1.05985316    -0.24402576-14559.66435475    -0.00169318    -0.00006087  0.31D-09  0.19D-04  4  4     3.55
   5      1.06227564    -0.24471484-14559.66504383    -0.00068908    -0.00001576  0.16D-09  0.51D-05  5  5     3.63
   6      1.06329896    -0.24491141-14559.66524040    -0.00019657    -0.00000493  0.87D-10  0.16D-05  6  6     3.72
   7      1.06371591    -0.24496681-14559.66529580    -0.00005540    -0.00000200  0.51D-10  0.66D-06  6  1     3.78
   8      1.06399394    -0.24500101-14559.66533000    -0.00003420    -0.00000063  0.26D-10  0.21D-06  6  2     3.88
   9      1.06412620    -0.24501882-14559.66534781    -0.00001781    -0.00000020  0.14D-10  0.64D-07  6  3     3.97
  10      1.06419531    -0.24502561-14559.66535460    -0.00000679    -0.00000006  0.84D-11  0.18D-07  6  4     4.07
  11      1.06422378    -0.24502599-14559.66535498    -0.00000038    -0.00000002  0.58D-11  0.58D-08  6  5     4.19

 Norm of t1 vector:      0.00065547      S-energy:    -0.00000013      T1 diagnostic:  0.00000951
 Norm of t2 vector:      0.25342326      P-energy:    -0.24502586
                                         Alpha-Beta:  -0.18685542
                                         Alpha-Alpha: -0.02929201
                                         Beta-Beta:   -0.02887843

 Spin contamination <S**2-Sz**2-Sz>     0.00000000
  Reference energy                   -14559.4203289915
   --><property name="energy" method="Reference" stateSymmetry="1" stateNumber="1"
     value="-14559.4203289915"/><!--
  RHF-RMP2 correlation energy          -0.245025990285
   --><property name="energy" method="RHF-RMP2 correlation" stateSymmetry="1" stateNumber="1"
     value="-0.245025990285098"/><!--
 !RHF-RMP2 energy                    -14559.6653549818
   --><property name="energy" method="RHF-RMP2" principal="true" stateSymmetry="2"
     stateNumber="1" value="-14559.6653549818"/><!--
 (NB above energy spin projected)

 Starting RCCSD calculation

 ITER.      SQ.NORM     CORR.ENERGY   TOTAL ENERGY   ENERGY CHANGE        DEN1      VAR(S)    VAR(P)  DIIS     TIME
   1      1.03779803    -0.21660349-14559.63693248    -0.21660349    -0.02080038  0.55D-05  0.33D-02  1  1     6.28
   2      1.05456546    -0.24759963-14559.66792862    -0.03099614    -0.00161171  0.57D-05  0.38D-03  2  2     8.28
   3      1.06182500    -0.25309300-14559.67342199    -0.00549337    -0.00055186  0.29D-05  0.16D-03  3  3    10.24
   4      1.06958403    -0.25618505-14559.67651404    -0.00309204    -0.00026443  0.13D-05  0.80D-04  4  4    12.20
   5      1.07756254    -0.25779331-14559.67812230    -0.00160826    -0.00015622  0.83D-06  0.49D-04  5  5    14.24
   6      1.08440898    -0.25890273-14559.67923172    -0.00110942    -0.00012627  0.69D-06  0.41D-04  6  6    16.23
   7      1.08941734    -0.25931909-14559.67964809    -0.00041637    -0.00011946  0.57D-06  0.40D-04  7  7    18.22
   8      1.09007421    -0.25937938-14559.67970837    -0.00006028    -0.00012016  0.55D-06  0.40D-04  8  8    20.25
   9      1.08696808    -0.25921391-14559.67954290     0.00016547    -0.00011001  0.65D-06  0.36D-04  9  9    22.22
  10      1.08450794    -0.25885881-14559.67918780     0.00035510    -0.00007576  0.87D-06  0.23D-04 10 10    24.26
  11      1.08820343    -0.25895117-14559.67928016    -0.00009236    -0.00005193  0.11D-05  0.15D-04 11 11    26.33
  12      1.09275480    -0.25914120-14559.67947019    -0.00019003    -0.00003476  0.12D-05  0.90D-05 12 12    28.36
  13      1.09676044    -0.25931539-14559.67964439    -0.00017420    -0.00002702  0.14D-05  0.62D-05 13 13    30.39
  14      1.10007043    -0.25954834-14559.67987734    -0.00023295    -0.00002123  0.15D-05  0.41D-05 14 14    32.44
  15      1.10304503    -0.25967300-14559.68000199    -0.00012465    -0.00001792  0.17D-05  0.27D-05 15 15    34.57
  16      1.10439756    -0.25976559-14559.68009458    -0.00009260    -0.00001694  0.19D-05  0.21D-05 15  1    36.64
  17      1.10435888    -0.25976264-14559.68009163     0.00000296    -0.00001695  0.19D-05  0.21D-05 15  2    38.72
  18      1.10386455    -0.25973047-14559.68005946     0.00003216    -0.00001667  0.16D-05  0.25D-05 15  3    40.79
  19      1.10425448    -0.25962743-14559.67995642     0.00010305    -0.00001455  0.11D-05  0.26D-05 15  4    42.84
  20      1.10705381    -0.25963840-14559.67996740    -0.00001098    -0.00001081  0.62D-06  0.23D-05 15 11    44.89
  21      1.11098374    -0.25971288-14559.68004187    -0.00007448    -0.00000732  0.31D-06  0.18D-05 15 12    46.96
  22      1.11482604    -0.25973642-14559.68006541    -0.00002353    -0.00000438  0.16D-06  0.11D-05 15  5    49.01
  23      1.11722836    -0.25971461-14559.68004360     0.00002181    -0.00000260  0.98D-07  0.66D-06 15  6    51.06
  24      1.11863798    -0.25972478-14559.68005377    -0.00001017    -0.00000172  0.71D-07  0.43D-06 15  7    53.13
  25      1.11975021    -0.25977292-14559.68010191    -0.00004814    -0.00000112  0.53D-07  0.28D-06 15  9    55.20
  26      1.12018420    -0.25978234-14559.68011133    -0.00000942    -0.00000090  0.44D-07  0.22D-06 15  8    57.27
  27      1.12025405    -0.25979235-14559.68012134    -0.00001001    -0.00000080  0.39D-07  0.20D-06 15 10    59.37
  28      1.12007396    -0.25979485-14559.68012384    -0.00000250    -0.00000076  0.35D-07  0.20D-06 15 13    61.45
  29      1.12006893    -0.25979307-14559.68012206     0.00000178    -0.00000074  0.32D-07  0.20D-06 15 14    63.51
  30      1.12028682    -0.25979621-14559.68012521    -0.00000314    -0.00000072  0.29D-07  0.20D-06 15 15    65.59
  31      1.12032869    -0.25979664-14559.68012563    -0.00000042    -0.00000072  0.29D-07  0.20D-06 15  1    67.64
  32      1.12025932    -0.25980777-14559.68013677    -0.00001114    -0.00000070  0.29D-07  0.19D-06 15  3    69.72
  33      1.12017444    -0.25980257-14559.68013156     0.00000520    -0.00000067  0.28D-07  0.18D-06 15  2    71.76
  34      1.12006153    -0.25977553-14559.68010453     0.00002704    -0.00000064  0.26D-07  0.17D-06 15  4    73.84
  35      1.12007964    -0.25975656-14559.68008555     0.00001898    -0.00000061  0.23D-07  0.17D-06 15 11    75.90
  36      1.12032884    -0.25976407-14559.68009306    -0.00000751    -0.00000059  0.21D-07  0.17D-06 15 12    77.95
  37      1.12043491    -0.25976981-14559.68009880    -0.00000574    -0.00000059  0.21D-07  0.17D-06 15  5    80.05
  38      1.12047336    -0.25976773-14559.68009673     0.00000208    -0.00000059  0.21D-07  0.17D-06 15  6    82.08
  39      1.12082540    -0.25977558-14559.68010457    -0.00000785    -0.00000057  0.22D-07  0.16D-06 15  7    84.15
  40      1.12101429    -0.25977681-14559.68010580    -0.00000123    -0.00000056  0.22D-07  0.15D-06 15  9    86.26
  41      1.12121340    -0.25977044-14559.68009944     0.00000637    -0.00000054  0.22D-07  0.15D-06 15  8    88.34
  42      1.12144945    -0.25975983-14559.68008882     0.00001062    -0.00000053  0.23D-07  0.14D-06 15 10    90.40
  43      1.12147952    -0.25975823-14559.68008723     0.00000159    -0.00000053  0.23D-07  0.14D-06 15  7    92.44
  44      1.12142176    -0.25976153-14559.68009052    -0.00000329    -0.00000052  0.23D-07  0.14D-06 15  6    94.48
  45      1.12135915    -0.25976139-14559.68009038     0.00000013    -0.00000050  0.23D-07  0.13D-06 15  2    96.47
  46      1.12132616    -0.25975378-14559.68008277     0.00000762    -0.00000048  0.22D-07  0.12D-06 15 13    98.51
  47      1.12135348    -0.25975029-14559.68007928     0.00000349    -0.00000046  0.22D-07  0.12D-06 15  4   100.54
  48      1.12144050    -0.25975461-14559.68008360    -0.00000432    -0.00000046  0.21D-07  0.12D-06 15 11   102.58
  49      1.12144075    -0.25975460-14559.68008359     0.00000001    -0.00000046  0.21D-07  0.12D-06 15 12   104.64
  50      1.12154952    -0.25976030-14559.68008930    -0.00000570    -0.00000045  0.20D-07  0.12D-06 15  5   106.71
  51      1.12159831    -0.25976181-14559.68009080    -0.00000151    -0.00000045  0.20D-07  0.12D-06 15 14   108.74
  52      1.12169445    -0.25976414-14559.68009313    -0.00000233    -0.00000045  0.19D-07  0.12D-06 15 15   110.82
  53      1.12186988    -0.25977035-14559.68009934    -0.00000621    -0.00000044  0.19D-07  0.12D-06 15  8   112.91
  54      1.12191509    -0.25977781-14559.68010680    -0.00000746    -0.00000044  0.19D-07  0.12D-06 15 14   114.92
  55      1.12204721    -0.25978801-14559.68011700    -0.00001020    -0.00000043  0.19D-07  0.11D-06 15  3   116.99
  56      1.12217106    -0.25979989-14559.68012888    -0.00001188    -0.00000042  0.19D-07  0.11D-06 15  1   119.08
  57      1.12217755    -0.25980538-14559.68013437    -0.00000549    -0.00000042  0.18D-07  0.11D-06 15  2   121.13
  58      1.12217434    -0.25980967-14559.68013867    -0.00000430    -0.00000041  0.17D-07  0.11D-06 15  9   123.19
  59      1.12207665    -0.25981303-14559.68014202    -0.00000335    -0.00000041  0.16D-07  0.11D-06 15 10   125.27
  60      1.12200345    -0.25981273-14559.68014172     0.00000030    -0.00000041  0.15D-07  0.11D-06 15  2   127.33
  61      1.12199251    -0.25981225-14559.68014124     0.00000048    -0.00000041  0.15D-07  0.11D-06 15 14   129.40
  62      1.12199914    -0.25981302-14559.68014201    -0.00000077    -0.00000041  0.15D-07  0.11D-06 15  2   131.45
  63      1.12209027    -0.25981814-14559.68014713    -0.00000512    -0.00000040  0.15D-07  0.11D-06 15  8   133.53
  64      1.12227073    -0.25982069-14559.68014968    -0.00000255    -0.00000040  0.15D-07  0.11D-06 15  4   135.64
  65      1.12238305    -0.25981988-14559.68014887     0.00000081    -0.00000039  0.16D-07  0.11D-06 15 10   137.71
  66      1.12241982    -0.25981995-14559.68014894    -0.00000007    -0.00000039  0.15D-07  0.11D-06 15  6   139.79
  67      1.12240493    -0.25982104-14559.68015003    -0.00000109    -0.00000039  0.15D-07  0.11D-06 15  7   141.86
  68      1.12242379    -0.25982106-14559.68015005    -0.00000002    -0.00000039  0.15D-07  0.11D-06 15 13   143.88
  69      1.12241939    -0.25982092-14559.68014991     0.00000014    -0.00000039  0.15D-07  0.11D-06 15 11   145.96
  70      1.12238460    -0.25982161-14559.68015060    -0.00000069    -0.00000039  0.15D-07  0.11D-06 15 13   148.00
  71      1.12242970    -0.25982036-14559.68014935     0.00000125    -0.00000039  0.15D-07  0.11D-06 15 10   150.02
  72      1.12253486    -0.25981783-14559.68014682     0.00000253    -0.00000039  0.15D-07  0.11D-06 15  3   152.05
  73      1.12264190    -0.25981523-14559.68014422     0.00000259    -0.00000038  0.15D-07  0.10D-06 15  1   154.16
  74      1.12273450    -0.25981195-14559.68014095     0.00000328    -0.00000038  0.15D-07  0.10D-06 15 15   156.20
  75      1.12288312    -0.25981165-14559.68014064     0.00000031    -0.00000037  0.14D-07  0.10D-06 15  9   158.26
  76      1.12297497    -0.25981384-14559.68014283    -0.00000220    -0.00000037  0.13D-07  0.10D-06 15  2   160.32
  77      1.12297926    -0.25981392-14559.68014291    -0.00000008    -0.00000037  0.13D-07  0.10D-06 15  4   162.38
  78      1.12295274    -0.25981419-14559.68014318    -0.00000027    -0.00000037  0.13D-07  0.10D-06 15  2   164.48
  79      1.12284573    -0.25981274-14559.68014173     0.00000145    -0.00000036  0.13D-07  0.10D-06 15  3   166.56
  80      1.12265727    -0.25980875-14559.68013774     0.00000399    -0.00000035  0.11D-07  0.10D-06 15  6   168.60
  81      1.12248080    -0.25980458-14559.68013357     0.00000417    -0.00000035  0.10D-07  0.10D-06 15  9   170.71
  82      1.12228406    -0.25980775-14559.68013674    -0.00000317    -0.00000032  0.88D-08  0.96D-07 15 15   172.78
  83      1.12212828    -0.25979958-14559.68012857     0.00000817    -0.00000030  0.75D-08  0.92D-07 15  1   174.86
  84      1.12210477    -0.25978558-14559.68011457     0.00001400    -0.00000029  0.65D-08  0.90D-07 15  3   176.95
  85      1.12214541    -0.25977637-14559.68010536     0.00000921    -0.00000029  0.55D-08  0.90D-07 15 10   179.00
  86      1.12229123    -0.25978076-14559.68010975    -0.00000439    -0.00000028  0.47D-08  0.90D-07 15 15   181.04
  87      1.12256398    -0.25979341-14559.68012240    -0.00001265    -0.00000028  0.40D-08  0.91D-07 15  1   183.15
  88      1.12262045    -0.25979544-14559.68012443    -0.00000203    -0.00000028  0.38D-08  0.91D-07 15  7   185.22
  89      1.12260829    -0.25979448-14559.68012348     0.00000095    -0.00000028  0.39D-08  0.91D-07 15  1   187.30
  90      1.12274775    -0.25979402-14559.68012301     0.00000046    -0.00000027  0.38D-08  0.87D-07 15  4   189.33
  91      1.12296808    -0.25979943-14559.68012842    -0.00000541    -0.00000025  0.35D-08  0.82D-07 15  1   191.38
  92      1.12333734    -0.25981088-14559.68013987    -0.00001145    -0.00000024  0.28D-08  0.78D-07 15  9   193.47
  93      1.12345178    -0.25981202-14559.68014101    -0.00000114    -0.00000024  0.25D-08  0.78D-07 15 15   195.48
  94      1.12343405    -0.25980937-14559.68013836     0.00000264    -0.00000023  0.25D-08  0.78D-07 15  2   197.55
  95      1.12346203    -0.25980942-14559.68013841    -0.00000005    -0.00000023  0.25D-08  0.78D-07 15  6   199.59
  96      1.12358537    -0.25981037-14559.68013936    -0.00000095    -0.00000023  0.23D-08  0.78D-07 15  3   201.68
  97      1.12364442    -0.25981035-14559.68013935     0.00000002    -0.00000023  0.22D-08  0.78D-07 15 10   203.72
  98      1.12370753    -0.25980919-14559.68013818     0.00000117    -0.00000023  0.22D-08  0.77D-07 15 13   205.77
  99      1.12374541    -0.25980816-14559.68013715     0.00000102    -0.00000023  0.22D-08  0.77D-07 15 11   207.86

 Norm of t1 vector:      0.05832485      S-energy:     0.00000002      T1 diagnostic:  0.01243297
                                                                       D1 diagnostic:  0.03587814
 Norm of t2 vector:      0.34690578      P-energy:    -0.25980818
                                         Alpha-Beta:  -0.20287593
                                         Alpha-Alpha: -0.02877504
                                         Beta-Beta:   -0.02815722

 Doubles amplitudes (print threshold =  0.500E-01):

         I         J         SYM. A    SYM. B    A         B      T(IJ, AB) [Alpha-Beta]

         2         2         1         1         1         1      0.05400037
         2         2         1         1         2         2     -0.06705824
         2         2         4         4         1         1     -0.06705972
         2         2         5         5         3         3     -0.06207819

 ?CONVERGENCE NOT REACHED AFTER MAX. ITERATIONS

 ?ERROR: NO CONVERGENCE. TRIPLES WILL NOT BE DONE. THIS CAN BE AVOIDED USING THE NOCHECK OPTION.

 Spin contamination <S**2-Sz**2-Sz>     0.00000000


 RESULTS
 =======

  Reference energy                   -14559.4203289915
   --><property name="energy" method="Reference" stateSymmetry="1" stateNumber="1"
     value="-14559.4203289915"/><!--
  RCCSD singles energy                  0.000000019212
   --><property name="energy" method="RCCSD singles" stateSymmetry="1" stateNumber="1"
     value="0.192115081620869E-07"/><!--
  RCCSD pair energy                    -0.259808182434
   --><property name="energy" method="RCCSD pair" stateSymmetry="1" stateNumber="1"
     value="-0.259808182434101"/><!--
  RCCSD correlation energy             -0.259808163223
   --><property name="energy" method="RCCSD correlation" stateSymmetry="1" stateNumber="1"
     value="-0.259808163222592"/><!--

 !RHF-RCCSD energy                   -14559.6801371547
   --><property name="energy" method="RHF-RCCSD" principal="true" stateSymmetry="1"
     stateNumber="1" value="-14559.6801371547"/><!--

 Program statistics:

 Available memory in ccsd:              1999999552
 Min. memory needed in ccsd:               3253583
 Max. memory used in ccsd:                 4287330
 Max. memory used in cckext:               4335957 (99 integral passes)
 Max. memory used in cckint:              19449501 ( 1 integral passes)


 ? Error
 ? No convergence. This error exit can be avoided using the NOCHECK option
 ? The problem occurs in ccsd
   --><error type="Error" location="ccsd"
     message="No convergence. This error exit can be avoided using the NOCHECK option"/><!--
  --></jobstep><!--
  -->
  <input>
  <!--
 --></job><!--
--></molpro>
