
 Primary working directories    : /global/cscratch1/sd/haihan
 Secondary working directories  : /global/cscratch1/sd/haihan
 Wavefunction directory         : /global/homes/h/haihan/Research/ECP/f_group_element_ecps/Nb/Molpro/molecules/NbH/UC/wfu/
 Main file repository           : /global/cscratch1/sd/haihan/

 SHA1      : 19cd028119e0e09f93f0674bd8af7968d9b3eff6
 NAME      : 2015.1.36
 ARCHNAME  : linux/x86_64
 FC        : /opt/cray/pe/craype/2.5.14/bin/ftn
 BLASLIB   : -L/opt/intel/compilers_and_libraries_2018.1.163/linux/mkl/lib/intel64 -Wl,-_start-group -lmkl_intel_ilp64 -lmkl_intel_thread -lmkl_core -Wl,-_end-group -liomp5
 id        : lbl

 Nodes     nprocs
 nid02062    11
 Number of processes for MPI-2 version of Molpro:   nprocs(total)=   12   nprocs(compute)=   11   nprocs(helper)=    1

 Using customized tuning parameters: mindgm=7; mindgv=16; mindgc=1; mindgr=1; noblas=0; minvec=7
 default implementation of scratch files=sf  

 ***,Calculation for all-electron YH molecule, SCF and CCSD(T)
 memory,1,g
 gthresh,twoint=1.0E-15
 gthresh,throvl=1.0E-15
 
 set,dkroll=1,dkho=10,dkhp=4
 basis={
 Including file /global/u2/h/haihan/Research/ECP/f_group_element_ecps/Nb/Molpro/molecules/NbH/UC/r_2.60/../generate/Nb-aug-cc-pwCVTZ.basis
 Including file /global/u2/h/haihan/Research/ECP/f_group_element_ecps/Nb/Molpro/molecules/NbH/UC/r_2.60/../generate/H-aug-cc-pVTZ.basis
 }
 
 Nb_ccsd=-3817.706564
 H_ccsd=-0.49982785
 
                                                                                 !These are the wf cards parameters
 ne = 42
 symm = 1
 ss= 4
 
                                                                                 !There are irrep cards paramters
 A1=11
 B1=5
 B2=5
 A2=2
 
 
 geometry={
     2
     NbH molecule
     Nb 0.0 0.0 0.0
     H 0.0 0.0 2.60
 }
 {rhf,nitord=20;
  maxit,200;
  wf,ne,symm,ss
  occ,A1,B1,B2,A2
  closed,A1-1,B1-1,B2-1,A2-1
  print,orbitals=2
 }
 scf=energy
 _CC_NORM_MAX=2.0
 {rccsd(t),shifts=0.5,shiftp=0.5,thrdis=1.0;diis,1,1,15,1;maxit,200;core,7,3,3,1}
 ccsd=energy
 bind=ccsd-Nb_ccsd-H_ccsd
 
 
 table,2.60,scf,ccsd,bind
 save
 type,csv
 

 Variables initialized (889), CPU time= 0.00 sec
 Commands  initialized (702), CPU time= 0.02 sec, 572 directives.
 Default parameters read. Elapsed time= 0.14 sec

 Checking input...
 Passed
1


                                         ***  PROGRAM SYSTEM MOLPRO  ***
                                       Copyright, TTI GmbH Stuttgart, 2015
                                    Version 2015.1 linked Dec 29 2018 15:55:43


 **********************************************************************************************************************************
 LABEL *   Calculation for all-electron YH molecule, SCF and CCSD(T)                     
  64 bit mpp version                                                                     DATE: 04-Oct-22          TIME: 18:20:41  
 **********************************************************************************************************************************

 SHA1:             19cd028119e0e09f93f0674bd8af7968d9b3eff6
 **********************************************************************************************************************************

 THRESHOLDS:

 ZERO    =  1.00D-12  ONEINT  =  1.00D-12  TWOINT  =  1.00D-15  PREFAC  =  1.00D-14  LOCALI  =  1.00D-09  EORDER  =  1.00D-04
 ENERGY  =  0.00D+00  ETEST   =  0.00D+00  EDENS   =  0.00D+00  THRDEDEF=  1.00D-06  GRADIENT=  1.00D-02  STEP    =  1.00D-03
 ORBITAL =  1.00D-05  CIVEC   =  1.00D-05  COEFF   =  1.00D-04  PRINTCI =  5.00D-02  PUNCHCI =  9.90D+01  OPTGRAD =  3.00D-04
 OPTENERG=  1.00D-06  OPTSTEP =  3.00D-04  THRGRAD =  1.00D-10  COMPRESS=  1.00D-11  VARMIN  =  1.00D-07  VARMAX  =  1.00D-03
 THRDOUB =  0.00D+00  THRDIV  =  1.00D-05  THRRED  =  1.00D-07  THRPSP  =  1.00D+00  THRDC   =  1.00D-10  THRCS   =  1.00D-10
 THRNRM  =  1.00D-08  THREQ   =  0.00D+00  THRDE   =  1.00D+00  THRREF  =  1.00D-05  SPARFAC =  1.00D+00  THRDLP  =  1.00D-07
 THRDIA  =  1.00D-10  THRDLS  =  1.00D-07  THRGPS  =  0.00D+00  THRKEX  =  0.00D+00  THRDIS  =  2.00D-01  THRVAR  =  1.00D-10
 THRLOC  =  1.00D-06  THRGAP  =  1.00D-06  THRLOCT = -1.00D+00  THRGAPT = -1.00D+00  THRORB  =  1.00D-06  THRMLTP =  0.00D+00
 THRCPQCI=  1.00D-10  KEXTA   =  0.00D+00  THRCOARS=  0.00D+00  SYMTOL  =  1.00D-06  GRADTOL =  1.00D-06  THROVL  =  1.00D-08
 THRORTH =  1.00D-08  GRID    =  1.00D-06  GRIDMAX =  1.00D-03  DTMAX   =  0.00D+00  THROCCDE=  1.00D-01  THROCCDE=  1.00D-01



 THRESHOLDS:

 ZERO    =  1.00D-12  ONEINT  =  1.00D-12  TWOINT  =  1.00D-15  PREFAC  =  1.00D-14  LOCALI  =  1.00D-09  EORDER  =  1.00D-04
 ENERGY  =  0.00D+00  ETEST   =  0.00D+00  EDENS   =  0.00D+00  THRDEDEF=  1.00D-06  GRADIENT=  1.00D-02  STEP    =  1.00D-03
 ORBITAL =  1.00D-05  CIVEC   =  1.00D-05  COEFF   =  1.00D-04  PRINTCI =  5.00D-02  PUNCHCI =  9.90D+01  OPTGRAD =  3.00D-04
 OPTENERG=  1.00D-06  OPTSTEP =  3.00D-04  THRGRAD =  1.00D-10  COMPRESS=  1.00D-11  VARMIN  =  1.00D-07  VARMAX  =  1.00D-03
 THRDOUB =  0.00D+00  THRDIV  =  1.00D-05  THRRED  =  1.00D-07  THRPSP  =  1.00D+00  THRDC   =  1.00D-10  THRCS   =  1.00D-10
 THRNRM  =  1.00D-08  THREQ   =  0.00D+00  THRDE   =  1.00D+00  THRREF  =  1.00D-05  SPARFAC =  1.00D+00  THRDLP  =  1.00D-07
 THRDIA  =  1.00D-10  THRDLS  =  1.00D-07  THRGPS  =  0.00D+00  THRKEX  =  0.00D+00  THRDIS  =  2.00D-01  THRVAR  =  1.00D-10
 THRLOC  =  1.00D-06  THRGAP  =  1.00D-06  THRLOCT = -1.00D+00  THRGAPT = -1.00D+00  THRORB  =  1.00D-06  THRMLTP =  0.00D+00
 THRCPQCI=  1.00D-10  KEXTA   =  0.00D+00  THRCOARS=  0.00D+00  SYMTOL  =  1.00D-06  GRADTOL =  1.00D-06  THROVL  =  1.00D-15
 THRORTH =  1.00D-08  GRID    =  1.00D-06  GRIDMAX =  1.00D-03  DTMAX   =  0.00D+00  THROCCDE=  1.00D-01  THROCCDE=  1.00D-01


 SETTING DKROLL         =         1.00000000                                  
 SETTING DKHO           =        10.00000000                                  
 SETTING DKHP           =         4.00000000                                  

 Variable memory set to 1000000000 words,  buffer space   230000 words

 SETTING BASIS          =    USERDEF
 SETTING NB_CCSD        =     -3817.70656400                                  
 SETTING H_CCSD         =        -0.49982785                                  
 SETTING NE             =        42.00000000                                  
 SETTING SYMM           =         1.00000000                                  
 SETTING SS             =         4.00000000                                  
 SETTING A1             =        11.00000000                                  
 SETTING B1             =         5.00000000                                  
 SETTING B2             =         5.00000000                                  
 SETTING A2             =         2.00000000                                  

Geometry recognized as XYZ



 Recomputing integrals since basis changed


 Using spherical harmonics



 PROGRAM * SEWARD (Integral evaluation for generally contracted gaussian basis sets)     Author: Roland Lindh, 1990

 Geometry written to block  1 of record 700


 Point group  C2v 



 ATOMIC COORDINATES

 NR  ATOM    CHARGE       X              Y              Z

   1  NB     41.00    0.000000000    0.000000000    0.000000000
   2  H       1.00    0.000000000    0.000000000    4.913287924

 Bond lengths in Bohr (Angstrom)

 1-2  4.913287924
     ( 2.600000000)

 NUCLEAR CHARGE:                   42
 NUMBER OF PRIMITIVE AOS:         550
 NUMBER OF SYMMETRY AOS:          417
 NUMBER OF CONTRACTIONS:          417   ( 168A1  +  98B1  +  98B2  +  53A2  )
 NUMBER OF CORE ORBITALS:          18   (   9A1  +   4B1  +   4B2  +   1A2  )
 NUMBER OF VALENCE ORBITALS:        7   (   4A1  +   1B1  +   1B2  +   1A2  )


 NUCLEAR REPULSION ENERGY    8.34471756

 One-electron integrals computed with SEWARD

 10nd-order Douglas-Kroll-Hess method activated. McWeeny DKH parametrization is used.

 Computing Douglas-Kroll / X2C integrals

 AO integral compression algorithm  1   Integral accuracy      1.0D-15

     2799.174 MB (compressed) written to integral file ( 40.7%)

     Node minimum: 107.217 MB, node maximum: 529.793 MB


 NUMBER OF SORTED TWO-ELECTRON INTEGRALS:   88060577.     BUFFER LENGTH:  32768
 NUMBER OF SEGMENTS:   3  SEGMENT LENGTH:   31988502      RECORD LENGTH: 524288

 Memory used in sort:      32.55 MW

 SORT1 READ   859012552. AND WROTE    27985294. INTEGRALS IN     82 RECORDS. CPU TIME:    14.83 SEC, REAL TIME:    18.41 SEC
 SORT2 READ   305288458. AND WROTE   968253495. INTEGRALS IN  22231 RECORDS. CPU TIME:     2.64 SEC, REAL TIME:     5.70 SEC

 Node minimum:    88001977.  Node maximum:    88124873. integrals

 OPERATOR DM      FOR CENTER  0  COORDINATES:    0.000000    0.000000    0.000000

 EXTRA SYMMETRY OF AOS IN SYMMETRY 1:   1 1 1 1 1 1 1 1 1 1   1 1 1 1 1 1 1 1 1 1   1 1 1 1 1 1 1 1 1 1   1 1 1 1 1 1 1 1 1 1
                                        1 1 1 1 1 1 1 1 1 1   1 1 1 1 1 1 1 1 1 1   1 1 1 1 1 1 2 1 2 1   2 1 2 1 2 1 2 1 2 1
                                        2 1 2 1 2 1 2 1 2 1   2 1 2 1 2 1 2 1 2 1   2 1 2 1 2 1 2 1 2 1   2 1 2 1 2 1 2 1 2 1
                                        2 1 2 1 3 2 1 3 2 1   3 2 1 3 2 1 3 2 2 3   1 2 3 1 2 3 1 4 3 2   1 4 3 2 1 1 1 1 1 1
                                        1 1 1 1 1 2 1 2
 EXTRA SYMMETRY OF AOS IN SYMMETRY 2:   1 1 1 1 1 1 1 1 1 1   1 1 1 1 1 1 1 1 1 1   1 1 1 1 1 1 1 1 1 1   1 1 1 1 1 1 1 1 1 1
                                        1 1 1 1 1 1 1 1 1 1   1 1 1 1 1 1 1 2 1 2   1 2 1 2 1 2 1 2 1 2   1 2 1 2 1 2 1 2 1 2
                                        3 1 2 3 1 2 3 3 2 1   3 2 1 1 1 1 1 1
 EXTRA SYMMETRY OF AOS IN SYMMETRY 3:   1 1 1 1 1 1 1 1 1 1   1 1 1 1 1 1 1 1 1 1   1 1 1 1 1 1 1 1 1 1   1 1 1 1 1 1 1 1 1 1
                                        1 1 1 1 1 1 1 1 1 1   1 1 1 1 1 1 1 2 1 2   1 2 1 2 1 2 1 2 1 2   1 2 1 2 1 2 1 2 1 2
                                        3 1 2 3 1 2 3 3 2 1   3 2 1 1 1 1 1 1
 EXTRA SYMMETRY OF AOS IN SYMMETRY 4:   1 1 1 1 1 1 1 1 1 1   1 1 1 1 1 1 1 1 1 1   1 1 1 1 1 1 1 1 1 1   2 1 2 1 2 1 2 1 2 2
                                        1 2 1 2 1 1 3 2 1 3   2 1 1

 Eigenvalues of metric

         1 0.333E-06 0.217E-05 0.578E-05 0.108E-04 0.125E-04 0.261E-04 0.307E-04 0.399E-04
         2 0.339E-06 0.217E-05 0.606E-05 0.127E-04 0.264E-04 0.399E-04 0.498E-04 0.359E-03
         3 0.339E-06 0.217E-05 0.606E-05 0.127E-04 0.264E-04 0.399E-04 0.498E-04 0.359E-03
         4 0.399E-04 0.664E-03 0.112E-02 0.208E-02 0.393E-02 0.742E-02 0.137E-01 0.245E-01


 **********************************************************************************************************************************
 DATASETS  * FILE   NREC   LENGTH (MB)   RECORD NAMES
              1      22       23.36       500      610      700      900      950      970     1000      129      960     1700   
                                          VAR    BASINP    GEOM    SYMINP    ZMAT    AOBASIS   BASIS     P2S    ABASIS    OPER   
                                         1101     1401     1411     1412     1650     1100     1400     1410     1200     1210   
                                          SR      EKINR    POTR     PVPR    MOLCAS      S      EKIN      POT      H0       H01  
                                         1080     1600   
                                         AOSYM     SMH  

 PROGRAMS   *        TOTAL       INT
 CPU TIMES  *       167.53    167.33
 REAL TIME  *       176.43 SEC
 DISK USED  *         6.60 GB      
 GA USED    *         0.00 MB       (max)       0.00 MB       (current)
 **********************************************************************************************************************************


 PROGRAM * RHF-SCF (OPEN SHELL)       Authors: W. Meyer, H.-J. Werner


 NUMBER OF ELECTRONS:      23+   19-    SPACE SYMMETRY=1    SPIN SYMMETRY: Quintet 
 CONVERGENCE THRESHOLDS:    1.00E-05 (Density)    1.00E-07 (Energy)
 MAX. NUMBER OF ITERATIONS:      200
 INTERPOLATION TYPE:            DIIS
 INTERPOLATION STEPS:              2 (START)      1 (STEP)
 LEVEL SHIFTS:                 -0.60 (CLOSED) -0.30 (OPEN) 

 Number of closed-shell orbitals:   19 (  10   4   4   1 )
 Number of open-shell orbitals:      4 (   1   1   1   1 )


 Orbital guess generated from atomic densities. Full valence occupancy:   13   5   5   2

 Molecular orbital dump at record        2100.2

 ITERATION    DDIFF          GRAD             ENERGY        2-EL.EN.            DIPOLE MOMENTS         DIIS   ORB.
    1      0.000D+00      0.000D+00     -3814.23654855   2748.326421    0.00000    0.00000   -6.86517    0    start
    2      0.000D+00      0.129D-01     -3816.51629237   3028.114341    0.00000    0.00000    1.18991    1    diag,B
    3      0.779D-01      0.236D-01     -3817.42529050   2974.668195    0.00000    0.00000   -1.04555    2    diag,B
    4      0.337D-02      0.101D-01     -3817.69860834   2947.774748    0.00000    0.00000   -2.08383    3    diag,B
    5      0.217D-02      0.440D-02     -3817.77052298   2933.472511    0.00000    0.00000   -2.57525    4    diag,B
    6      0.131D-02      0.157D-02     -3817.78640233   2926.235563    0.00000    0.00000   -2.79911    5    diag,B
    7      0.853D-03      0.381D-03     -3817.78844496   2924.194087    0.00000    0.00000   -2.86687    6    diag,B
    8      0.689D-03      0.134D-03     -3817.78881341   2923.904159    0.00000    0.00000   -2.87830    7    diag,B
    9      0.359D-03      0.649D-04     -3817.78891264   2923.854695    0.00000    0.00000   -2.87989    8    diag,B
   10      0.229D-03      0.320D-04     -3817.78893626   2923.843822    0.00000    0.00000   -2.87981    9    orth
   11      0.106D-03      0.143D-04     -3817.78894100   2923.855994    0.00000    0.00000   -2.87990    9    diag,B
   12      0.438D-04      0.601D-05     -3817.78894165   2923.853280    0.00000    0.00000   -2.88001    9    diag,B
   13      0.446D-04      0.208D-05     -3817.78894172   2923.853571    0.00000    0.00000   -2.87990    9    diag,B
   14      0.167D-04      0.816D-06     -3817.78894173   2923.853479    0.00000    0.00000   -2.87976    9    diag,B
   15      0.459D-05      0.368D-06     -3817.78894173   2923.853607    0.00000    0.00000   -2.87972    0    orth

 Final alpha occupancy:  11   5   5   2
 Final beta  occupancy:  10   4   4   1

 !RHF STATE 1.1 Energy              -3817.788941731936
 Nuclear energy                         8.34471756
 One-electron energy                -5288.06046266
 Two-electron energy                 1461.92680338
 Virial quotient                       -0.90738950
 !RHF STATE 1.1 Dipole moment           0.00000000     0.00000000    -2.87972246
 Dipole moment /Debye                   0.00000000     0.00000000    -7.31904500

 ELECTRON ORBITALS
 =================


   Orb  Occ    Energy  Couls-En    Coefficients

                                   1 1s      1 1s      1 1s      1 1s      1 1s      1 1s      1 1s      1 1s      1 1s      1 1s   
                                   1 1s      1 1s      1 1s      1 1s      1 1s      1 1s      1 1s      1 1s      1 1s      1 1s   
                                   1 1s      1 1s      1 1s      1 1s      1 1s      1 1s      1 1s      1 1s      1 1s      1 1s   
                                   1 1s      1 1s      1 2pz     1 2pz     1 2pz     1 2pz     1 2pz     1 2pz     1 2pz     1 2pz  
                                   1 2pz     1 2pz     1 2pz     1 2pz     1 2pz     1 2pz     1 2pz     1 2pz     1 2pz     1 2pz  
                                   1 2pz     1 2pz     1 2pz     1 2pz     1 2pz     1 2pz     1 2pz     1 2pz     1 2pz     1 2pz  
                                   1 2pz     1 2pz     1 2pz     1 2pz     1 2pz     1 3d0     1 3d2+    1 3d0     1 3d2+    1 3d0  
                                   1 3d2+    1 3d0     1 3d2+    1 3d0     1 3d2+    1 3d0     1 3d2+    1 3d0     1 3d2+    1 3d0  
                                   1 3d2+    1 3d0     1 3d2+    1 3d0     1 3d2+    1 3d0     1 3d2+    1 3d0     1 3d2+    1 3d0  
                                   1 3d2+    1 3d0     1 3d2+    1 3d0     1 3d2+    1 3d0     1 3d2+    1 3d0     1 3d2+    1 3d0  
                                   1 3d2+    1 3d0     1 3d2+    1 3d0     1 3d2+    1 3d0     1 3d2+    1 3d0     1 3d2+    1 3d0  
                                   1 3d2+    1 4f0     1 4f2+    1 4f0     1 4f2+    1 4f0     1 4f2+    1 4f0     1 4f2+    1 4f0  
                                   1 4f2+    1 4f0     1 4f2+    1 5g0     1 5g4+    1 5g2+    1 5g0     1 5g4+    1 5g2+    1 5g0  
                                   1 5g4+    1 5g2+    1 5g0     1 5g4+    1 5g2+    1 5g0     1 5g4+    1 5g2+    1 6h2+    1 6h4+ 
                                   1 6h0     1 6h2+    1 6h4+    1 6h0     1 6h2+    1 6h4+    1 6h0     1 7i6+    1 7i4+    1 7i2+ 
                                   1 7i0     1 7i6+    1 7i4+    1 7i2+    1 7i0     2 1s      2 1s      2 1s      2 1s      2 1s   
                                   2 1s      2 2pz     2 2pz     2 2pz     2 3d0     2 3d2+    2 3d0     2 3d2+ 

   1.1   2  -701.4435-1561.6578  0.000042  0.000115  0.000295  0.000468  0.000891  0.001786  0.003710  0.007904  0.017860  0.041501
                                 0.001175  0.099563  0.228267  0.385129  0.362541 -0.047558  0.073097 -0.011081  0.021809 -0.024339
                                 0.010879 -0.009540  0.011037 -0.006227  0.006814 -0.006060  0.001102 -0.000442  0.000241 -0.000054
                                 0.000028 -0.000008 -0.000000 -0.000000 -0.000000  0.000000 -0.000000  0.000000 -0.000000  0.000000
                                -0.000000  0.000003 -0.000003  0.000001 -0.000003  0.000007 -0.000016  0.000014 -0.000010  0.000020
                                -0.000129  0.000292 -0.000506  0.000517 -0.000280  0.000327 -0.000430  0.000254 -0.000105  0.000094
                                -0.000108  0.000041  0.000020 -0.000007  0.000002  0.000000 -0.000000  0.000000  0.000000  0.000000
                                -0.000000  0.000000  0.000000  0.000000 -0.000000  0.000000  0.000000  0.000000  0.000000  0.000000
                                -0.000000 -0.000000  0.000000 -0.000000 -0.000000 -0.000000  0.000000  0.000000 -0.000000 -0.000000
                                 0.000000  0.000000  0.000000 -0.000001 -0.000000  0.000002  0.000000 -0.000004 -0.000000  0.000007
                                 0.000000 -0.000056 -0.000000  0.000027  0.000000  0.000011 -0.000000  0.000000  0.000000 -0.000000
                                -0.000000 -0.000000  0.000000  0.000001 -0.000000 -0.000001  0.000000  0.000001 -0.000000 -0.000021
                                 0.000000  0.000012 -0.000000  0.000001 -0.000000  0.000000 -0.000003  0.000000 -0.000000  0.000003
                                -0.000000  0.000000 -0.000007  0.000000 -0.000000  0.000002 -0.000000  0.000000 -0.000000 -0.000000
                                 0.000000 -0.000000  0.000000 -0.000000  0.000000 -0.000000  0.000000  0.000000 -0.000000  0.000000
                                -0.000000 -0.000000  0.000000 -0.000000  0.000000  0.000000  0.000000  0.000000 -0.000007  0.000078
                                -0.000081  0.000001  0.000002 -0.000034  0.000001  0.000000  0.000001 -0.000000

   2.1   2  -100.8251 -314.9775 -0.000014 -0.000038 -0.000098 -0.000156 -0.000294 -0.000598 -0.001228 -0.002688 -0.005960 -0.015076
                                 0.001570 -0.038170 -0.087731 -0.193966 -0.178878 -0.068007  0.232175  0.724287  0.273621 -0.031159
                                -0.001044  0.019577 -0.025978  0.015942 -0.019145  0.017216 -0.003215  0.001312 -0.000717  0.000161
                                -0.000083  0.000024 -0.000000 -0.000000 -0.000000 -0.000000 -0.000000 -0.000000  0.000000 -0.000001
                                -0.000001 -0.000008  0.000004 -0.000014 -0.000026 -0.000068  0.000024 -0.000109 -0.000073 -0.000074
                                 0.000277 -0.000660  0.001203 -0.001271  0.000716 -0.000888  0.001190 -0.000719  0.000307 -0.000278
                                 0.000323 -0.000123 -0.000061  0.000020 -0.000006  0.000000 -0.000000  0.000000  0.000000 -0.000000
                                 0.000000  0.000000 -0.000000 -0.000000  0.000000  0.000001 -0.000000  0.000002  0.000000  0.000010
                                 0.000000  0.000018  0.000000  0.000006 -0.000000  0.000001  0.000000  0.000001 -0.000000  0.000001
                                 0.000000  0.000000 -0.000000  0.000001 -0.000000 -0.000004 -0.000000  0.000010 -0.000000 -0.000022
                                -0.000000  0.000167  0.000000 -0.000081 -0.000000 -0.000033  0.000000 -0.000000 -0.000000  0.000000
                                 0.000000  0.000001 -0.000000 -0.000001  0.000000  0.000002  0.000000 -0.000002  0.000000  0.000063
                                 0.000000 -0.000035  0.000000  0.000000  0.000000 -0.000000  0.000007 -0.000000  0.000000 -0.000009
                                 0.000000 -0.000000  0.000021 -0.000000  0.000000 -0.000006  0.000000 -0.000000  0.000000 -0.000000
                                -0.000000  0.000000  0.000000  0.000000  0.000000  0.000000 -0.000000 -0.000000  0.000000  0.000000
                                 0.000000  0.000000 -0.000000  0.000000 -0.000000 -0.000000  0.000000 -0.000002  0.000021 -0.000234
                                 0.000243 -0.000002 -0.000006  0.000100 -0.000002  0.000000 -0.000002 -0.000000

   3.1   2   -89.8221 -299.9096 -0.000000 -0.000000 -0.000000 -0.000000 -0.000000 -0.000000 -0.000000 -0.000001 -0.000002 -0.000004
                                 0.000001 -0.000011 -0.000024 -0.000054 -0.000046 -0.000025  0.000076  0.000202  0.000045  0.000017
                                -0.000014  0.000020 -0.000032  0.000023 -0.000049  0.000053 -0.000027  0.000041 -0.000014 -0.000006
                                 0.000001 -0.000000  0.000015  0.000056  0.000199  0.000055  0.000667  0.000582  0.000980  0.002015
                                 0.007616  0.018570  0.000712  0.050137  0.118913  0.237821 -0.002922  0.348764  0.291735  0.103400
                                 0.013289 -0.005944  0.011192 -0.009584  0.004107 -0.002756  0.002673 -0.001133  0.000230 -0.000100
                                 0.000063 -0.000015 -0.000000 -0.000000  0.000000 -0.000000  0.000000 -0.000000 -0.000000 -0.000000
                                 0.000000 -0.000000 -0.000000 -0.000000  0.000000 -0.000001 -0.000000 -0.000002  0.000000 -0.000005
                                 0.000000 -0.000011  0.000000 -0.000010  0.000000 -0.000003  0.000000 -0.000000  0.000000  0.000001
                                -0.000000 -0.000000 -0.000000  0.000002 -0.000000 -0.000003 -0.000000  0.000002 -0.000000  0.000000
                                -0.000000  0.000020  0.000000 -0.000008 -0.000000 -0.000002  0.000000 -0.000000 -0.000000  0.000000
                                 0.000000  0.000002  0.000000  0.000010 -0.000000  0.000002  0.000000  0.000003 -0.000000  0.000008
                                 0.000000 -0.000003  0.000000  0.000000 -0.000000  0.000000 -0.000000  0.000000 -0.000000 -0.000000
                                -0.000000  0.000000  0.000003 -0.000000 -0.000000 -0.000000  0.000000 -0.000000 -0.000000  0.000000
                                 0.000001  0.000000 -0.000000 -0.000000 -0.000000 -0.000000  0.000000  0.000000 -0.000000 -0.000000
                                -0.000000  0.000000  0.000000  0.000000  0.000000 -0.000000 -0.000000  0.000000  0.000002 -0.000034
                                 0.000016 -0.000001  0.000001  0.000015 -0.000000  0.000000 -0.000001 -0.000000

   4.1   2   -17.9963 -105.7617  0.000006  0.000016  0.000041  0.000065  0.000124  0.000251  0.000516  0.001131  0.002505  0.006390
                                -0.000734  0.016286  0.037648  0.086219  0.081893  0.037145 -0.139015 -0.606797 -0.320102  0.338385
                                 0.763608  0.537106 -0.310241  0.161635 -0.159546  0.142028 -0.025906  0.010468 -0.005769  0.001311
                                -0.000673  0.000198  0.000000  0.000000  0.000000  0.000000  0.000000 -0.000000  0.000002 -0.000000
                                 0.000006  0.000001  0.000013  0.000023  0.000081  0.000115  0.000077  0.000160  0.000245 -0.000337
                                 0.000678 -0.003051  0.005174 -0.006428  0.003668 -0.005259  0.007380 -0.004687  0.002138 -0.002053
                                 0.002450 -0.000971 -0.000489  0.000162 -0.000046  0.000000  0.000000  0.000000 -0.000000  0.000000
                                 0.000000  0.000000 -0.000000  0.000001  0.000000  0.000003  0.000000  0.000007  0.000000  0.000018
                                 0.000000  0.000039  0.000000  0.000124  0.000000  0.000164  0.000000  0.000278  0.000000  0.000244
                                 0.000000 -0.000017  0.000000  0.000007 -0.000000 -0.000047  0.000000  0.000087  0.000000 -0.000175
                                 0.000000  0.001286  0.000000 -0.000634  0.000000 -0.000271 -0.000000 -0.000002  0.000000  0.000002
                                -0.000000  0.000079  0.000000 -0.000077 -0.000000  0.000021  0.000000 -0.000019 -0.000000  0.000487
                                 0.000000 -0.000279 -0.000000 -0.000007 -0.000000 -0.000000  0.000004 -0.000000  0.000000 -0.000050
                                 0.000000 -0.000000  0.000152 -0.000000  0.000000 -0.000050 -0.000000 -0.000000  0.000000 -0.000000
                                -0.000001 -0.000000  0.000000  0.000002 -0.000000 -0.000000 -0.000001  0.000000  0.000000  0.000000
                                 0.000000  0.000000 -0.000000 -0.000000 -0.000001  0.000000 -0.000000 -0.000011  0.000154 -0.001794
                                 0.001941 -0.000014 -0.000048  0.000772 -0.000013  0.000000 -0.000016 -0.000000

   5.1   2   -14.2984  -98.9456  0.000000  0.000000  0.000000  0.000000  0.000000  0.000000  0.000001  0.000002  0.000004  0.000010
                                -0.000001  0.000025  0.000057  0.000132  0.000117  0.000069 -0.000227 -0.000942 -0.000559  0.000743
                                 0.001187  0.000524 -0.000429  0.000315 -0.000865  0.000976 -0.000394  0.000254 -0.000169 -0.000104
                                 0.000024 -0.000006 -0.000006 -0.000024 -0.000086 -0.000024 -0.000288 -0.000256 -0.000417 -0.000887
                                -0.003325 -0.008286 -0.000219 -0.022619 -0.055097 -0.115829  0.002898 -0.180370 -0.122294  0.158145
                                 0.460628 -0.006415  0.442596 -0.043447  0.137506 -0.014762  0.023731 -0.009821  0.002425 -0.001041
                                 0.000497 -0.000190 -0.000023  0.000000  0.000001 -0.000000 -0.000000  0.000000 -0.000000 -0.000001
                                -0.000000  0.000001 -0.000000 -0.000002 -0.000000 -0.000004 -0.000000 -0.000015 -0.000000 -0.000040
                                -0.000000 -0.000097 -0.000000 -0.000189 -0.000000 -0.000273 -0.000000 -0.000267 -0.000000 -0.000111
                                -0.000000 -0.000016 -0.000000 -0.000038 -0.000000  0.000023  0.000000 -0.000008 -0.000000 -0.000068
                                 0.000000  0.000148 -0.000000 -0.000068  0.000000 -0.000037 -0.000000 -0.000000  0.000000  0.000000
                                -0.000000  0.000701  0.000000 -0.000437  0.000000  0.000047  0.000000 -0.000089  0.000000  0.000068
                                 0.000000 -0.000035 -0.000000 -0.000002  0.000000 -0.000000  0.000007 -0.000000 -0.000000 -0.000017
                                 0.000000  0.000000  0.000014 -0.000000 -0.000000  0.000000  0.000000  0.000000 -0.000000  0.000000
                                 0.000054  0.000000 -0.000000 -0.000042 -0.000000  0.000000  0.000002 -0.000000  0.000000  0.000000
                                -0.000000 -0.000000 -0.000000 -0.000000 -0.000000 -0.000000  0.000002 -0.000011  0.000023 -0.000135
                                 0.000256  0.000006 -0.000031  0.000028 -0.000001 -0.000000  0.000022  0.000000

   6.1   2    -8.2232  -88.3351  0.000000 -0.000000 -0.000000  0.000000 -0.000000  0.000000 -0.000000  0.000000 -0.000000  0.000000
                                -0.000000  0.000000 -0.000000  0.000000 -0.000000  0.000000 -0.000000  0.000000 -0.000000  0.000000
                                -0.000000  0.000000 -0.000000  0.000000 -0.000000  0.000000 -0.000000  0.000000 -0.000000  0.000000
                                -0.000000  0.000000 -0.000000  0.000000  0.000000 -0.000000  0.000000 -0.000000  0.000000 -0.000000
                                 0.000000 -0.000000  0.000000 -0.000000  0.000000 -0.000000  0.000000 -0.000000  0.000000 -0.000000
                                 0.000000 -0.000000  0.000000  0.000000 -0.000000  0.000000 -0.000000  0.000000  0.000000 -0.000000
                                 0.000000  0.000000 -0.000000  0.000000 -0.000000 -0.000000  0.000101  0.000000  0.000017 -0.000000
                                 0.001145  0.000000 -0.000757 -0.000000  0.002172 -0.000000  0.006193 -0.000000  0.020224 -0.000000
                                 0.055410 -0.000000  0.131532 -0.000000  0.238029 -0.000000  0.316794 -0.000000  0.293027 -0.000000
                                 0.154264 -0.000000  0.038911 -0.000000  0.004251 -0.000000  0.000322 -0.000000  0.000065 -0.000000
                                -0.000003  0.000000  0.000014 -0.000000 -0.000005  0.000000  0.000002  0.000000 -0.000001 -0.000000
                                 0.000000  0.000000 -0.000401 -0.000000  0.000253  0.000000 -0.000107 -0.000000  0.000021  0.000000
                                -0.000013 -0.000000  0.000005 -0.000000  0.000000  0.000151  0.000000  0.000000 -0.000091 -0.000000
                                -0.000000  0.000065  0.000000  0.000000 -0.000014 -0.000000 -0.000000  0.000004  0.000014  0.000000
                                -0.000000 -0.000014 -0.000000  0.000000  0.000001  0.000000 -0.000000  0.000000 -0.000000  0.000031
                                -0.000000 -0.000000 -0.000000 -0.000013  0.000000 -0.000000  0.000000 -0.000000  0.000000 -0.000000
                                -0.000000  0.000000 -0.000000 -0.000000  0.000000 -0.000000  0.000000  0.000001

   7.1   2    -8.2229  -88.2822 -0.000000 -0.000000 -0.000000 -0.000000 -0.000000 -0.000000 -0.000001 -0.000001 -0.000002 -0.000006
                                 0.000001 -0.000016 -0.000038 -0.000086 -0.000082 -0.000038  0.000145  0.000656  0.000357 -0.000352
                                -0.001381 -0.000573  0.001548 -0.000483  0.001452 -0.001794  0.000660 -0.000331  0.000152  0.000052
                                -0.000009  0.000002 -0.000000 -0.000000 -0.000000 -0.000000 -0.000000 -0.000000 -0.000000 -0.000001
                                -0.000003 -0.000005 -0.000001 -0.000017 -0.000042 -0.000085 -0.000005 -0.000130 -0.000101  0.000125
                                 0.000258  0.000279 -0.000189  0.000619 -0.000232  0.000700 -0.001187  0.000790 -0.000579  0.000530
                                -0.000323  0.000085  0.000039 -0.000012  0.000003  0.000101  0.000000  0.000016  0.000000  0.001143
                                 0.000000 -0.000755 -0.000000  0.002168  0.000000  0.006181  0.000000  0.020186  0.000000  0.055305
                                 0.000000  0.131279  0.000000  0.237615  0.000000  0.316356  0.000000  0.293086  0.000000  0.155260
                                 0.000000  0.039462  0.000000  0.004343  0.000000  0.000198 -0.000000  0.000111  0.000000  0.000103
                                -0.000000 -0.000211  0.000000  0.000090 -0.000000  0.000006  0.000000  0.000005 -0.000000 -0.000002
                                -0.000000 -0.000390 -0.000000  0.000228  0.000000 -0.000172 -0.000000  0.000081  0.000000 -0.000077
                                -0.000000  0.000023  0.000000  0.000324 -0.000000  0.000000 -0.000414  0.000000 -0.000000  0.000254
                                -0.000000  0.000000 -0.000070  0.000000 -0.000000  0.000009  0.000000  0.000000  0.000000  0.000000
                                 0.000023 -0.000000 -0.000000 -0.000027  0.000000  0.000000  0.000020 -0.000000  0.000000 -0.000000
                                 0.000056  0.000000 -0.000000  0.000000 -0.000020  0.000000 -0.000006  0.000029 -0.000046  0.000126
                                -0.000173 -0.000018  0.000082 -0.000003 -0.000011 -0.000000 -0.000058  0.000000

   8.1   2    -2.6715  -40.5753 -0.000002 -0.000006 -0.000016 -0.000025 -0.000047 -0.000096 -0.000198 -0.000433 -0.000964 -0.002437
                                 0.000232 -0.006204 -0.014569 -0.033222 -0.033983 -0.011937  0.054595  0.269331  0.112656 -0.098562
                                -0.654905 -0.562008  0.542309  0.550662  1.034544 -0.615780  0.123202 -0.046403  0.025750 -0.005955
                                 0.003075 -0.000909 -0.000000 -0.000000 -0.000000 -0.000000 -0.000001 -0.000000 -0.000003 -0.000001
                                -0.000011 -0.000007 -0.000021 -0.000053 -0.000168 -0.000268 -0.000120 -0.000391 -0.000447  0.000854
                                -0.000554  0.005593 -0.009380  0.012805 -0.008741  0.009507 -0.017293  0.008081 -0.011076  0.007783
                                -0.011180  0.004228  0.002262 -0.000768  0.000221 -0.000000 -0.000000 -0.000000 -0.000000 -0.000002
                                -0.000000  0.000001 -0.000000 -0.000004 -0.000000 -0.000010 -0.000000 -0.000033 -0.000000 -0.000090
                                -0.000000 -0.000215 -0.000000 -0.000413 -0.000000 -0.000525 -0.000000 -0.000513 -0.000000 -0.000172
                                 0.000000  0.001936  0.000000  0.001739  0.000000 -0.001107  0.000000 -0.000473  0.000000  0.000371
                                 0.000000 -0.005891  0.000000  0.002905  0.000000  0.001192  0.000000  0.000013 -0.000000 -0.000009
                                 0.000000 -0.000115 -0.000000  0.000058 -0.000000 -0.000870 -0.000000  0.000038 -0.000000 -0.002227
                                -0.000000  0.001266  0.000000 -0.000199 -0.000000  0.000000 -0.000911 -0.000000  0.000000 -0.000182
                                 0.000000  0.000000 -0.000856  0.000000  0.000000  0.000259 -0.000000 -0.000000  0.000000 -0.000000
                                 0.000001 -0.000000  0.000000 -0.000003 -0.000000 -0.000000  0.000066 -0.000000 -0.000000  0.000000
                                -0.000001  0.000000 -0.000000 -0.000000  0.000012  0.000005  0.000032  0.000153 -0.000260  0.008636
                                -0.008638  0.000025  0.000016 -0.003764  0.000045  0.000000  0.000122 -0.000000

   9.1   2    -1.6014  -35.8130 -0.000000 -0.000000 -0.000000 -0.000000 -0.000001 -0.000001 -0.000003 -0.000006 -0.000014 -0.000035
                                 0.000003 -0.000088 -0.000208 -0.000474 -0.000496 -0.000157  0.000775  0.003914  0.001451 -0.001089
                                -0.010437 -0.006901  0.005253  0.015877  0.017876 -0.017072 -0.004993 -0.005756  0.000078 -0.001369
                                 0.000338 -0.000084  0.000002  0.000009  0.000031  0.000008  0.000103  0.000090  0.000150  0.000313
                                 0.001186  0.002936  0.000102  0.008077  0.019819  0.041900 -0.000981  0.066000  0.042398 -0.078851
                                -0.213167 -0.029466 -0.191366 -0.039109  0.119560  0.441240  0.012263  0.426927  0.175364  0.021747
                                -0.001880 -0.000873 -0.000469  0.000102 -0.000023  0.000000 -0.000000  0.000000 -0.000000  0.000003
                                 0.000000 -0.000000 -0.000000  0.000006  0.000000  0.000024 -0.000000  0.000071 -0.000000  0.000208
                                -0.000000  0.000480 -0.000000  0.000906 -0.000000  0.001109 -0.000000  0.001046 -0.000000 -0.000581
                                -0.000000 -0.002145 -0.000000 -0.003955 -0.000000 -0.005778 -0.000000 -0.001820 -0.000000 -0.001865
                                -0.000000 -0.001040  0.000000  0.000281 -0.000000 -0.000460  0.000000 -0.000003 -0.000000  0.000005
                                 0.000000 -0.000938  0.000000  0.001110  0.000000 -0.004146  0.000000 -0.005886  0.000000 -0.000459
                                -0.000000 -0.000096  0.000000 -0.000004 -0.000000 -0.000000 -0.000352  0.000000 -0.000000  0.000009
                                -0.000000 -0.000000 -0.000216 -0.000000  0.000000  0.000175 -0.000000 -0.000000 -0.000000  0.000000
                                 0.000152 -0.000000 -0.000000  0.000306  0.000000  0.000000 -0.000260  0.000000  0.000000  0.000000
                                -0.000011  0.000000  0.000000 -0.000000 -0.000010  0.000047  0.000384  0.001170  0.003475  0.007507
                                 0.002473  0.000017 -0.001830 -0.003656  0.000146  0.000000  0.001014  0.000000

  10.1   2    -0.2768  -10.3295  0.000000  0.000001  0.000002  0.000003  0.000005  0.000010  0.000021  0.000046  0.000102  0.000256
                                -0.000022  0.000650  0.001536  0.003491  0.003666  0.001142 -0.005702 -0.029005 -0.010750  0.007891
                                 0.079165  0.062131 -0.059108 -0.108306 -0.147691  0.007702  0.092567  0.182460  0.118986  0.002294
                                -0.002287  0.000786 -0.000000 -0.000001 -0.000002 -0.000001 -0.000008 -0.000008 -0.000008 -0.000029
                                -0.000090 -0.000271  0.000037 -0.000670 -0.001556 -0.003490  0.000371 -0.005573 -0.003135  0.005878
                                 0.022548 -0.010125  0.041756 -0.026418  0.007183 -0.072671  0.044157 -0.076428 -0.008817  0.024630
                                 0.081526  0.091747 -0.014135  0.005781 -0.001734 -0.000003 -0.000000 -0.000001  0.000000 -0.000032
                                -0.000000  0.000020  0.000000 -0.000062 -0.000000 -0.000184  0.000000 -0.000597 -0.000000 -0.001655
                                -0.000000 -0.003950 -0.000000 -0.007135 -0.000000 -0.009102 -0.000000 -0.007473 -0.000000  0.002826
                                 0.000000  0.017957  0.000000  0.029845  0.000000  0.032720  0.000000  0.041484  0.000000  0.042466
                                 0.000000  0.011274  0.000000  0.039551  0.000000  0.002566  0.000000 -0.000917 -0.000000  0.000326
                                 0.000000  0.000620 -0.000000 -0.000149  0.000000  0.002345 -0.000000  0.012639  0.000000  0.006767
                                 0.000000  0.011464 -0.000000  0.000301 -0.000000  0.000000 -0.000635  0.000000  0.000000  0.003563
                                -0.000000  0.000000  0.001541  0.000000  0.000000  0.003551 -0.000000  0.000000  0.000000 -0.000000
                                 0.000006  0.000000  0.000000 -0.000056  0.000000  0.000000  0.000765  0.000000  0.000000 -0.000000
                                 0.000018 -0.000000  0.000000 -0.000000  0.000175  0.004269  0.031478  0.127416  0.294132  0.350639
                                 0.017657 -0.001293 -0.011679 -0.019204  0.000744 -0.000000  0.001768  0.000000

  11.1   +    -0.3008  -23.6048 -0.000000 -0.000000 -0.000000 -0.000000 -0.000000 -0.000000 -0.000000 -0.000000 -0.000000 -0.000000
                                 0.000000 -0.000000 -0.000000 -0.000000 -0.000000 -0.000000  0.000000  0.000000  0.000000 -0.000000
                                -0.000000 -0.000000  0.000000  0.000000  0.000000 -0.000000 -0.000000 -0.000000  0.000000  0.000000
                                -0.000000 -0.000000  0.000000 -0.000000 -0.000000 -0.000000 -0.000000 -0.000000  0.000000 -0.000000
                                -0.000000 -0.000000  0.000000 -0.000000 -0.000000 -0.000000  0.000000 -0.000000 -0.000000  0.000000
                                 0.000000 -0.000000  0.000000 -0.000000 -0.000000 -0.000000  0.000000 -0.000000 -0.000000  0.000000
                                 0.000000  0.000000  0.000000 -0.000000  0.000000 -0.000000 -0.000025 -0.000000 -0.000004 -0.000000
                                -0.000277  0.000000  0.000182 -0.000000 -0.000527 -0.000000 -0.001515 -0.000000 -0.004956 -0.000000
                                -0.013678 -0.000000 -0.032790 -0.000000 -0.059030 -0.000000 -0.075437 -0.000000 -0.060603  0.000000
                                 0.026188  0.000000  0.162073  0.000000  0.264033  0.000000  0.297648  0.000000  0.259490  0.000000
                                 0.169290  0.000000  0.068442  0.000000  0.011387  0.000000  0.000243 -0.000000  0.000023 -0.000000
                                -0.000007 -0.000000 -0.001111  0.000000  0.000427 -0.000000 -0.004821 -0.000000 -0.019610 -0.000000
                                -0.014514  0.000000  0.000529 -0.000000  0.000000  0.002093 -0.000000  0.000000  0.002010 -0.000000
                                 0.000000  0.001530 -0.000000  0.000000 -0.000100  0.000000 -0.000000 -0.000000 -0.000011  0.000000
                                 0.000000 -0.000037  0.000000 -0.000000 -0.000992 -0.000000 -0.000000 -0.000000 -0.000000  0.000014
                                 0.000000  0.000000 -0.000000 -0.000079 -0.000000  0.000000  0.000000  0.000000  0.000000  0.000000
                                -0.000000 -0.000000 -0.000000 -0.000000  0.000000  0.000108  0.000000 -0.000052

  12.1   0    -0.0323   -9.8314  0.000000  0.000001  0.000003  0.000004  0.000008  0.000016  0.000033  0.000073  0.000163  0.000409
                                -0.000036  0.001042  0.002458  0.005592  0.005842  0.001870 -0.009161 -0.046417 -0.017703  0.013599
                                 0.125984  0.104510 -0.102340 -0.170556 -0.331340  0.135157  0.073994  0.381579  0.268704  0.234886
                                 0.055282 -0.000172  0.000000  0.000001  0.000003  0.000001  0.000010  0.000010  0.000010  0.000035
                                 0.000108  0.000325 -0.000045  0.000804  0.001867  0.004189 -0.000447  0.006689  0.003762 -0.007058
                                -0.027162  0.012445 -0.050936  0.032877 -0.009803  0.091966 -0.062319  0.102201  0.000450 -0.007166
                                -0.154681 -0.280271 -0.110778 -0.021233  0.001778  0.000002 -0.000000  0.000000 -0.000000  0.000019
                                -0.000000 -0.000014 -0.000000  0.000035 -0.000000  0.000094 -0.000000  0.000314 -0.000000  0.000856
                                -0.000000  0.002070 -0.000000  0.003700 -0.000000  0.004796 -0.000000  0.003817 -0.000000 -0.001245
                                 0.000000 -0.010131  0.000000 -0.015431  0.000000 -0.018586  0.000000 -0.017831  0.000000 -0.019348
                                -0.000000  0.003994  0.000000 -0.023174 -0.000000 -0.003922  0.000000  0.004822 -0.000000 -0.000533
                                 0.000000  0.000432  0.000000 -0.000250 -0.000000  0.002279  0.000000  0.005662 -0.000000  0.009604
                                 0.000000 -0.009959 -0.000000 -0.000429  0.000000 -0.000000 -0.000401 -0.000000  0.000000 -0.002990
                                 0.000000 -0.000000 -0.000468 -0.000000  0.000000 -0.002764  0.000000 -0.000000 -0.000000 -0.000000
                                 0.000009  0.000000  0.000000  0.000015 -0.000000 -0.000000  0.000378 -0.000000 -0.000000  0.000000
                                -0.000002  0.000000  0.000000 -0.000000  0.000006 -0.001099 -0.008091 -0.033318 -0.074605 -0.122119
                                 0.010150 -0.000393 -0.000476  0.005958 -0.000096  0.000000 -0.001341 -0.000000

  13.1   0     0.0005   -2.1259  0.000000  0.000000  0.000001  0.000001  0.000002  0.000003  0.000007  0.000015  0.000033  0.000082
                                -0.000005  0.000209  0.000503  0.001128  0.001280  0.000246 -0.001764 -0.009627 -0.002166  0.000093
                                 0.028530  0.011228  0.001673 -0.061501  0.050435 -0.120601  0.096486 -0.030945  0.262125 -0.351888
                                 0.908480 -1.341293  0.000000  0.000000  0.000000  0.000000  0.000002  0.000001  0.000004  0.000002
                                 0.000019  0.000022  0.000024  0.000099  0.000287  0.000510  0.000129  0.000771  0.000698 -0.001407
                                -0.000541 -0.006671  0.010012 -0.015233  0.011596 -0.007815  0.023191 -0.007852  0.012862 -0.012180
                                -0.020177 -0.128488  0.037935 -0.114621  0.722409  0.000000 -0.000000  0.000000  0.000000  0.000004
                                -0.000000 -0.000001  0.000000  0.000009 -0.000000  0.000032 -0.000000  0.000096 -0.000000  0.000278
                                -0.000000  0.000646 -0.000000  0.001199 -0.000000  0.001476 -0.000000  0.001305 -0.000000 -0.000596
                                -0.000000 -0.002816  0.000000 -0.005726 -0.000000 -0.004381  0.000000 -0.008384 -0.000000 -0.000663
                                 0.000000 -0.022875 -0.000000  0.009302  0.000000 -0.059981 -0.000000  0.011015  0.000000 -0.177094
                                -0.000000  0.000097 -0.000000 -0.000077  0.000000  0.000477 -0.000000  0.000860  0.000000 -0.001990
                                -0.000000 -0.005742  0.000000 -0.000059  0.000000  0.000000 -0.000127 -0.000000  0.000000 -0.000401
                                 0.000000 -0.000000 -0.001046 -0.000000  0.000000 -0.002868  0.000000  0.000000 -0.000000 -0.000000
                                -0.000001  0.000000  0.000000  0.000011 -0.000000 -0.000000  0.000034 -0.000000  0.000000  0.000000
                                -0.000000  0.000000 -0.000000 -0.000000  0.000002 -0.000181 -0.001372 -0.005355 -0.013799 -0.002830
                                 0.095829 -0.000081 -0.000322 -0.006496 -0.000042  0.000000  0.000083 -0.000000

                                   1 2px     1 2px     1 2px     1 2px     1 2px     1 2px     1 2px     1 2px     1 2px     1 2px  
                                   1 2px     1 2px     1 2px     1 2px     1 2px     1 2px     1 2px     1 2px     1 2px     1 2px  
                                   1 2px     1 2px     1 2px     1 2px     1 2px     1 2px     1 2px     1 2px     1 2px     1 2px  
                                   1 2px     1 2px     1 2px     1 3d1+    1 3d1+    1 3d1+    1 3d1+    1 3d1+    1 3d1+    1 3d1+ 
                                   1 3d1+    1 3d1+    1 3d1+    1 3d1+    1 3d1+    1 3d1+    1 3d1+    1 3d1+    1 3d1+    1 3d1+ 
                                   1 3d1+    1 3d1+    1 3d1+    1 3d1+    1 3d1+    1 3d1+    1 4f1+    1 4f3+    1 4f1+    1 4f3+ 
                                   1 4f1+    1 4f3+    1 4f1+    1 4f3+    1 4f1+    1 4f3+    1 4f1+    1 4f3+    1 5g1+    1 5g3+ 
                                   1 5g1+    1 5g3+    1 5g1+    1 5g3+    1 5g1+    1 5g3+    1 5g1+    1 5g3+    1 6h1+    1 6h3+ 
                                   1 6h5+    1 6h1+    1 6h3+    1 6h5+    1 6h1+    1 6h3+    1 6h5+    1 7i5+    1 7i3+    1 7i1+ 
                                   1 7i5+    1 7i3+    1 7i1+    2 2px     2 2px     2 2px     2 3d1+    2 3d1+ 

   1.2   2   -89.8192 -299.9065  0.000015  0.000056  0.000199  0.000055  0.000667  0.000582  0.000980  0.002015  0.007616  0.018570
                                 0.000712  0.050137  0.118914  0.237823 -0.002921  0.348761  0.291722  0.103414  0.013276 -0.005886
                                 0.011076 -0.009462  0.004031 -0.002675  0.002560 -0.001069  0.000203 -0.000075  0.000025 -0.000007
                                 0.000004 -0.000002  0.000001 -0.000000 -0.000000 -0.000000 -0.000000 -0.000000 -0.000001 -0.000003
                                -0.000008 -0.000014 -0.000006 -0.000001 -0.000001 -0.000001 -0.000000  0.000000  0.000000  0.000001
                                -0.000001  0.000001 -0.000000  0.000000 -0.000000  0.000000  0.000007 -0.000000 -0.000012  0.000000
                                 0.000002  0.000000 -0.000002  0.000000  0.000001 -0.000000 -0.000000  0.000000  0.000000  0.000000
                                -0.000000 -0.000000  0.000000  0.000000 -0.000000  0.000000  0.000000  0.000000  0.000000 -0.000000
                                 0.000000 -0.000000  0.000000 -0.000000 -0.000000 -0.000000  0.000000 -0.000000  0.000000  0.000000
                                 0.000000 -0.000000 -0.000000 -0.000000  0.000000 -0.000000  0.000000 -0.000000

   2.2   2   -14.2883  -98.9416 -0.000006 -0.000024 -0.000086 -0.000024 -0.000288 -0.000256 -0.000417 -0.000888 -0.003326 -0.008287
                                -0.000220 -0.022624 -0.055111 -0.115856  0.002890 -0.180406 -0.122309  0.158215  0.460652 -0.005981
                                 0.441995 -0.042919  0.136805 -0.014083  0.022806 -0.009121  0.002113 -0.000720  0.000258 -0.000073
                                 0.000042 -0.000021  0.000007 -0.000000 -0.000000 -0.000000  0.000000 -0.000001 -0.000003 -0.000009
                                -0.000025 -0.000056 -0.000125 -0.000180 -0.000278 -0.000157  0.000011 -0.000008  0.000001 -0.000004
                                -0.000005  0.000005  0.000001 -0.000000  0.000000 -0.000000  0.000312  0.000000 -0.000170 -0.000000
                                 0.000105  0.000000 -0.000016 -0.000000  0.000010  0.000000 -0.000002 -0.000000  0.000000 -0.000000
                                -0.000010 -0.000000  0.000003  0.000000 -0.000002 -0.000000  0.000003  0.000000  0.000043 -0.000000
                                 0.000000 -0.000035  0.000000 -0.000000  0.000004 -0.000000  0.000000 -0.000000  0.000000 -0.000000
                                -0.000000 -0.000000  0.000000 -0.000001  0.000001 -0.000007  0.000000 -0.000003

   3.2   2    -8.2302  -88.3377 -0.000000 -0.000000 -0.000000 -0.000000 -0.000000 -0.000000 -0.000000 -0.000001 -0.000003 -0.000006
                                -0.000000 -0.000018 -0.000044 -0.000092  0.000002 -0.000145 -0.000094  0.000158  0.000442  0.000031
                                 0.000286 -0.000085 -0.000055  0.000045 -0.000093  0.000042 -0.000050  0.000011 -0.000005 -0.000004
                                 0.000002 -0.000001  0.000000  0.000101  0.000017  0.001145 -0.000756  0.002171  0.006192  0.020220
                                 0.055401  0.131514  0.238008  0.316749  0.292973  0.154354  0.039033  0.004284  0.000333  0.000038
                                 0.000023 -0.000010 -0.000000  0.000001 -0.000000  0.000000 -0.000390  0.000000  0.000225 -0.000000
                                -0.000148 -0.000000  0.000026 -0.000000 -0.000011 -0.000000  0.000001  0.000000  0.000268  0.000000
                                -0.000290 -0.000000  0.000162  0.000000 -0.000034 -0.000000  0.000006 -0.000000  0.000019  0.000000
                                 0.000000 -0.000020 -0.000000 -0.000000  0.000007  0.000000 -0.000000  0.000000 -0.000000  0.000049
                                -0.000000  0.000000 -0.000019  0.000003 -0.000007  0.000003 -0.000000  0.000020

   4.2   2    -1.6022  -35.7396  0.000002  0.000009  0.000030  0.000008  0.000102  0.000090  0.000150  0.000313  0.001182  0.002932
                                 0.000097  0.008057  0.019760  0.041797 -0.001010  0.065842  0.042245 -0.078536 -0.213075 -0.028020
                                -0.193944 -0.035164  0.117095  0.443604  0.002658  0.431323  0.177507  0.025077  0.002091  0.000003
                                 0.000029 -0.000017  0.000006  0.000000  0.000000  0.000001 -0.000000  0.000002  0.000007  0.000020
                                 0.000057  0.000132  0.000255  0.000311  0.000332  0.000001 -0.000470 -0.000492 -0.002669 -0.002596
                                -0.000046 -0.000130  0.000070 -0.000020  0.000006 -0.000002  0.000712 -0.000000  0.001253  0.000000
                                 0.004320  0.000000  0.001861 -0.000000 -0.000018  0.000000  0.000056 -0.000000 -0.000041  0.000000
                                -0.000489 -0.000000 -0.000150  0.000000  0.000048 -0.000000 -0.000015 -0.000000  0.000132 -0.000000
                                 0.000000  0.000203 -0.000000  0.000000 -0.000154  0.000000 -0.000000  0.000000  0.000000 -0.000006
                                 0.000000 -0.000000 -0.000010  0.000033  0.000142  0.000071 -0.000037  0.000052

   5.2   +    -0.3183  -23.7556  0.000000  0.000000  0.000001  0.000000  0.000004  0.000004  0.000005  0.000015  0.000048  0.000137
                                -0.000013  0.000349  0.000822  0.001816 -0.000155  0.002891  0.001679 -0.003202 -0.011241  0.003588
                                -0.018631  0.010123 -0.001162  0.037225 -0.020214  0.042246 -0.005247 -0.033806 -0.062754 -0.014573
                                 0.004106 -0.001896  0.000591 -0.000025 -0.000004 -0.000279  0.000182 -0.000531 -0.001526 -0.004990
                                -0.013777 -0.033023 -0.059464 -0.075967 -0.061088  0.026240  0.163251  0.267703  0.300481  0.254930
                                 0.162244  0.061684  0.009678  0.000243 -0.000011  0.000005 -0.001631  0.000000  0.000739 -0.000000
                                -0.007038  0.000000 -0.024280 -0.000000 -0.014444 -0.000000  0.000527 -0.000000  0.000145  0.000000
                                 0.000136  0.000000 -0.003062  0.000000 -0.002447  0.000000 -0.000193  0.000000  0.000029 -0.000000
                                -0.000000 -0.000072 -0.000000  0.000000 -0.000742 -0.000000 -0.000000 -0.000000 -0.000000  0.000014
                                 0.000000 -0.000000 -0.000072  0.000614  0.002746  0.003791 -0.000388 -0.000275

   6.2   0     0.0028   -1.9846 -0.000000 -0.000000 -0.000000 -0.000000 -0.000001 -0.000004  0.000005 -0.000013 -0.000010 -0.000108
                                 0.000078 -0.000166 -0.000254 -0.000880  0.000518 -0.001506 -0.000234  0.000217  0.012121 -0.021591
                                 0.048336 -0.051587  0.031776 -0.063924  0.085342 -0.069471  0.030489 -0.032562  0.056390 -0.031475
                                 0.229160 -0.387880  1.141008 -0.000001  0.000000 -0.000010  0.000011 -0.000016 -0.000025 -0.000106
                                -0.000258 -0.000679 -0.001119 -0.001607 -0.000982  0.000092  0.004155  0.003531  0.009717 -0.002029
                                 0.016876 -0.028601  0.040536 -0.080848  0.047389 -0.366457 -0.000015 -0.000000 -0.000001  0.000000
                                -0.000030 -0.000000  0.000380 -0.000000 -0.002055 -0.000000  0.004630 -0.000000  0.000014  0.000000
                                -0.000004  0.000000 -0.000006  0.000000 -0.000430  0.000000 -0.000092  0.000000  0.000000  0.000000
                                 0.000000 -0.000005 -0.000000 -0.000000 -0.000050 -0.000000  0.000000  0.000000 -0.000000  0.000000
                                -0.000000  0.000000  0.000001  0.000084  0.000624  0.001692 -0.000009 -0.000206

   7.2   0     0.0095   -1.8688  0.000000  0.000000  0.000001 -0.000000  0.000002 -0.000002  0.000014 -0.000008  0.000034 -0.000058
                                 0.000137  0.000063  0.000418  0.000301  0.000840  0.000274  0.001412 -0.003109  0.011221 -0.038098
                                 0.073671 -0.089440  0.060383 -0.084939  0.144188 -0.091718  0.061331 -0.066649  0.047658 -0.178410
                                 0.341929 -1.198158  1.099847  0.000001 -0.000001  0.000021 -0.000028  0.000028  0.000018  0.000137
                                 0.000265  0.000829  0.001167  0.002052  0.000677  0.000786 -0.006540 -0.000429 -0.018273  0.016499
                                -0.046445  0.081410 -0.133738  0.204113 -0.284906  0.955437  0.000034 -0.000000 -0.000042 -0.000000
                                 0.000097 -0.000000 -0.000635 -0.000000  0.002008 -0.000000 -0.014053 -0.000000  0.000008 -0.000000
                                -0.000096 -0.000000  0.000175 -0.000000 -0.000250 -0.000000 -0.002289  0.000000 -0.000003  0.000000
                                -0.000000  0.000014 -0.000000  0.000000  0.000025  0.000000 -0.000000 -0.000000 -0.000000 -0.000000
                                 0.000000  0.000000 -0.000001  0.000106 -0.001680  0.004639 -0.000024  0.000096

                                   1 2py     1 2py     1 2py     1 2py     1 2py     1 2py     1 2py     1 2py     1 2py     1 2py  
                                   1 2py     1 2py     1 2py     1 2py     1 2py     1 2py     1 2py     1 2py     1 2py     1 2py  
                                   1 2py     1 2py     1 2py     1 2py     1 2py     1 2py     1 2py     1 2py     1 2py     1 2py  
                                   1 2py     1 2py     1 2py     1 3d1-    1 3d1-    1 3d1-    1 3d1-    1 3d1-    1 3d1-    1 3d1- 
                                   1 3d1-    1 3d1-    1 3d1-    1 3d1-    1 3d1-    1 3d1-    1 3d1-    1 3d1-    1 3d1-    1 3d1- 
                                   1 3d1-    1 3d1-    1 3d1-    1 3d1-    1 3d1-    1 3d1-    1 4f1-    1 4f3-    1 4f1-    1 4f3- 
                                   1 4f1-    1 4f3-    1 4f1-    1 4f3-    1 4f1-    1 4f3-    1 4f1-    1 4f3-    1 5g1-    1 5g3- 
                                   1 5g1-    1 5g3-    1 5g1-    1 5g3-    1 5g1-    1 5g3-    1 5g1-    1 5g3-    1 6h1-    1 6h3- 
                                   1 6h5-    1 6h1-    1 6h3-    1 6h5-    1 6h1-    1 6h3-    1 6h5-    1 7i5-    1 7i3-    1 7i1- 
                                   1 7i5-    1 7i3-    1 7i1-    2 2py     2 2py     2 2py     2 3d1-    2 3d1- 

   1.3   2   -89.8192 -299.9065  0.000015  0.000056  0.000199  0.000055  0.000667  0.000582  0.000980  0.002015  0.007616  0.018570
                                 0.000712  0.050137  0.118914  0.237823 -0.002921  0.348761  0.291722  0.103414  0.013276 -0.005886
                                 0.011076 -0.009462  0.004031 -0.002675  0.002560 -0.001069  0.000203 -0.000075  0.000025 -0.000007
                                 0.000004 -0.000002  0.000001 -0.000000 -0.000000 -0.000000 -0.000000 -0.000000 -0.000001 -0.000003
                                -0.000008 -0.000014 -0.000006 -0.000001 -0.000001 -0.000001 -0.000000  0.000000  0.000000  0.000001
                                -0.000001  0.000001 -0.000000  0.000000 -0.000000  0.000000  0.000007  0.000000 -0.000012 -0.000000
                                 0.000002  0.000000 -0.000002 -0.000000  0.000001  0.000000 -0.000000 -0.000000  0.000000  0.000000
                                -0.000000 -0.000000  0.000000  0.000000 -0.000000 -0.000000  0.000000 -0.000000  0.000000 -0.000000
                                 0.000000 -0.000000  0.000000 -0.000000 -0.000000 -0.000000  0.000000  0.000000 -0.000000  0.000000
                                 0.000000  0.000000 -0.000000 -0.000000  0.000000 -0.000000  0.000000 -0.000000

   2.3   2   -14.2883  -98.9416 -0.000006 -0.000024 -0.000086 -0.000024 -0.000288 -0.000256 -0.000417 -0.000888 -0.003326 -0.008287
                                -0.000220 -0.022624 -0.055111 -0.115856  0.002890 -0.180406 -0.122309  0.158215  0.460652 -0.005981
                                 0.441995 -0.042919  0.136805 -0.014083  0.022806 -0.009121  0.002113 -0.000720  0.000258 -0.000073
                                 0.000042 -0.000021  0.000007 -0.000000 -0.000000 -0.000000  0.000000 -0.000001 -0.000003 -0.000009
                                -0.000025 -0.000056 -0.000125 -0.000180 -0.000278 -0.000157  0.000011 -0.000008  0.000001 -0.000004
                                -0.000005  0.000005  0.000001 -0.000000  0.000000 -0.000000  0.000312  0.000000 -0.000170  0.000000
                                 0.000105  0.000000 -0.000016 -0.000000  0.000010 -0.000000 -0.000002  0.000000  0.000000  0.000000
                                -0.000010 -0.000000  0.000003  0.000000 -0.000002  0.000000  0.000003 -0.000000  0.000043 -0.000000
                                 0.000000 -0.000035  0.000000 -0.000000  0.000004 -0.000000  0.000000  0.000000 -0.000000 -0.000000
                                 0.000000  0.000000  0.000000 -0.000001  0.000001 -0.000007  0.000000 -0.000003

   3.3   2    -8.2302  -88.3377 -0.000000 -0.000000 -0.000000 -0.000000 -0.000000 -0.000000 -0.000000 -0.000001 -0.000003 -0.000006
                                -0.000000 -0.000018 -0.000044 -0.000092  0.000002 -0.000145 -0.000094  0.000158  0.000442  0.000031
                                 0.000286 -0.000085 -0.000055  0.000045 -0.000093  0.000042 -0.000050  0.000011 -0.000005 -0.000004
                                 0.000002 -0.000001  0.000000  0.000101  0.000017  0.001145 -0.000756  0.002171  0.006192  0.020220
                                 0.055401  0.131514  0.238008  0.316749  0.292973  0.154354  0.039033  0.004284  0.000333  0.000038
                                 0.000023 -0.000010 -0.000000  0.000001 -0.000000  0.000000 -0.000390  0.000000  0.000225 -0.000000
                                -0.000148 -0.000000  0.000026 -0.000000 -0.000011 -0.000000  0.000001  0.000000  0.000268  0.000000
                                -0.000290 -0.000000  0.000162  0.000000 -0.000034 -0.000000  0.000006  0.000000  0.000019  0.000000
                                 0.000000 -0.000020 -0.000000 -0.000000  0.000007  0.000000 -0.000000  0.000000 -0.000000  0.000049
                                -0.000000  0.000000 -0.000019  0.000003 -0.000007  0.000003 -0.000000  0.000020

   4.3   2    -1.6022  -35.7396  0.000002  0.000009  0.000030  0.000008  0.000102  0.000090  0.000150  0.000313  0.001182  0.002932
                                 0.000097  0.008057  0.019760  0.041797 -0.001010  0.065842  0.042245 -0.078536 -0.213075 -0.028020
                                -0.193944 -0.035164  0.117095  0.443604  0.002658  0.431323  0.177507  0.025077  0.002091  0.000003
                                 0.000029 -0.000017  0.000006  0.000000  0.000000  0.000001 -0.000000  0.000002  0.000007  0.000020
                                 0.000057  0.000132  0.000255  0.000311  0.000332  0.000001 -0.000470 -0.000492 -0.002669 -0.002596
                                -0.000046 -0.000130  0.000070 -0.000020  0.000006 -0.000002  0.000712  0.000000  0.001253  0.000000
                                 0.004320  0.000000  0.001861  0.000000 -0.000018 -0.000000  0.000056  0.000000 -0.000041 -0.000000
                                -0.000489 -0.000000 -0.000150  0.000000  0.000048  0.000000 -0.000015  0.000000  0.000132 -0.000000
                                 0.000000  0.000203 -0.000000  0.000000 -0.000154  0.000000 -0.000000  0.000000  0.000000 -0.000006
                                 0.000000 -0.000000 -0.000010  0.000033  0.000142  0.000071 -0.000037  0.000052

   5.3   +    -0.3183  -23.7556  0.000000  0.000000  0.000001  0.000000  0.000004  0.000004  0.000005  0.000015  0.000048  0.000137
                                -0.000013  0.000349  0.000822  0.001816 -0.000155  0.002891  0.001679 -0.003202 -0.011241  0.003588
                                -0.018631  0.010123 -0.001162  0.037225 -0.020214  0.042246 -0.005247 -0.033806 -0.062754 -0.014573
                                 0.004106 -0.001896  0.000591 -0.000025 -0.000004 -0.000279  0.000182 -0.000531 -0.001526 -0.004990
                                -0.013777 -0.033023 -0.059464 -0.075967 -0.061088  0.026240  0.163251  0.267703  0.300481  0.254930
                                 0.162244  0.061684  0.009678  0.000243 -0.000011  0.000005 -0.001631  0.000000  0.000739 -0.000000
                                -0.007038  0.000000 -0.024280  0.000000 -0.014444  0.000000  0.000527  0.000000  0.000145  0.000000
                                 0.000136  0.000000 -0.003062  0.000000 -0.002447  0.000000 -0.000193 -0.000000  0.000029  0.000000
                                -0.000000 -0.000072 -0.000000  0.000000 -0.000742 -0.000000 -0.000000 -0.000000 -0.000000  0.000014
                                 0.000000 -0.000000 -0.000072  0.000614  0.002746  0.003791 -0.000388 -0.000275

   6.3   0     0.0028   -1.9846 -0.000000 -0.000000 -0.000000 -0.000000 -0.000001 -0.000004  0.000005 -0.000013 -0.000010 -0.000108
                                 0.000078 -0.000166 -0.000254 -0.000880  0.000518 -0.001506 -0.000234  0.000217  0.012121 -0.021591
                                 0.048336 -0.051587  0.031776 -0.063924  0.085342 -0.069471  0.030489 -0.032562  0.056390 -0.031475
                                 0.229160 -0.387880  1.141008 -0.000001  0.000000 -0.000010  0.000011 -0.000016 -0.000025 -0.000106
                                -0.000258 -0.000679 -0.001119 -0.001607 -0.000982  0.000092  0.004155  0.003531  0.009717 -0.002029
                                 0.016876 -0.028601  0.040536 -0.080848  0.047389 -0.366457 -0.000015  0.000000 -0.000001 -0.000000
                                -0.000030  0.000000  0.000380  0.000000 -0.002055  0.000000  0.004630  0.000000  0.000014  0.000000
                                -0.000004  0.000000 -0.000006 -0.000000 -0.000430 -0.000000 -0.000092 -0.000000  0.000000 -0.000000
                                 0.000000 -0.000005  0.000000 -0.000000 -0.000050  0.000000  0.000000  0.000000  0.000000  0.000000
                                -0.000000 -0.000000  0.000001  0.000084  0.000624  0.001692 -0.000009 -0.000206

   7.3   0     0.0095   -1.8688  0.000000  0.000000  0.000001 -0.000000  0.000002 -0.000002  0.000014 -0.000008  0.000034 -0.000058
                                 0.000137  0.000063  0.000418  0.000301  0.000840  0.000274  0.001412 -0.003109  0.011221 -0.038098
                                 0.073671 -0.089440  0.060383 -0.084939  0.144188 -0.091718  0.061331 -0.066649  0.047658 -0.178410
                                 0.341929 -1.198158  1.099847  0.000001 -0.000001  0.000021 -0.000028  0.000028  0.000018  0.000137
                                 0.000265  0.000829  0.001167  0.002052  0.000677  0.000786 -0.006540 -0.000429 -0.018273  0.016499
                                -0.046445  0.081410 -0.133738  0.204113 -0.284906  0.955437  0.000034  0.000000 -0.000042 -0.000000
                                 0.000097  0.000000 -0.000635  0.000000  0.002008  0.000000 -0.014053 -0.000000  0.000008 -0.000000
                                -0.000096 -0.000000  0.000175 -0.000000 -0.000250 -0.000000 -0.002289  0.000000 -0.000003 -0.000000
                                -0.000000  0.000014  0.000000  0.000000  0.000025 -0.000000 -0.000000 -0.000000  0.000000 -0.000000
                                 0.000000  0.000000 -0.000001  0.000106 -0.001680  0.004639 -0.000024  0.000096

                                   1 3d2-    1 3d2-    1 3d2-    1 3d2-    1 3d2-    1 3d2-    1 3d2-    1 3d2-    1 3d2-    1 3d2- 
                                   1 3d2-    1 3d2-    1 3d2-    1 3d2-    1 3d2-    1 3d2-    1 3d2-    1 3d2-    1 3d2-    1 3d2- 
                                   1 3d2-    1 3d2-    1 3d2-    1 4f2-    1 4f2-    1 4f2-    1 4f2-    1 4f2-    1 4f2-    1 5g2- 
                                   1 5g4-    1 5g2-    1 5g4-    1 5g2-    1 5g4-    1 5g2-    1 5g4-    1 5g2-    1 5g4-    1 6h4- 
                                   1 6h2-    1 6h4-    1 6h2-    1 6h4-    1 6h2-    1 7i2-    1 7i6-    1 7i4-    1 7i2-    1 7i6- 
                                   1 7i4-    2 3d2-    2 3d2- 

   1.4   2    -8.2232  -88.3351  0.000101  0.000017  0.001145 -0.000757  0.002172  0.006193  0.020224  0.055410  0.131532  0.238029
                                 0.316794  0.293027  0.154264  0.038911  0.004251  0.000322  0.000065 -0.000003  0.000014 -0.000005
                                 0.000002 -0.000001  0.000000 -0.000401  0.000253 -0.000107  0.000021 -0.000013  0.000005  0.000151
                                 0.000000 -0.000091 -0.000000  0.000065  0.000000 -0.000014 -0.000000  0.000004  0.000000  0.000000
                                 0.000014 -0.000000 -0.000014  0.000000  0.000001  0.000031  0.000000 -0.000000 -0.000013 -0.000000
                                 0.000000 -0.000000  0.000001

   2.4   +    -0.3008  -23.6048 -0.000025 -0.000004 -0.000277  0.000182 -0.000527 -0.001515 -0.004956 -0.013678 -0.032790 -0.059030
                                -0.075437 -0.060603  0.026188  0.162073  0.264033  0.297648  0.259490  0.169290  0.068442  0.011387
                                 0.000243  0.000023 -0.000007 -0.001111  0.000427 -0.004821 -0.019610 -0.014514  0.000529  0.002093
                                 0.000000  0.002010  0.000000  0.001530  0.000000 -0.000100  0.000000 -0.000000 -0.000000  0.000000
                                -0.000011  0.000000 -0.000037 -0.000000 -0.000992  0.000014 -0.000000 -0.000000 -0.000079  0.000000
                                -0.000000  0.000108 -0.000052

   3.4   0     0.0087   -1.6767  0.000000 -0.000002  0.000023 -0.000034  0.000026 -0.000015  0.000061  0.000007  0.000291  0.000062
                                 0.000876 -0.000672  0.001843 -0.004849  0.006667 -0.017711  0.030778 -0.063677  0.117605 -0.199866
                                 0.263831 -0.506765  1.289160  0.000040 -0.000095  0.000135 -0.000530  0.002674 -0.010148 -0.000017
                                -0.000000  0.000023 -0.000000 -0.000053  0.000000  0.000158 -0.000000 -0.000615  0.000000 -0.000000
                                 0.000000  0.000000 -0.000001 -0.000000  0.000008 -0.000000  0.000000  0.000000  0.000001 -0.000000
                                 0.000000  0.000012 -0.000101

   4.4   0     0.0273   -2.6205 -0.000000  0.000006 -0.000050  0.000084 -0.000047  0.000104  0.000048  0.000561  0.000613  0.002339
                                 0.000855  0.004361 -0.006105  0.005997 -0.029293  0.034732 -0.094567  0.167103 -0.329111  0.576689
                                -0.760758  1.888339 -0.993455  0.000174 -0.000428  0.000588 -0.002451  0.012085 -0.054186 -0.000080
                                -0.000000  0.000057 -0.000000 -0.000164  0.000000  0.000484 -0.000000 -0.002750  0.000000 -0.000000
                                -0.000000  0.000000  0.000003 -0.000000  0.000023 -0.000001 -0.000000  0.000000  0.000002  0.000000
                                 0.000000  0.000002 -0.000013

 HOMO     11.1    -0.300784 =      -8.1848eV
 LUMO     12.1    -0.032269 =      -0.8781eV
 LUMO-HOMO         0.268516 =       7.3067eV


 **********************************************************************************************************************************
 DATASETS  * FILE   NREC   LENGTH (MB)   RECORD NAMES
              1      22       23.36       500      610      700      900      950      970     1000      129      960     1700   
                                          VAR    BASINP    GEOM    SYMINP    ZMAT    AOBASIS   BASIS     P2S    ABASIS    OPER   
                                         1101     1401     1411     1412     1650     1100     1400     1410     1200     1210   
                                          SR      EKINR    POTR     PVPR    MOLCAS      S      EKIN      POT      H0       H01  
                                         1080     1600   
                                         AOSYM     SMH  

              2       4        4.25       700     1000      520     2100   
                                         GEOM     BASIS   MCVARS     RHF  

 PROGRAMS   *        TOTAL       RHF       INT
 CPU TIMES  *       175.38      7.83    167.33
 REAL TIME  *       185.65 SEC
 DISK USED  *         6.98 GB      
 SF USED    *         0.20 MB      
 GA USED    *         0.00 MB       (max)       0.00 MB       (current)
 **********************************************************************************************************************************
 SETTING SCF            =     -3817.78894173  AU                              
 SETTING _CC_NORM_MAX   =         2.00000000                                  


 PROGRAM * CCSD (Restricted open-shell coupled cluster)     Authors: C. Hampel, H.-J. Werner, 1991, M. Deegan, P.J. Knowles, 1992


 Convergence thresholds:  THRVAR = 1.00D-08  THRDEN = 1.00D-06

 CCSD(T)     terms to be evaluated (factor= 1.000)


 Number of core orbitals:          14 (   7   3   3   1 )
 Number of closed-shell orbitals:   5 (   3   1   1   0 )
 Number of active  orbitals:        4 (   1   1   1   1 )
 Number of external orbitals:     394 ( 157  93  93  51 )

 Memory could be reduced to 253.02 Mwords without degradation in triples

 Number of N-1 electron functions:              14
 Number of N-2 electron functions:              91
 Number of singly external CSFs:              1722
 Number of doubly external CSFs:           2746617
 Total number of CSFs:                     2748339

 Molecular orbitals read from record     2100.2  Type=RHF/CANONICAL (state 1.1)

 Integral transformation finished. Total CPU:   7.89 sec, npass=  1  Memory used:  24.60 MW

 Starting RMP2 calculation

 Wavefunction is spin-projected

 ITER.      SQ.NORM     CORR.ENERGY   TOTAL ENERGY   ENERGY CHANGE        DEN1      VAR(S)    VAR(P)  DIIS     TIME
   1      1.09864381    -0.41567953 -3818.20462126    -0.41567953    -0.00468727  0.69D-04  0.19D-02  1  1     8.59
   2      1.10465868    -0.42110879 -3818.21005052    -0.00542926    -0.00010858  0.76D-05  0.69D-04  2  2     8.88
   3      1.10592126    -0.42166669 -3818.21060842    -0.00055790    -0.00000325  0.75D-06  0.20D-05  3  3     9.19
   4      1.10608332    -0.42170552 -3818.21064725    -0.00003883    -0.00000014  0.66D-07  0.73D-07  4  4     9.57
   5      1.10610131    -0.42170859 -3818.21065033    -0.00000308    -0.00000001  0.54D-08  0.22D-08  5  5     9.99
   6      1.10610284    -0.42170861 -3818.21065035    -0.00000002    -0.00000000  0.56D-09  0.81D-10  6  6    10.93

 Norm of t1 vector:      0.04255651      S-energy:    -0.00397783      T1 diagnostic:  0.00037589
 Norm of t2 vector:      0.32294239      P-energy:    -0.41773079
                                         Alpha-Beta:  -0.29306491
                                         Alpha-Alpha: -0.09691561
                                         Beta-Beta:   -0.02775026

 Spin contamination <S**2-Sz**2-Sz>     0.00000000
  Reference energy                  -3817.788941731925
  RHF-RMP2 correlation energy          -0.421708614221
 !RHF-RMP2 energy                   -3818.210650346146
 (NB above energy spin projected)

 Starting RCCSD calculation

 ITER.      SQ.NORM     CORR.ENERGY   TOTAL ENERGY   ENERGY CHANGE        DEN1      VAR(S)    VAR(P)  DIIS     TIME
   1      1.10283357    -0.41981710 -3818.20875883    -0.41981710    -0.01003620  0.73D-03  0.34D-02  1  1    15.64
   2      1.11977422    -0.43123202 -3818.22017375    -0.01141492    -0.00138405  0.40D-03  0.60D-03  2  2    19.27
   3      1.13366710    -0.43504656 -3818.22398829    -0.00381454    -0.00044898  0.29D-03  0.13D-03  3  3    22.89
   4      1.14746782    -0.43713308 -3818.22607481    -0.00208652    -0.00019390  0.16D-03  0.39D-04  4  4    26.76
   5      1.16204263    -0.43826122 -3818.22720296    -0.00112815    -0.00007221  0.64D-04  0.14D-04  5  5    30.04
   6      1.17493290    -0.43889522 -3818.22783695    -0.00063399    -0.00002206  0.18D-04  0.50D-05  6  6    34.21
   7      1.18080128    -0.43911373 -3818.22805546    -0.00021851    -0.00000797  0.65D-05  0.17D-05  7  7    37.63
   8      1.18457111    -0.43924672 -3818.22818845    -0.00013299    -0.00000277  0.21D-05  0.57D-06  8  8    40.92
   9      1.18687695    -0.43932224 -3818.22826397    -0.00007553    -0.00000094  0.66D-06  0.23D-06  9  9    44.33
  10      1.18754065    -0.43934087 -3818.22828260    -0.00001863    -0.00000039  0.30D-06  0.87D-07 10 10    47.99
  11      1.18808498    -0.43935659 -3818.22829832    -0.00001572    -0.00000013  0.10D-06  0.27D-07 11 11    51.22
  12      1.18821408    -0.43935454 -3818.22829627     0.00000204    -0.00000003  0.21D-07  0.85D-08 12 12    54.62
  13      1.18826483    -0.43935582 -3818.22829755    -0.00000128    -0.00000001  0.42D-08  0.20D-08 13 13    58.21
  14      1.18829398    -0.43935638 -3818.22829811    -0.00000056    -0.00000000  0.10D-08  0.41D-09 14 14    61.64

 Norm of t1 vector:      0.20943391      S-energy:    -0.00471635      T1 diagnostic:  0.03549381
                                                                       D1 diagnostic:  0.13092727
 Norm of t2 vector:      0.38004134      P-energy:    -0.43464003
                                         Alpha-Beta:  -0.31389210
                                         Alpha-Alpha: -0.09432507
                                         Beta-Beta:   -0.02642286

 Singles amplitudes (print threshold =  0.500E-01):

         I         SYM. A    A   T(IA) [Alpha-Alpha]

         3         1         2      0.14745396
         3         1        19      0.06413196
 
         I         SYM. A    A   T(IA) [Beta-Beta]

         3         1         2      0.06144086

 Doubles amplitudes (print threshold =  0.500E-01):

         I         J         SYM. A    SYM. B    A         B      T(IJ, AB) [Alpha-Beta]

         3         3         1         1         2         2     -0.06455516

 Spin contamination <S**2-Sz**2-Sz>     0.00000000

 Memory could be reduced to 263.46 Mwords without degradation in triples
 

  Correlated core orbitals:             8.1       9.1       4.2       4.3
  Orbital energies:                    -2.7520   -1.6890   -1.7216   -1.7216
 
  RCCSD core-core energy               -0.178605778993
  RCCSD core-valence energy            -0.168796741208
  RCCSD valence correlation energy     -0.091953856644
 

 RESULTS
 =======

  Reference energy                  -3817.788941731925
  RCCSD singles energy                 -0.004716351434
  RCCSD pair energy                    -0.434640025410
  RCCSD correlation energy             -0.439356376844
  Triples (T) contribution             -0.016723217190
  Total correlation energy             -0.456079594035
 
  RHF-RCCSD energy                  -3818.228298108770
  RHF-RCCSD[T] energy               -3818.245993480357
  RHF-RCCSD-T energy                -3818.244822363468
 !RHF-RCCSD(T) energy               -3818.245021325960

 Program statistics:

 Available memory in ccsd:               999999162
 Min. memory needed in ccsd:               8992457
 Max. memory used in ccsd:                12245236
 Max. memory used in cckext:              12178740 (14 integral passes)
 Max. memory used in cckint:              24599096 ( 1 integral passes)



 **********************************************************************************************************************************
 DATASETS  * FILE   NREC   LENGTH (MB)   RECORD NAMES
              1      22       23.36       500      610      700      900      950      970     1000      129      960     1700   
                                          VAR    BASINP    GEOM    SYMINP    ZMAT    AOBASIS   BASIS     P2S    ABASIS    OPER   
                                         1101     1401     1411     1412     1650     1100     1400     1410     1200     1210   
                                          SR      EKINR    POTR     PVPR    MOLCAS      S      EKIN      POT      H0       H01  
                                         1080     1600   
                                         AOSYM     SMH  

              2       4        4.25       700     1000      520     2100   
                                         GEOM     BASIS   MCVARS     RHF  

 PROGRAMS   *        TOTAL  RCCSD(T)       RHF       INT
 CPU TIMES  *       283.09    107.47      7.83    167.33
 REAL TIME  *       328.77 SEC
 DISK USED  *        15.94 GB      
 SF USED    *         3.85 GB      
 GA USED    *         0.00 MB       (max)       0.00 MB       (current)
 **********************************************************************************************************************************
 SETTING CCSD           =     -3818.24502133  AU                              
 SETTING BIND           =        -0.03862948  AU                              
 Output type csv         
                                                                                                                                                                                                                                                                

  2.60,SCF,CCSD,BIND
   2.6,   -3817.788942,   -3818.245021,   -0.03862948
                                                  

 RCCSD(T)/USERDEF energy=  -3818.245021325960

        RCCSD(T)        RHF-SCF 
  -3818.24502133  -3817.78894173
 **********************************************************************************************************************************
 Molpro calculation terminated
 Variable memory released
