<?xml version="1.0"?>
<molpro xmlns="http://www.molpro.net/schema/molpro-output"
  xmlns:xsd="http://www.w3.org/1999/XMLSchema"
  xmlns:cml="http://www.xml-cml.org/schema"
  xmlns:stm="http://www.xml-cml.org/schema"
  xmlns:xhtml="http://www.w3.org/1999/xhtml">
 <!--

 Nodes     nprocs
 nid02157    11
 Number of processes for MPI-2 version of Molpro:   nprocs(total)=   12   nprocs(compute)=   11   nprocs(helper)=    1

 Using customized tuning parameters: mindgm=7; mindgv=16; mindgc=1; mindgr=1; noblas=0; minvec=7
 default implementation of scratch files=sf

 --><job>
  <!--

 Variables initialized (889), CPU time= 0.02 sec
 Commands  initialized (702), CPU time= 0.01 sec, 572 directives.
 Default parameters read. Elapsed time= 0.13 sec

 Checking input...
 Passed
1


                                         ***  PROGRAM SYSTEM MOLPRO  ***
                                       Copyright, TTI GmbH Stuttgart, 2015
                                    Version 2015.1 linked Dec 29 2018 15:55:43


 **********************************************************************************************************************************
 LABEL *   Calculation for Y atom, singlet and triplet
  64 bit mpp version                                                                     DATE: 11-Apr-23          TIME: 16:48:44
 **********************************************************************************************************************************

 SHA1:             19cd028119e0e09f93f0674bd8af7968d9b3eff6
 **********************************************************************************************************************************
  -->
  <!--

 THRESHOLDS:

 ZERO    =  1.00D-12  ONEINT  =  1.00D-12  TWOINT  =  1.00D-15  PREFAC  =  1.00D-14  LOCALI  =  1.00D-09  EORDER  =  1.00D-04
 ENERGY  =  0.00D+00  ETEST   =  0.00D+00  EDENS   =  0.00D+00  THRDEDEF=  1.00D-06  GRADIENT=  1.00D-02  STEP    =  1.00D-03
 ORBITAL =  1.00D-05  CIVEC   =  1.00D-05  COEFF   =  1.00D-04  PRINTCI =  5.00D-02  PUNCHCI =  9.90D+01  OPTGRAD =  3.00D-04
 OPTENERG=  1.00D-06  OPTSTEP =  3.00D-04  THRGRAD =  1.00D-10  COMPRESS=  1.00D-11  VARMIN  =  1.00D-07  VARMAX  =  1.00D-03
 THRDOUB =  0.00D+00  THRDIV  =  1.00D-05  THRRED  =  1.00D-07  THRPSP  =  1.00D+00  THRDC   =  1.00D-10  THRCS   =  1.00D-10
 THRNRM  =  1.00D-08  THREQ   =  0.00D+00  THRDE   =  1.00D+00  THRREF  =  1.00D-05  SPARFAC =  1.00D+00  THRDLP  =  1.00D-07
 THRDIA  =  1.00D-10  THRDLS  =  1.00D-07  THRGPS  =  0.00D+00  THRKEX  =  0.00D+00  THRDIS  =  2.00D-01  THRVAR  =  1.00D-10
 THRLOC  =  1.00D-06  THRGAP  =  1.00D-06  THRLOCT = -1.00D+00  THRGAPT = -1.00D+00  THRORB  =  1.00D-06  THRMLTP =  0.00D+00
 THRCPQCI=  1.00D-10  KEXTA   =  0.00D+00  THRCOARS=  0.00D+00  SYMTOL  =  1.00D-06  GRADTOL =  1.00D-06  THROVL  =  1.00D-08
 THRORTH =  1.00D-08  GRID    =  1.00D-06  GRIDMAX =  1.00D-03  DTMAX   =  0.00D+00  THROCCDE=  1.00D-01  THROCCDE=  1.00D-01



 THRESHOLDS:

 ZERO    =  1.00D-12  ONEINT  =  1.00D-12  TWOINT  =  1.00D-15  PREFAC  =  1.00D-14  LOCALI  =  1.00D-09  EORDER  =  1.00D-04
 ENERGY  =  0.00D+00  ETEST   =  0.00D+00  EDENS   =  0.00D+00  THRDEDEF=  1.00D-06  GRADIENT=  1.00D-02  STEP    =  1.00D-03
 ORBITAL =  1.00D-05  CIVEC   =  1.00D-05  COEFF   =  1.00D-04  PRINTCI =  5.00D-02  PUNCHCI =  9.90D+01  OPTGRAD =  3.00D-04
 OPTENERG=  1.00D-06  OPTSTEP =  3.00D-04  THRGRAD =  1.00D-10  COMPRESS=  1.00D-11  VARMIN  =  1.00D-07  VARMAX  =  1.00D-03
 THRDOUB =  0.00D+00  THRDIV  =  1.00D-05  THRRED  =  1.00D-07  THRPSP  =  1.00D+00  THRDC   =  1.00D-10  THRCS   =  1.00D-10
 THRNRM  =  1.00D-08  THREQ   =  0.00D+00  THRDE   =  1.00D+00  THRREF  =  1.00D-05  SPARFAC =  1.00D+00  THRDLP  =  1.00D-07
 THRDIA  =  1.00D-10  THRDLS  =  1.00D-07  THRGPS  =  0.00D+00  THRKEX  =  0.00D+00  THRDIS  =  2.00D-01  THRVAR  =  1.00D-10
 THRLOC  =  1.00D-06  THRGAP  =  1.00D-06  THRLOCT = -1.00D+00  THRGAPT = -1.00D+00  THRORB  =  1.00D-06  THRMLTP =  0.00D+00
 THRCPQCI=  1.00D-10  KEXTA   =  0.00D+00  THRCOARS=  0.00D+00  SYMTOL  =  1.00D-06  GRADTOL =  1.00D-06  THROVL  =  1.00D-15
 THRORTH =  1.00D-08  GRID    =  1.00D-06  GRIDMAX =  1.00D-03  DTMAX   =  0.00D+00  THROCCDE=  1.00D-01  THROCCDE=  1.00D-01



 Variable memory set to 1000000000 words,  buffer space   230000 words

 SETTING BASIS          =    USERDEF
 SETTING LU_CCSD        =       -40.06565056
 SETTING O_CCSD         =       -15.86622096
 SETTING NE             =        17.00000000
 SETTING SYMM           =         1.00000000
 SETTING SS             =         1.00000000
 SETTING A1             =         5.00000000
 SETTING B1             =         2.00000000
 SETTING B2             =         2.00000000
 SETTING A2             =     0.00000000D+00

Geometry recognized as XYZ

  --><jobstep command="RHF-SCF" commandset="SCFPRO">
   <!--


 Recomputing integrals since basis changed


 Using spherical harmonics



 PROGRAM * SEWARD (Integral evaluation for generally contracted gaussian basis sets)     Author: Roland Lindh, 1990

 Geometry written to block  1 of record 700


 Point group  C2v


   --><cml:molecule>
    <cml:symmetry pointGroup="C2v"/>
    <cml:atomArray>
     <cml:atom id="a1" elementType="Lu" x3="0.0" y3="0.0" z3="0.0"/>
     <cml:atom id="a2" elementType="O" x3="0.0" y3="0.0" z3="2.3"/>
    </cml:atomArray>
    <cml:bondArray>
     <cml:bond atomRefs2="a1 a2"/>
    </cml:bondArray>
   </cml:molecule><!--

 ATOMIC COORDINATES

 NR  ATOM    CHARGE       X              Y              Z

   1  LU     11.00    0.000000000    0.000000000    0.000000000
   2  O       6.00    0.000000000    0.000000000    4.346370086

 Bond lengths in Bohr (Angstrom)

 1-2  4.346370086
     ( 2.300000000)

 NUCLEAR CHARGE:                   17
 NUMBER OF PRIMITIVE AOS:         662
 NUMBER OF SYMMETRY AOS:          513
 NUMBER OF CONTRACTIONS:          513   ( 206A1  + 122B1  + 122B2  +  63A2  )
 NUMBER OF CORE ORBITALS:           0   (   0A1  +   0B1  +   0B2  +   0A2  )
 NUMBER OF VALENCE ORBITALS:       14   (   7A1  +   3B1  +   3B2  +   1A2  )


 NUCLEAR REPULSION ENERGY   15.18508518

 EXTRA SYMMETRY OF AOS IN SYMMETRY 1:   1 1 1 1 1 1 1 1 1 1   1 1 1 1 1 1 1 1 1 1   1 1 1 1 1 1 1 1 1 1   1 1 1 1 1 1 1 1 1 1
                                        1 1 1 1 1 1 1 1 1 1   1 1 1 1 1 1 1 1 1 1   1 1 1 1 1 1 1 1 1 1   2 1 2 1 2 1 2 1 2 1
                                        2 1 2 1 2 1 2 1 2 1   2 1 2 1 2 1 2 1 2 1   2 1 2 1 2 1 2 1 2 1   2 1 2 1 2 1 2 1 2 1
                                        2 1 2 1 2 1 2 1 2 1   2 1 2 1 2 1 2 1 2 1   2 1 2 1 3 2 1 3 2 1   3 2 1 3 2 1 3 2 1 3
                                        2 1 3 2 2 3 1 2 3 1   2 3 1 1 1 1 1 1 1 1   1 1 1 1 1 1 1 1 1 1   1 1 1 1 1 2 1 2 1 2
                                        1 2 1 2 1 2
 EXTRA SYMMETRY OF AOS IN SYMMETRY 2:   1 1 1 1 1 1 1 1 1 1   1 1 1 1 1 1 1 1 1 1   1 1 1 1 1 1 1 1 1 1   1 1 1 1 1 1 1 1 1 1
                                        1 1 1 1 1 1 1 1 1 1   1 1 1 1 2 1 2 1 2 1   2 1 2 1 2 1 2 1 2 1   2 1 2 1 2 1 2 1 2 1
                                        2 1 2 1 2 1 2 1 2 1   2 1 2 1 2 1 2 1 2 3   1 2 3 1 2 3 1 1 1 1   1 1 1 1 1 1 1 1 1 2
                                        1 2
 EXTRA SYMMETRY OF AOS IN SYMMETRY 3:   1 1 1 1 1 1 1 1 1 1   1 1 1 1 1 1 1 1 1 1   1 1 1 1 1 1 1 1 1 1   1 1 1 1 1 1 1 1 1 1
                                        1 1 1 1 1 1 1 1 1 1   1 1 1 1 2 1 2 1 2 1   2 1 2 1 2 1 2 1 2 1   2 1 2 1 2 1 2 1 2 1
                                        2 1 2 1 2 1 2 1 2 1   2 1 2 1 2 1 2 1 2 3   1 2 3 1 2 3 1 1 1 1   1 1 1 1 1 1 1 1 1 2
                                        1 2
 EXTRA SYMMETRY OF AOS IN SYMMETRY 4:   1 1 1 1 1 1 1 1 1 1   1 1 1 1 1 1 1 1 1 1   1 1 1 1 1 1 1 1 1 1   1 1 1 1 1 1 1 1 2 1
                                        2 1 2 1 2 1 2 1 2 1   2 2 1 2 1 2 1 1 1 1   1 1 1

 Eigenvalues of metric

         1 0.332E-06 0.760E-06 0.951E-06 0.964E-06 0.328E-05 0.185E-04 0.220E-04 0.430E-04
         2 0.960E-06 0.170E-05 0.250E-04 0.799E-04 0.108E-03 0.138E-03 0.524E-03 0.525E-03
         3 0.960E-06 0.170E-05 0.250E-04 0.799E-04 0.108E-03 0.138E-03 0.524E-03 0.525E-03
         4 0.799E-04 0.144E-03 0.525E-03 0.223E-02 0.630E-02 0.897E-02 0.142E-01 0.217E-01


 Contracted 2-electron integrals neglected if value below      1.0D-15
 AO integral compression algorithm  1   Integral accuracy      1.0D-15

     6058.148 MB (compressed) written to integral file ( 33.4%)

     Node minimum: 347.079 MB, node maximum: 791.675 MB


 NUMBER OF SORTED TWO-ELECTRON INTEGRALS:  201323298.     BUFFER LENGTH:  32768
 NUMBER OF SEGMENTS:   7  SEGMENT LENGTH:   31995171      RECORD LENGTH: 524288

 Memory used in sort:      32.55 MW

 SORT1 READ  2268250406. AND WROTE    69242808. INTEGRALS IN    202 RECORDS. CPU TIME:    36.68 SEC, REAL TIME:    54.66 SEC
 SORT2 READ   763389105. AND WROTE  2213551986. INTEGRALS IN  20174 RECORDS. CPU TIME:     2.76 SEC, REAL TIME:     4.50 SEC

 Node minimum:   201133009.  Node maximum:   201481765. integrals

 OPERATOR DM      FOR CENTER  0  COORDINATES:    0.000000    0.000000    0.000000


 **********************************************************************************************************************************
 DATASETS  * FILE   NREC   LENGTH (MB)   RECORD NAMES
              1      19       23.13       500      610      700      900      950      970     1000      129      960     1100
                                          VAR    BASINP    GEOM    SYMINP    ZMAT    AOBASIS   BASIS     P2S    ABASIS      S
                                         1400     1410     1420     1200     1210     1080     1600     1650     1700
                                           T        V       ECP      H0       H01     AOSYM     SMH    MOLCAS    OPER

 PROGRAMS   *        TOTAL       INT
 CPU TIMES  *       190.87    190.63
 REAL TIME  *       212.82 SEC
 DISK USED  *        15.20 GB
 GA USED    *         0.00 MB       (max)       0.00 MB       (current)
 **********************************************************************************************************************************


 PROGRAM * RHF-SCF (CLOSED SHELL)       Authors: W. Meyer, H.-J. Werner


 NUMBER OF ELECTRONS:       8+    8-    SPACE SYMMETRY=1    SPIN SYMMETRY: Singlet
 CONVERGENCE THRESHOLDS:    1.00E-05 (Density)    1.00E-07 (Energy)
 MAX. NUMBER OF ITERATIONS:      200
 INTERPOLATION TYPE:            DIIS
 INTERPOLATION STEPS:              2 (START)      1 (STEP)
 LEVEL SHIFTS:                  0.00 (CLOSED)  0.00 (OPEN)

 Number of closed-shell orbitals:    8 (   4   2   2   0 )


 Orbital guess generated from atomic densities. Full valence occupancy:    7   3   3   1

 Molecular orbital dump at record        2202.2

 ITERATION    DDIFF          GRAD             ENERGY        2-EL.EN.            DIPOLE MOMENTS         DIIS   ORB.
    1      0.000D+00      0.000D+00       -54.66768411    100.350999    0.00000    0.00000   -7.73018    0    start
    2      0.000D+00      0.149D-01       -48.45162341     98.151109    0.00000    0.00000   21.60590    1    diag
    3      0.630D-01      0.482D-01       -55.00416495     97.710822    0.00000    0.00000   -5.56990    2    diag
    4      0.562D-01      0.482D-02       -55.04697571     97.476671    0.00000    0.00000   -4.36017    3    diag
    5      0.783D-02      0.222D-02       -55.05558990     97.188391    0.00000    0.00000   -3.81346    4    diag
    6      0.167D-02      0.497D-03       -55.05716049     97.085793    0.00000    0.00000   -3.63568    5    diag
    7      0.117D-02      0.339D-03       -55.05815394     97.052174    0.00000    0.00000   -3.55907    6    diag
    8      0.197D-02      0.319D-03       -55.06066610     96.907676    0.00000    0.00000   -3.28697    7    diag
    9      0.588D-02      0.293D-03       -55.06206292     96.749205    0.00000    0.00000   -2.97932    8    diag
   10      0.503D-02      0.224D-03       -55.06216000     96.763765    0.00000    0.00000   -3.07196    9    orth
   11      0.125D-02      0.185D-03       -55.06241044     96.685067    0.00000    0.00000   -2.92608    9    diag
   12      0.196D-02      0.660D-04       -55.06244047     96.654845    0.00000    0.00000   -2.90363    9    diag
   13      0.697D-03      0.516D-04       -55.06247270     96.597260    0.00000    0.00000   -2.81684    9    diag
   14      0.119D-02      0.171D-04       -55.06247337     96.599327    0.00000    0.00000   -2.82205    9    diag
   15      0.558D-04      0.425D-05       -55.06247338     96.598990    0.00000    0.00000   -2.82143    9    diag
   16      0.649D-05      0.190D-05       -55.06247338     96.600158    0.00000    0.00000   -2.82282    0    orth

 Final occupancy:   4   2   2   0

 !RHF STATE 1.1 Energy                -55.062473377598
   --><property name="Energy" method="RHF" principal="true" stateSymmetry="1" stateNumber="1"
     value="-55.0624733775983"/><!--
 Nuclear energy                        15.18508518
 One-electron energy                 -118.54763755
 Two-electron energy                   48.30007899
 Virial quotient                       -2.21798503
 !RHF STATE 1.1 Dipole moment           0.00000000     0.00000000    -2.82282367
 Dipole moment /Debye                   0.00000000     0.00000000    -7.17443218
   --><property name="Dipole moment" method="RHF" principal="true" stateSymmetry="1"
     stateNumber="1" value="0.0 0.0 -2.82282366983138"/><!--

 ELECTRON ORBITALS
 =================


   Orb  Occ    Energy  Couls-En    Coefficients

                                   1 1s      1 1s      1 1s      1 1s      1 1s      1 1s      1 1s      1 1s      1 1s      1 1s
                                   1 1s      1 1s      1 1s      1 1s      1 1s      1 1s      1 1s      1 1s      1 1s      1 1s
                                   1 1s      1 1s      1 1s      1 1s      1 1s      1 1s      1 1s      1 1s      1 1s      1 1s
                                   1 1s      1 1s      1 1s      1 1s      1 1s      1 1s      1 1s      1 1s      1 2pz     1 2pz
                                   1 2pz     1 2pz     1 2pz     1 2pz     1 2pz     1 2pz     1 2pz     1 2pz     1 2pz     1 2pz
                                   1 2pz     1 2pz     1 2pz     1 2pz     1 2pz     1 2pz     1 2pz     1 2pz     1 2pz     1 2pz
                                   1 2pz     1 2pz     1 2pz     1 2pz     1 2pz     1 2pz     1 2pz     1 2pz     1 2pz     1 3d0
                                   1 3d2+    1 3d0     1 3d2+    1 3d0     1 3d2+    1 3d0     1 3d2+    1 3d0     1 3d2+    1 3d0
                                   1 3d2+    1 3d0     1 3d2+    1 3d0     1 3d2+    1 3d0     1 3d2+    1 3d0     1 3d2+    1 3d0
                                   1 3d2+    1 3d0     1 3d2+    1 3d0     1 3d2+    1 3d0     1 3d2+    1 3d0     1 3d2+    1 3d0
                                   1 3d2+    1 3d0     1 3d2+    1 3d0     1 3d2+    1 3d0     1 3d2+    1 3d0     1 3d2+    1 3d0
                                   1 3d2+    1 3d0     1 3d2+    1 4f0     1 4f2+    1 4f0     1 4f2+    1 4f0     1 4f2+    1 4f0
                                   1 4f2+    1 4f0     1 4f2+    1 4f0     1 4f2+    1 4f0     1 4f2+    1 4f0     1 4f2+    1 4f0
                                   1 4f2+    1 4f0     1 4f2+    1 4f0     1 4f2+    1 4f0     1 4f2+    1 4f0     1 4f2+    1 4f0
                                   1 4f2+    1 4f0     1 4f2+    1 5g0     1 5g4+    1 5g2+    1 5g0     1 5g4+    1 5g2+    1 5g0
                                   1 5g4+    1 5g2+    1 5g0     1 5g4+    1 5g2+    1 5g0     1 5g4+    1 5g2+    1 5g0     1 5g4+
                                   1 5g2+    1 5g0     1 5g4+    1 5g2+    1 6h2+    1 6h4+    1 6h0     1 6h2+    1 6h4+    1 6h0
                                   1 6h2+    1 6h4+    1 6h0     2 1s      2 1s      2 1s      2 1s      2 1s      2 1s      2 1s
                                   2 1s      2 1s      2 1s      2 1s      2 1s      2 1s      2 2pz     2 2pz     2 2pz     2 2pz
                                   2 2pz     2 2pz     2 2pz     2 2pz     2 3d0     2 3d2+    2 3d0     2 3d2+    2 3d0     2 3d2+
                                   2 3d0     2 3d2+    2 4f0     2 4f2+    2 4f0     2 4f2+

   1.1   2    -3.1185  -12.7113  0.000000 -0.000000  0.000000 -0.000000  0.000000 -0.000000  0.000000 -0.000000  0.000001 -0.000002
                                 0.000004 -0.000010  0.000029 -0.000096  0.000550  0.001882 -0.001489  0.002810 -0.008917 -0.001740
                                 0.057677 -0.581350  0.723263  0.081160 -0.507465 -0.344265  0.328760  0.731050  0.312509 -0.007504
                                 0.018399 -0.020909  0.029488 -0.021142  0.008053 -0.003043  0.000775 -0.000137  0.000000 -0.000000
                                 0.000000 -0.000000  0.000000 -0.000000  0.000000 -0.000000  0.000000 -0.000000  0.000001 -0.000003
                                 0.000009 -0.000028  0.000095 -0.000117 -0.000473 -0.000190  0.002274 -0.000060  0.000291 -0.004547
                                -0.001428 -0.008137 -0.008897 -0.002395  0.000804  0.008887 -0.000191  0.000078 -0.000017  0.000000
                                -0.000000 -0.000000  0.000000  0.000000 -0.000000 -0.000001  0.000000  0.000002 -0.000000 -0.000008
                                 0.000000  0.000023 -0.000000 -0.000074  0.000000  0.000338 -0.000000 -0.000738  0.000000  0.000624
                                -0.000000 -0.000969 -0.000000  0.000241  0.000000 -0.006456 -0.000000 -0.003959 -0.000000  0.001433
                                 0.000000 -0.004122 -0.000000  0.006427  0.000000 -0.003244 -0.000000  0.000687  0.000000 -0.000253
                                -0.000000  0.000068  0.000000 -0.000000  0.000000  0.000000 -0.000000 -0.000001  0.000000  0.000006
                                -0.000000 -0.000055  0.000000  0.000141 -0.000000 -0.000207  0.000000 -0.000344  0.000000 -0.000454
                                 0.000000 -0.000423  0.000000 -0.000221  0.000000  0.000001  0.000000  0.000207  0.000000 -0.000015
                                -0.000000  0.000013  0.000000  0.000002  0.000000 -0.000000  0.000006 -0.000000  0.000000  0.000096
                                -0.000000  0.000000  0.000562  0.000000  0.000000 -0.000458 -0.000000 -0.000000  0.000252  0.000000
                                 0.000000 -0.000031 -0.000000 -0.000000  0.000000 -0.000000  0.000005  0.000000 -0.000000 -0.000001
                                 0.000000  0.000000  0.000079 -0.000000  0.000000 -0.000000  0.000001 -0.000006  0.000175 -0.000178
                                 0.000592  0.000813  0.001552  0.000147 -0.000264 -0.000292 -0.000025 -0.000218 -0.000579 -0.001005
                                -0.001602 -0.000244  0.000007  0.000007  0.000040 -0.000000  0.000464  0.000000  0.000695 -0.000000
                                 0.000009  0.000000 -0.000017 -0.000000 -0.000360  0.000000

   2.1   2    -1.6037   -9.4786  0.000000 -0.000000  0.000000 -0.000000  0.000000 -0.000000  0.000000 -0.000000  0.000000 -0.000000
                                 0.000000 -0.000001  0.000002 -0.000006  0.000032  0.000107 -0.000079  0.000131 -0.000323 -0.000101
                                 0.001557 -0.014165  0.017976 -0.000424 -0.009004 -0.009108  0.009458  0.026929 -0.004570 -0.014851
                                -0.002773 -0.013623 -0.031261  0.025848 -0.007796  0.002536 -0.000584  0.000098 -0.000000  0.000000
                                -0.000000  0.000000 -0.000000  0.000000 -0.000000  0.000001 -0.000002  0.000007 -0.000021  0.000062
                                -0.000190  0.000681 -0.001863 -0.048600  0.192218 -0.227894  0.072438 -0.202199  0.161910  0.513436
                                -0.013014  0.425195  0.038637  0.086643 -0.025960 -0.037207  0.001463 -0.000747  0.000180  0.000000
                                 0.000000 -0.000000 -0.000000  0.000000 -0.000000 -0.000001  0.000000  0.000003 -0.000000 -0.000011
                                 0.000000  0.000032 -0.000000 -0.000100  0.000000  0.000459 -0.000000 -0.000994  0.000000  0.000823
                                -0.000000 -0.001264  0.000000 -0.000222 -0.000000 -0.007652 -0.000000 -0.012639 -0.000000 -0.006299
                                -0.000000 -0.005397  0.000000 -0.006713 -0.000000  0.005256  0.000000 -0.000254 -0.000000  0.000025
                                 0.000000 -0.000000 -0.000000  0.000000 -0.000000 -0.000000  0.000000  0.000000 -0.000000 -0.000001
                                 0.000000 -0.000004 -0.000000  0.000075  0.000000 -0.000206  0.000000 -0.000749  0.000000 -0.000274
                                 0.000000 -0.003206  0.000000 -0.001186  0.000000 -0.001349  0.000000 -0.003007 -0.000000  0.001237
                                -0.000000 -0.000063  0.000000 -0.000002  0.000000  0.000000  0.000012 -0.000000 -0.000000  0.000072
                                -0.000000 -0.000000  0.001294  0.000000  0.000000 -0.001199 -0.000000 -0.000000 -0.000906  0.000000
                                 0.000000  0.000393 -0.000000 -0.000000 -0.000000  0.000000  0.000011 -0.000000 -0.000000 -0.000202
                                -0.000000  0.000000  0.000517 -0.000000  0.000000 -0.000003  0.000021 -0.000185  0.007202 -0.014336
                                 0.024532  0.071711  0.052867  0.031768 -0.006430 -0.011580 -0.000400 -0.003383 -0.010379 -0.017935
                                -0.018971 -0.010182 -0.000134  0.000107  0.000554  0.000000  0.003720 -0.000000  0.003741  0.000000
                                 0.000025  0.000000 -0.000407  0.000000 -0.001469  0.000000

   3.1   2    -1.3191   -8.6553 -0.000000  0.000000 -0.000000  0.000000 -0.000000  0.000000 -0.000000  0.000000 -0.000000  0.000000
                                -0.000000  0.000000 -0.000000  0.000001 -0.000006 -0.000024  0.000024 -0.000059  0.000263  0.000021
                                -0.002156  0.023523 -0.029460 -0.004294  0.023023  0.015696 -0.015238 -0.047250 -0.033261  0.070186
                                -0.031795  0.004881  0.018314 -0.010680  0.004408 -0.001687  0.000427 -0.000075 -0.000000  0.000000
                                -0.000000  0.000000 -0.000000  0.000000 -0.000000  0.000000 -0.000000  0.000000 -0.000000 -0.000000
                                 0.000005 -0.000037  0.000016  0.012445 -0.044863  0.056553 -0.027777  0.048663 -0.038507 -0.081779
                                -0.044504 -0.047451  0.482732 -0.025825 -0.012952 -0.473908  0.009205 -0.003814  0.000831  0.000000
                                 0.000000 -0.000000 -0.000000  0.000000  0.000000 -0.000001 -0.000000  0.000004  0.000000 -0.000011
                                -0.000000  0.000034  0.000000 -0.000108 -0.000000  0.000607  0.000000 -0.001753 -0.000000  0.001809
                                 0.000000  0.000692  0.000000  0.003242  0.000000  0.012427  0.000000  0.026824  0.000000 -0.001044
                                 0.000000 -0.032058 -0.000000  0.055462  0.000000 -0.024217 -0.000000  0.004730  0.000000 -0.001679
                                 0.000000  0.000445 -0.000000 -0.000000  0.000000  0.000001 -0.000000 -0.000004  0.000000  0.000021
                                -0.000000 -0.000121  0.000000 -0.000050 -0.000000  0.000616  0.000000  0.003383 -0.000000  0.002819
                                -0.000000  0.004192 -0.000000  0.005215  0.000000 -0.011528 -0.000000  0.008248  0.000000 -0.000013
                                -0.000000  0.000156 -0.000000  0.000007  0.000000 -0.000000 -0.000028 -0.000000  0.000000  0.000297
                                 0.000000 -0.000000  0.004464  0.000000  0.000000 -0.006458 -0.000000 -0.000000  0.000270  0.000000
                                 0.000000  0.001721 -0.000000 -0.000000 -0.000000  0.000000  0.000017  0.000000 -0.000000 -0.000082
                                -0.000000  0.000000  0.000682 -0.000000  0.000004 -0.000026  0.000166 -0.001430  0.054191 -0.100228
                                 0.189102  0.545351  0.408851  0.011230 -0.053511 -0.088092 -0.000085 -0.000419 -0.003171 -0.004628
                                -0.039344 -0.005789 -0.000344  0.000020 -0.000568  0.000000  0.001614 -0.000000  0.008346  0.000000
                                -0.000292 -0.000000  0.000055 -0.000000 -0.001821  0.000000

   4.1   2    -0.5214   -6.4738 -0.000000  0.000000 -0.000000  0.000000 -0.000000  0.000000 -0.000000  0.000000 -0.000000  0.000000
                                -0.000000  0.000001 -0.000003  0.000011 -0.000066 -0.000238  0.000207 -0.000454  0.001765  0.000215
                                -0.013460  0.144895 -0.182332 -0.022263  0.136573  0.099885 -0.096987 -0.308015 -0.264400  0.173807
                                 0.381107  0.384510 -0.451431  0.337252 -0.107922  0.036959 -0.008871  0.001526 -0.000000  0.000000
                                -0.000000  0.000000 -0.000000  0.000000 -0.000000  0.000000 -0.000000  0.000000 -0.000000  0.000001
                                -0.000001 -0.000005 -0.000015  0.003874 -0.013883  0.017974 -0.009662  0.015794 -0.013561 -0.018125
                                -0.042546  0.007653 -1.140922  0.012877 -0.090191  1.133448 -0.020085  0.007610 -0.001572  0.000000
                                 0.000000 -0.000000 -0.000000  0.000001  0.000000 -0.000004 -0.000000  0.000015  0.000000 -0.000047
                                -0.000000  0.000143  0.000000 -0.000459 -0.000000  0.002835  0.000000 -0.008993 -0.000000  0.009847
                                 0.000000  0.006988  0.000000  0.022892  0.000000  0.097259  0.000000  0.167881  0.000000  0.106732
                                 0.000000 -0.126639 -0.000000  0.120221  0.000000 -0.051960 -0.000000  0.016557  0.000000 -0.006762
                                -0.000000  0.001898  0.000000 -0.000000  0.000000  0.000000 -0.000000 -0.000002  0.000000  0.000012
                                -0.000000  0.000084  0.000000 -0.001207 -0.000000  0.003278  0.000000  0.012161 -0.000000  0.011580
                                -0.000000  0.010090 -0.000000  0.015483 -0.000000 -0.006734 -0.000000 -0.015535  0.000000  0.004717
                                 0.000000  0.000620 -0.000000  0.000000  0.000000 -0.000000  0.000008 -0.000000  0.000000  0.000244
                                 0.000000 -0.000000  0.006024  0.000000  0.000000 -0.005322 -0.000000 -0.000000 -0.004458  0.000000
                                 0.000000  0.000945 -0.000000 -0.000000 -0.000000  0.000000  0.000041  0.000000 -0.000000 -0.000299
                                -0.000000  0.000000  0.001706  0.000000 -0.000001  0.000005 -0.000028  0.000241 -0.009160  0.015932
                                -0.034616 -0.104891 -0.102319  0.083654  0.010047  0.015157 -0.006195 -0.052961 -0.172724 -0.280433
                                -0.237521 -0.070972 -0.003396  0.001634  0.003240  0.000000  0.012506 -0.000000  0.015665  0.000000
                                 0.000320 -0.000000 -0.002556 -0.000000 -0.003764  0.000000

   5.1   0    -0.2531   -5.0585 -0.000000  0.000000 -0.000000  0.000000 -0.000000  0.000000 -0.000000  0.000000 -0.000000  0.000000
                                -0.000001  0.000002 -0.000006  0.000019 -0.000109 -0.000373  0.000295 -0.000557  0.001776  0.000345
                                -0.011656  0.120111 -0.151539 -0.012747  0.103643  0.081797 -0.080084 -0.234449 -0.180010 -0.024986
                                 0.322174  0.459621  0.053693  0.125532 -0.015409  0.011141 -0.003369  0.000654 -0.000000  0.000000
                                -0.000000  0.000000 -0.000000  0.000000 -0.000000  0.000000 -0.000001  0.000003 -0.000009  0.000025
                                -0.000072  0.000234 -0.000766 -0.003785  0.021308 -0.021965 -0.004780 -0.022359  0.021533  0.103893
                                -0.014189  0.109770  0.423184 -0.066348 -0.214999 -0.475761  0.018015 -0.008235  0.001890 -0.000000
                                -0.000000  0.000000  0.000000 -0.000001 -0.000000  0.000005  0.000000 -0.000018 -0.000000  0.000058
                                 0.000000 -0.000176 -0.000000  0.000565  0.000000 -0.003396 -0.000000  0.010497  0.000000 -0.011333
                                -0.000000 -0.006880 -0.000000 -0.025217 -0.000000 -0.101198 -0.000000 -0.180052 -0.000000 -0.181317
                                -0.000000  0.063782  0.000000 -0.170573 -0.000000  0.082748  0.000000 -0.022002 -0.000000  0.009216
                                 0.000000 -0.002654 -0.000000  0.000000  0.000000 -0.000001 -0.000000  0.000005  0.000000 -0.000027
                                -0.000000  0.000109 -0.000000  0.000436  0.000000 -0.001736 -0.000000 -0.007627 -0.000000 -0.006678
                                -0.000000 -0.007316 -0.000000 -0.007949 -0.000000  0.012860  0.000000  0.001154 -0.000000  0.002447
                                 0.000000 -0.000793 -0.000000  0.000004 -0.000000  0.000000 -0.000033  0.000000 -0.000000  0.000002
                                -0.000000 -0.000000 -0.001001 -0.000000  0.000000  0.004183  0.000000  0.000000  0.001997 -0.000000
                                 0.000000 -0.000852  0.000000 -0.000000 -0.000000 -0.000000 -0.000025 -0.000000  0.000000  0.000136
                                 0.000000 -0.000000 -0.001030 -0.000000  0.000000 -0.000000  0.000001 -0.000009  0.000414 -0.000725
                                 0.002202  0.007930  0.010572  0.026724 -0.000553 -0.000708  0.004136  0.035370  0.116022  0.187958
                                 0.169146  0.050154  0.002324 -0.001090 -0.001550 -0.000000 -0.006127  0.000000 -0.007864 -0.000000
                                -0.000139  0.000000  0.001645  0.000000  0.002762 -0.000000

   6.1   0    -0.1859   -5.5436  0.000000 -0.000000  0.000000 -0.000000  0.000000 -0.000000  0.000000 -0.000000  0.000000 -0.000000
                                 0.000000 -0.000000  0.000000 -0.000000  0.000000  0.000000 -0.000000  0.000000 -0.000000 -0.000000
                                 0.000000 -0.000000  0.000000  0.000000 -0.000000 -0.000000  0.000000  0.000000  0.000000 -0.000000
                                -0.000000 -0.000000  0.000000 -0.000000  0.000000 -0.000000 -0.000000  0.000000 -0.000000  0.000000
                                -0.000000  0.000000 -0.000000  0.000000 -0.000000  0.000000 -0.000000  0.000000 -0.000000  0.000000
                                -0.000000  0.000000 -0.000000 -0.000000  0.000000 -0.000000  0.000000 -0.000000  0.000000  0.000000
                                -0.000000  0.000000 -0.000001 -0.000000 -0.000000  0.000001 -0.000000  0.000000 -0.000000  0.000000
                                 0.000000 -0.000000 -0.000000  0.000000  0.000002 -0.000000 -0.000007  0.000000  0.000026 -0.000000
                                -0.000085  0.000000  0.000261 -0.000000 -0.000839  0.000000  0.005521 -0.000000 -0.018534  0.000000
                                 0.020895  0.000000  0.018738  0.000000  0.053794  0.000000  0.240151  0.000000  0.400252  0.000000
                                 0.408603  0.000000 -0.039442  0.000000  0.314001  0.000000 -0.109409  0.000000  0.047713 -0.000000
                                -0.016481  0.000000  0.004716 -0.000000 -0.000000  0.000000  0.000001 -0.000000 -0.000006  0.000000
                                 0.000026 -0.000000 -0.000391  0.000000  0.001728 -0.000000 -0.003620 -0.000000 -0.011242 -0.000000
                                -0.011701 -0.000000 -0.008948 -0.000000 -0.019333 -0.000000 -0.034505 -0.000000 -0.009469 -0.000000
                                -0.012299 -0.000000  0.001431 -0.000000 -0.000000 -0.000022  0.000000  0.000000  0.000111 -0.000000
                                 0.000000 -0.000684 -0.000000  0.000000 -0.012123  0.000000 -0.000000  0.003679 -0.000000  0.000000
                                -0.008798  0.000000 -0.000000  0.000823  0.000005  0.000000 -0.000000 -0.000018  0.000000 -0.000000
                                -0.000012  0.000000 -0.000000  0.000000 -0.000000  0.000000 -0.000000  0.000000 -0.000000 -0.000000
                                -0.000000  0.000000  0.000000  0.000000  0.000000  0.000000  0.000000  0.000000  0.000000  0.000000
                                 0.000000  0.000000  0.000000 -0.000000  0.000000  0.000471  0.000000  0.002138 -0.000000  0.002606
                                 0.000000  0.000041  0.000000 -0.000183  0.000000 -0.000995

                                   1 2px     1 2px     1 2px     1 2px     1 2px     1 2px     1 2px     1 2px     1 2px     1 2px
                                   1 2px     1 2px     1 2px     1 2px     1 2px     1 2px     1 2px     1 2px     1 2px     1 2px
                                   1 2px     1 2px     1 2px     1 2px     1 2px     1 2px     1 2px     1 2px     1 2px     1 2px
                                   1 2px     1 3d1+    1 3d1+    1 3d1+    1 3d1+    1 3d1+    1 3d1+    1 3d1+    1 3d1+    1 3d1+
                                   1 3d1+    1 3d1+    1 3d1+    1 3d1+    1 3d1+    1 3d1+    1 3d1+    1 3d1+    1 3d1+    1 3d1+
                                   1 3d1+    1 3d1+    1 3d1+    1 4f1+    1 4f3+    1 4f1+    1 4f3+    1 4f1+    1 4f3+    1 4f1+
                                   1 4f3+    1 4f1+    1 4f3+    1 4f1+    1 4f3+    1 4f1+    1 4f3+    1 4f1+    1 4f3+    1 4f1+
                                   1 4f3+    1 4f1+    1 4f3+    1 4f1+    1 4f3+    1 4f1+    1 4f3+    1 4f1+    1 4f3+    1 4f1+
                                   1 4f3+    1 4f1+    1 4f3+    1 5g1+    1 5g3+    1 5g1+    1 5g3+    1 5g1+    1 5g3+    1 5g1+
                                   1 5g3+    1 5g1+    1 5g3+    1 5g1+    1 5g3+    1 5g1+    1 5g3+    1 6h1+    1 6h3+    1 6h5+
                                   1 6h1+    1 6h3+    1 6h5+    1 6h1+    1 6h3+    1 6h5+    2 2px     2 2px     2 2px     2 2px
                                   2 2px     2 2px     2 2px     2 2px     2 3d1+    2 3d1+    2 3d1+    2 3d1+    2 4f1+    2 4f3+
                                   2 4f1+    2 4f3+

   1.2   2    -1.6116   -9.4062 -0.000000  0.000000 -0.000000  0.000000 -0.000000  0.000000 -0.000000  0.000001 -0.000003  0.000008
                                -0.000023  0.000067 -0.000204  0.000727 -0.002019 -0.049017  0.195270 -0.230780  0.070637 -0.204894
                                 0.164839  0.523528 -0.000081  0.430194  0.251634  0.078817 -0.012195 -0.249375  0.005498 -0.002331
                                 0.000514  0.000000 -0.000000  0.000000 -0.000000  0.000001 -0.000004  0.000012 -0.000039  0.000163
                                -0.000291  0.000190 -0.000765 -0.000518 -0.005563 -0.012857 -0.003393  0.002425 -0.003095  0.001206
                                -0.000199  0.000066 -0.000017  0.000000 -0.000000 -0.000001  0.000000  0.000003 -0.000000 -0.000013
                                 0.000000  0.000067 -0.000000  0.000094  0.000000 -0.000542 -0.000000 -0.002633  0.000000 -0.001892
                                -0.000000 -0.004965  0.000000 -0.003394 -0.000000  0.000397  0.000000 -0.000608 -0.000000  0.000212
                                 0.000000 -0.000083 -0.000000 -0.000004  0.000000  0.000011 -0.000000 -0.000098  0.000000 -0.000152
                                -0.000000  0.000082  0.000000 -0.000186 -0.000000 -0.000011  0.000000  0.000003 -0.000000 -0.000000
                                -0.000118 -0.000000  0.000000  0.000190  0.000000  0.000000  0.000106  0.000917  0.002775  0.004572
                                 0.003393  0.000436  0.000019 -0.000028 -0.000173 -0.001104 -0.000949 -0.000021  0.000112  0.000000
                                 0.000612 -0.000000

   2.2   2    -0.5940   -7.0581  0.000000 -0.000000  0.000000 -0.000000  0.000000 -0.000000  0.000000 -0.000000  0.000000 -0.000000
                                 0.000001 -0.000004  0.000011 -0.000039  0.000110  0.002582 -0.010428  0.012605 -0.004181  0.011410
                                -0.009742 -0.029177 -0.003803 -0.031686  0.085053  0.025388  0.030408 -0.089442  0.003141 -0.001344
                                 0.000295  0.000000 -0.000000  0.000001 -0.000002  0.000009 -0.000027  0.000083 -0.000264  0.001540
                                -0.004618  0.004893  0.002525  0.010003  0.039901  0.072300  0.076880 -0.087185  0.162878 -0.089909
                                 0.017492 -0.006286  0.001684  0.000000 -0.000000 -0.000002  0.000000  0.000009 -0.000000 -0.000041
                                 0.000000  0.000489 -0.000000 -0.001770  0.000000  0.003341  0.000000  0.009454  0.000000  0.010673
                                 0.000000  0.006971  0.000000  0.018966  0.000000  0.003012 -0.000000  0.006723  0.000000 -0.001122
                                 0.000000 -0.000687 -0.000000  0.000004 -0.000000 -0.000009  0.000000  0.000404  0.000000  0.012401
                                 0.000000 -0.011968 -0.000000  0.001454  0.000000  0.001325 -0.000000  0.000069 -0.000000 -0.000000
                                -0.000530  0.000000  0.000000  0.002066 -0.000000 -0.000000  0.009802  0.084375  0.277160  0.432873
                                 0.359473  0.043903  0.005335 -0.002581 -0.002763 -0.010719 -0.027393 -0.000271  0.002490  0.000000
                                 0.006874 -0.000000

   3.2   0    -0.1733   -4.7735  0.000000 -0.000000  0.000000 -0.000000  0.000000 -0.000000  0.000000 -0.000000  0.000001 -0.000003
                                 0.000009 -0.000026  0.000074 -0.000242  0.000790  0.004255 -0.023262  0.024297  0.004235  0.024218
                                -0.022559 -0.119894  0.038434 -0.139872  0.773442  0.068359  0.322022 -0.567838  0.019937 -0.002922
                                 0.000402 -0.000000  0.000000 -0.000001  0.000006 -0.000020  0.000066 -0.000202  0.000650 -0.004316
                                 0.014596 -0.016517 -0.015156 -0.043068 -0.193119 -0.314036 -0.324114 -0.040430 -0.193248  0.020064
                                -0.037017  0.010361 -0.003000  0.000000 -0.000000 -0.000001  0.000000  0.000007 -0.000000 -0.000027
                                 0.000000  0.000484  0.000000 -0.002368 -0.000000  0.005165  0.000000  0.016613  0.000000  0.016840
                                 0.000000  0.014269  0.000000  0.025188  0.000000  0.030654 -0.000000  0.008328 -0.000000  0.008891
                                -0.000000  0.000160  0.000000  0.000026 -0.000000 -0.000131 -0.000000  0.000793 -0.000000  0.015678
                                 0.000000 -0.006602  0.000000  0.011962  0.000000 -0.001296  0.000000 -0.000001 -0.000000 -0.000000
                                -0.000008  0.000000  0.000000  0.000070 -0.000000 -0.000000  0.001478  0.012705  0.042748  0.065796
                                 0.063138  0.036824  0.000952 -0.000387  0.000560  0.004224 -0.000970  0.000064 -0.000042  0.000000
                                -0.001152 -0.000000

   4.2   0    -0.1191   -4.0967  0.000000 -0.000000  0.000000 -0.000000  0.000000 -0.000000  0.000000 -0.000000  0.000001 -0.000002
                                 0.000006 -0.000016  0.000048 -0.000161  0.000509  0.004952 -0.023031  0.026019 -0.002505  0.024487
                                -0.021883 -0.094518  0.020940 -0.114920  1.464499  0.023064  0.321034 -0.979888  0.152728 -0.021629
                                 0.005066  0.000000 -0.000000  0.000001 -0.000005  0.000017 -0.000055  0.000170 -0.000549  0.003603
                                -0.012087  0.013635  0.012090  0.035290  0.155653  0.259212  0.239909 -0.135520  0.264294 -0.170934
                                -0.005360 -0.013530  0.003257 -0.000000  0.000000  0.000002 -0.000000 -0.000012  0.000000  0.000051
                                -0.000000 -0.000679  0.000000  0.002739 -0.000000 -0.005500  0.000000 -0.016432  0.000000 -0.017573
                                 0.000000 -0.011871  0.000000 -0.025977  0.000000 -0.060062  0.000000 -0.034175  0.000000 -0.031333
                                 0.000000 -0.004435  0.000000 -0.000020  0.000000  0.000108 -0.000000 -0.000610  0.000000 -0.013221
                                -0.000000  0.005798  0.000000 -0.011363 -0.000000  0.004804  0.000000  0.000001 -0.000000 -0.000000
                                 0.000042  0.000000 -0.000000 -0.000127 -0.000000  0.000000 -0.002421 -0.020856 -0.069761 -0.107910
                                -0.101866 -0.067887 -0.001469  0.000635 -0.000905 -0.005538 -0.001815 -0.000083 -0.000179  0.000000
                                 0.000610 -0.000000

                                   1 2py     1 2py     1 2py     1 2py     1 2py     1 2py     1 2py     1 2py     1 2py     1 2py
                                   1 2py     1 2py     1 2py     1 2py     1 2py     1 2py     1 2py     1 2py     1 2py     1 2py
                                   1 2py     1 2py     1 2py     1 2py     1 2py     1 2py     1 2py     1 2py     1 2py     1 2py
                                   1 2py     1 3d1-    1 3d1-    1 3d1-    1 3d1-    1 3d1-    1 3d1-    1 3d1-    1 3d1-    1 3d1-
                                   1 3d1-    1 3d1-    1 3d1-    1 3d1-    1 3d1-    1 3d1-    1 3d1-    1 3d1-    1 3d1-    1 3d1-
                                   1 3d1-    1 3d1-    1 3d1-    1 4f1-    1 4f3-    1 4f1-    1 4f3-    1 4f1-    1 4f3-    1 4f1-
                                   1 4f3-    1 4f1-    1 4f3-    1 4f1-    1 4f3-    1 4f1-    1 4f3-    1 4f1-    1 4f3-    1 4f1-
                                   1 4f3-    1 4f1-    1 4f3-    1 4f1-    1 4f3-    1 4f1-    1 4f3-    1 4f1-    1 4f3-    1 4f1-
                                   1 4f3-    1 4f1-    1 4f3-    1 5g1-    1 5g3-    1 5g1-    1 5g3-    1 5g1-    1 5g3-    1 5g1-
                                   1 5g3-    1 5g1-    1 5g3-    1 5g1-    1 5g3-    1 5g1-    1 5g3-    1 6h1-    1 6h3-    1 6h5-
                                   1 6h1-    1 6h3-    1 6h5-    1 6h1-    1 6h3-    1 6h5-    2 2py     2 2py     2 2py     2 2py
                                   2 2py     2 2py     2 2py     2 2py     2 3d1-    2 3d1-    2 3d1-    2 3d1-    2 4f1-    2 4f3-
                                   2 4f1-    2 4f3-

   1.3   2    -1.6116   -9.4062 -0.000000  0.000000 -0.000000  0.000000 -0.000000  0.000000 -0.000000  0.000001 -0.000003  0.000008
                                -0.000023  0.000067 -0.000204  0.000727 -0.002019 -0.049017  0.195270 -0.230780  0.070637 -0.204894
                                 0.164839  0.523528 -0.000081  0.430194  0.251634  0.078817 -0.012195 -0.249375  0.005498 -0.002331
                                 0.000514  0.000000 -0.000000  0.000000 -0.000000  0.000001 -0.000004  0.000012 -0.000039  0.000163
                                -0.000291  0.000190 -0.000765 -0.000518 -0.005563 -0.012857 -0.003393  0.002425 -0.003095  0.001206
                                -0.000199  0.000066 -0.000017  0.000000 -0.000000 -0.000001  0.000000  0.000003 -0.000000 -0.000013
                                 0.000000  0.000067 -0.000000  0.000094  0.000000 -0.000542 -0.000000 -0.002633  0.000000 -0.001892
                                -0.000000 -0.004965  0.000000 -0.003394 -0.000000  0.000397  0.000000 -0.000608 -0.000000  0.000212
                                 0.000000 -0.000083 -0.000000 -0.000004  0.000000  0.000011 -0.000000 -0.000098  0.000000 -0.000152
                                -0.000000  0.000082  0.000000 -0.000186 -0.000000 -0.000011  0.000000  0.000003 -0.000000 -0.000000
                                -0.000118 -0.000000  0.000000  0.000190  0.000000  0.000000  0.000106  0.000917  0.002775  0.004572
                                 0.003393  0.000436  0.000019 -0.000028 -0.000173 -0.001104 -0.000949 -0.000021  0.000112  0.000000
                                 0.000612 -0.000000

   2.3   2    -0.5940   -7.0581  0.000000 -0.000000  0.000000 -0.000000  0.000000 -0.000000  0.000000 -0.000000  0.000000 -0.000000
                                 0.000001 -0.000004  0.000011 -0.000039  0.000110  0.002582 -0.010428  0.012605 -0.004181  0.011410
                                -0.009742 -0.029177 -0.003803 -0.031686  0.085053  0.025388  0.030408 -0.089442  0.003141 -0.001344
                                 0.000295  0.000000 -0.000000  0.000001 -0.000002  0.000009 -0.000027  0.000083 -0.000264  0.001540
                                -0.004618  0.004893  0.002525  0.010003  0.039901  0.072300  0.076880 -0.087185  0.162878 -0.089909
                                 0.017492 -0.006286  0.001684  0.000000 -0.000000 -0.000002  0.000000  0.000009 -0.000000 -0.000041
                                 0.000000  0.000489 -0.000000 -0.001770  0.000000  0.003341  0.000000  0.009454  0.000000  0.010673
                                 0.000000  0.006971  0.000000  0.018966  0.000000  0.003012 -0.000000  0.006723 -0.000000 -0.001122
                                 0.000000 -0.000687 -0.000000  0.000004  0.000000 -0.000009  0.000000  0.000404  0.000000  0.012401
                                -0.000000 -0.011968 -0.000000  0.001454 -0.000000  0.001325 -0.000000  0.000069  0.000000 -0.000000
                                -0.000530 -0.000000  0.000000  0.002066 -0.000000 -0.000000  0.009802  0.084375  0.277160  0.432873
                                 0.359473  0.043903  0.005335 -0.002581 -0.002763 -0.010719 -0.027393 -0.000271  0.002490  0.000000
                                 0.006874 -0.000000

   3.3   0    -0.1733   -4.7735  0.000000 -0.000000  0.000000 -0.000000  0.000000 -0.000000  0.000000 -0.000000  0.000001 -0.000003
                                 0.000009 -0.000026  0.000074 -0.000242  0.000790  0.004255 -0.023262  0.024297  0.004235  0.024218
                                -0.022559 -0.119894  0.038434 -0.139872  0.773442  0.068359  0.322022 -0.567838  0.019937 -0.002922
                                 0.000402 -0.000000  0.000000 -0.000001  0.000006 -0.000020  0.000066 -0.000202  0.000650 -0.004316
                                 0.014596 -0.016517 -0.015156 -0.043068 -0.193119 -0.314036 -0.324114 -0.040430 -0.193248  0.020064
                                -0.037017  0.010361 -0.003000  0.000000 -0.000000 -0.000001  0.000000  0.000007 -0.000000 -0.000027
                                 0.000000  0.000484  0.000000 -0.002368 -0.000000  0.005165  0.000000  0.016613  0.000000  0.016840
                                 0.000000  0.014269  0.000000  0.025188  0.000000  0.030654 -0.000000  0.008328 -0.000000  0.008891
                                -0.000000  0.000160  0.000000  0.000026 -0.000000 -0.000131 -0.000000  0.000793 -0.000000  0.015678
                                 0.000000 -0.006602  0.000000  0.011962  0.000000 -0.001296  0.000000 -0.000001 -0.000000 -0.000000
                                -0.000008  0.000000  0.000000  0.000070 -0.000000 -0.000000  0.001478  0.012705  0.042748  0.065796
                                 0.063138  0.036824  0.000952 -0.000387  0.000560  0.004224 -0.000970  0.000064 -0.000042  0.000000
                                -0.001152 -0.000000

   4.3   0    -0.1191   -4.0967  0.000000 -0.000000  0.000000 -0.000000  0.000000 -0.000000  0.000000 -0.000000  0.000001 -0.000002
                                 0.000006 -0.000016  0.000048 -0.000161  0.000509  0.004952 -0.023031  0.026019 -0.002505  0.024487
                                -0.021883 -0.094518  0.020940 -0.114920  1.464499  0.023064  0.321034 -0.979888  0.152728 -0.021629
                                 0.005066  0.000000 -0.000000  0.000001 -0.000005  0.000017 -0.000055  0.000170 -0.000549  0.003603
                                -0.012087  0.013635  0.012090  0.035290  0.155653  0.259212  0.239909 -0.135520  0.264294 -0.170934
                                -0.005360 -0.013530  0.003257 -0.000000  0.000000  0.000002 -0.000000 -0.000012  0.000000  0.000051
                                -0.000000 -0.000679  0.000000  0.002739  0.000000 -0.005500 -0.000000 -0.016432 -0.000000 -0.017573
                                -0.000000 -0.011871  0.000000 -0.025977 -0.000000 -0.060062  0.000000 -0.034175 -0.000000 -0.031333
                                 0.000000 -0.004435 -0.000000 -0.000020 -0.000000  0.000108  0.000000 -0.000610  0.000000 -0.013221
                                -0.000000  0.005798  0.000000 -0.011363 -0.000000  0.004804  0.000000  0.000001  0.000000  0.000000
                                 0.000042 -0.000000 -0.000000 -0.000127  0.000000  0.000000 -0.002421 -0.020856 -0.069761 -0.107910
                                -0.101866 -0.067887 -0.001469  0.000635 -0.000905 -0.005538 -0.001815 -0.000083 -0.000179 -0.000000
                                 0.000610  0.000000

                                   1 3d2-    1 3d2-    1 3d2-    1 3d2-    1 3d2-    1 3d2-    1 3d2-    1 3d2-    1 3d2-    1 3d2-
                                   1 3d2-    1 3d2-    1 3d2-    1 3d2-    1 3d2-    1 3d2-    1 3d2-    1 3d2-    1 3d2-    1 3d2-
                                   1 3d2-    1 3d2-    1 4f2-    1 4f2-    1 4f2-    1 4f2-    1 4f2-    1 4f2-    1 4f2-    1 4f2-
                                   1 4f2-    1 4f2-    1 4f2-    1 4f2-    1 4f2-    1 4f2-    1 4f2-    1 5g2-    1 5g4-    1 5g2-
                                   1 5g4-    1 5g2-    1 5g4-    1 5g2-    1 5g4-    1 5g2-    1 5g4-    1 5g2-    1 5g4-    1 5g2-
                                   1 5g4-    1 6h4-    1 6h2-    1 6h4-    1 6h2-    1 6h4-    1 6h2-    2 3d2-    2 3d2-    2 3d2-
                                   2 3d2-    2 4f2-    2 4f2-

   1.4   0    -0.1859   -5.5436  0.000000 -0.000000  0.000002 -0.000007  0.000026 -0.000085  0.000261 -0.000839  0.005521 -0.018534
                                 0.020895  0.018738  0.053794  0.240151  0.400252  0.408603 -0.039442  0.314001 -0.109409  0.047713
                                -0.016481  0.004716 -0.000000  0.000001 -0.000006  0.000026 -0.000391  0.001728 -0.003620 -0.011242
                                -0.011701 -0.008948 -0.019333 -0.034505 -0.009469 -0.012299  0.001431 -0.000022 -0.000000  0.000111
                                 0.000000 -0.000684  0.000000 -0.012123 -0.000000  0.003679  0.000000 -0.008798 -0.000000  0.000823
                                -0.000000  0.000000  0.000005 -0.000000 -0.000018  0.000000 -0.000012  0.000471  0.002138  0.002606
                                 0.000041 -0.000183 -0.000995

   2.4   0    -0.0575   -1.7982 -0.000000  0.000000 -0.000000  0.000002 -0.000008  0.000024 -0.000074  0.000238 -0.001554  0.005185
                                -0.005838 -0.005039 -0.015054 -0.065519 -0.110577 -0.106267  0.086452 -0.134230  0.255908  0.449200
                                 0.379473  0.048895 -0.000000  0.000000 -0.000002  0.000008 -0.000050 -0.000027  0.000282  0.001473
                                 0.001135  0.001512  0.001782  0.008566 -0.044987 -0.040874 -0.195767  0.000007  0.000000 -0.000033
                                -0.000000  0.000209 -0.000000  0.003334  0.000000 -0.001173 -0.000000 -0.002491  0.000000 -0.000570
                                -0.000000 -0.000000  0.000002 -0.000000 -0.000022 -0.000000  0.000104  0.000055 -0.000173  0.001486
                                -0.000003  0.000037  0.000135

 HOMO      4.1    -0.521396 =     -14.1879eV
 LUMO      5.1    -0.253069 =      -6.8864eV
 LUMO-HOMO         0.268327 =       7.3015eV


 **********************************************************************************************************************************
 DATASETS  * FILE   NREC   LENGTH (MB)   RECORD NAMES
              1      19       23.22       500      610      700      900      950      970     1000      129      960     1100
                                          VAR    BASINP    GEOM    SYMINP    ZMAT    AOBASIS   BASIS     P2S    ABASIS      S
                                         1400     1410     1420     1200     1210     1080     1600     1650     1700
                                           T        V       ECP      H0       H01     AOSYM     SMH    MOLCAS    OPER

              2       4        4.38       700     1000      520     2202
                                         GEOM     BASIS   MCVARS     RHF

 PROGRAMS   *        TOTAL       RHF       INT
 CPU TIMES  *       205.93     15.06    190.63
 REAL TIME  *       228.74 SEC
 DISK USED  *        15.56 GB
 SF USED    *         0.31 MB
 GA USED    *         0.00 MB       (max)       0.00 MB       (current)
 **********************************************************************************************************************************
   -->
   <time start="16:48:44" end="16:52:32" cpu="205.93" system="22.17" real="228.74"/>
   <storage units="megabyte" memory="8001.84" sf="0.31" df="365.66" eaf="15196.77" ga="0.0"/>
  </jobstep><!--
  --><jobstep command="RHF-SCF" commandset="SCFPRO">
   <!--


 PROGRAM * RHF-SCF (OPEN SHELL)       Authors: W. Meyer, H.-J. Werner


 NUMBER OF ELECTRONS:       9+    8-    SPACE SYMMETRY=1    SPIN SYMMETRY: Doublet
 CONVERGENCE THRESHOLDS:    1.00E-05 (Density)    1.00E-07 (Energy)
 MAX. NUMBER OF ITERATIONS:      200
 INTERPOLATION TYPE:            DIIS
 INTERPOLATION STEPS:              2 (START)      1 (STEP)
 LEVEL SHIFTS:                 -0.60 (CLOSED) -0.30 (OPEN)

 Number of closed-shell orbitals:    8 (   4   2   2   0 )
 Number of open-shell orbitals:      1 (   1   0   0   0 )


 Molecular orbitals read from record     2202.2  Type=RHF/CANONICAL (state 1.1)

 Molecular orbital dump at record        3202.2

 ITERATION    DDIFF          GRAD             ENERGY        2-EL.EN.            DIPOLE MOMENTS         DIIS   ORB.
    1      0.000D+00      0.000D+00       -55.31554252    105.704867    0.00000    0.00000   -2.96873    0    start
    2      0.000D+00      0.214D-02       -55.32600392    104.827305    0.00000    0.00000   -3.05256    1    diag,B
    3      0.330D-02      0.928D-03       -55.32928830    104.725639    0.00000    0.00000   -3.18360    2    diag,B
    4      0.353D-02      0.597D-03       -55.33193483    104.503867    0.00000    0.00000   -3.21217    3    diag,B
    5      0.218D-02      0.387D-03       -55.33375937    104.391585    0.00000    0.00000   -3.21583    4    diag,B
    6      0.162D-02      0.267D-03       -55.33552549    104.263618    0.00000    0.00000   -3.14103    5    diag,B
    7      0.397D-02      0.260D-03       -55.33541505    104.271036    0.00000    0.00000   -3.14827    6    diag,B
    8      0.104D-03      0.258D-03       -55.33307636    104.477846    0.00000    0.00000   -3.35891    7    orth
    9      0.371D-02      0.211D-03       -55.33198795    104.645087    0.00000    0.00000   -3.55040    8    diag,B
   10      0.306D-02      0.168D-03       -55.33113868    104.842887    0.00000    0.00000   -3.79899    9    diag,B
   11      0.255D-02      0.148D-03       -55.32999578    104.976326    0.00000    0.00000   -3.97856    9    diag,B
   12      0.298D-02      0.306D-03       -55.33123466    104.849153    0.00000    0.00000   -3.83853    9    diag,B
   13      0.105D-02      0.141D-03       -55.33199587    104.696149    0.00000    0.00000   -3.68577    9    diag,B
   14      0.881D-03      0.160D-03       -55.33274990    104.548047    0.00000    0.00000   -3.51078    9    diag,B
   15      0.646D-03      0.224D-03       -55.33160836    104.770948    0.00000    0.00000   -3.78557    9    diag,B
   16      0.122D-02      0.170D-03       -55.33207550    104.666345    0.00000    0.00000   -3.65029    9    diag,B
   17      0.683D-03      0.196D-03       -55.33145647    104.802503    0.00000    0.00000   -3.84565    9    diag,B
   18      0.244D-02      0.182D-03       -55.33120200    104.849369    0.00000    0.00000   -3.93324    9    orth
   19      0.241D-02      0.180D-03       -55.33135150    104.836048    0.00000    0.00000   -3.91144    9    diag,B
   20      0.690D-03      0.145D-03       -55.33109313    104.867007    0.00000    0.00000   -3.95582    9    diag,B
   21      0.310D-03      0.191D-03       -55.33191277    104.718833    0.00000    0.00000   -3.75473    9    diag,B
   22      0.113D-02      0.144D-03       -55.33169742    104.764312    0.00000    0.00000   -3.81649    9    diag,B
   23      0.628D-03      0.135D-03       -55.33169426    104.755118    0.00000    0.00000   -3.81595    9    diag,B
   24      0.717D-03      0.136D-03       -55.33072380    104.879539    0.00000    0.00000   -4.00080    9    diag,B
   25      0.363D-02      0.259D-03       -55.33184486    104.726252    0.00000    0.00000   -3.77529    9    diag,B
   26      0.401D-02      0.135D-03       -55.33187455    104.719600    0.00000    0.00000   -3.76749    9    diag,B
   27      0.849D-04      0.132D-03       -55.33105823    104.854460    0.00000    0.00000   -3.96000    9    diag,B
   28      0.295D-02      0.184D-03       -55.33205349    104.679405    0.00000    0.00000   -3.71336    9    orth
   29      0.277D-02      0.143D-03       -55.33138540    104.816689    0.00000    0.00000   -3.90217    9    diag,B
   30      0.938D-03      0.148D-03       -55.33123734    104.839469    0.00000    0.00000   -3.93486    9    diag,B
   31      0.417D-03      0.166D-03       -55.33126632    104.831410    0.00000    0.00000   -3.93091    9    diag,B
   32      0.132D-02      0.152D-03       -55.33119463    104.853123    0.00000    0.00000   -3.95634    9    diag,B
   33      0.103D-02      0.152D-03       -55.33142901    104.797863    0.00000    0.00000   -3.87741    9    diag,B
   34      0.657D-03      0.159D-03       -55.33143889    104.796784    0.00000    0.00000   -3.87429    9    diag,B
   35      0.284D-03      0.160D-03       -55.33032983    104.902517    0.00000    0.00000   -4.05187    9    diag,B
   36      0.144D-02      0.310D-03       -55.33146297    104.796755    0.00000    0.00000   -3.87574    9    diag,B
   37      0.158D-02      0.146D-03       -55.33138114    104.811758    0.00000    0.00000   -3.89784    9    diag,B
   38      0.156D-03      0.151D-03       -55.33163314    104.761806    0.00000    0.00000   -3.82268    9    orth
   39      0.116D-02      0.143D-03       -55.32993736    104.905441    0.00000    0.00000   -4.07000    9    diag,B
   40      0.190D-02      0.391D-03       -55.33172405    104.750641    0.00000    0.00000   -3.81042    9    diag,B
   41      0.176D-02      0.127D-03       -55.33200807    104.688365    0.00000    0.00000   -3.72780    9    diag,B
   42      0.534D-03      0.139D-03       -55.33049583    104.903835    0.00000    0.00000   -4.04935    9    diag,B
   43      0.189D-02      0.272D-03       -55.33203460    104.678972    0.00000    0.00000   -3.71218    9    diag,B
   44      0.181D-02      0.149D-03       -55.33172496    104.751077    0.00000    0.00000   -3.81134    9    diag,B
   45      0.494D-03      0.126D-03       -55.33014163    104.910154    0.00000    0.00000   -4.07011    9    diag,B
   46      0.166D-02      0.337D-03       -55.33172051    104.750463    0.00000    0.00000   -3.81295    9    diag,B
   47      0.161D-02      0.122D-03       -55.33172021    104.753665    0.00000    0.00000   -3.81192    9    diag,B
   48      0.581D-03      0.122D-03       -55.33000420    104.899932    0.00000    0.00000   -4.06618    9    orth
   49      0.208D-02      0.361D-03       -55.33187988    104.716389    0.00000    0.00000   -3.77073    9    diag,B
   50      0.223D-02      0.119D-03       -55.33207201    104.680885    0.00000    0.00000   -3.71691    9    diag,B
   51      0.756D-03      0.140D-03       -55.33038234    104.882781    0.00000    0.00000   -4.03693    9    diag,B
   52      0.261D-02      0.294D-03       -55.33162213    104.769333    0.00000    0.00000   -3.84136    9    diag,B
   53      0.146D-02      0.127D-03       -55.33184919    104.721091    0.00000    0.00000   -3.77996    9    diag,B
   54      0.154D-02      0.129D-03       -55.33084702    104.873687    0.00000    0.00000   -4.00901    9    diag,B
   55      0.140D-02      0.157D-03       -55.33164039    104.759323    0.00000    0.00000   -3.82139    9    diag,B
   56      0.150D-02      0.144D-03       -55.33206595    104.668526    0.00000    0.00000   -3.70424    9    diag,B
   57      0.172D-02      0.135D-03       -55.33063444    104.889647    0.00000    0.00000   -4.03674    9    fixocc
   58      0.248D-02      0.208D-03       -55.33174066    104.740773    0.00000    0.00000   -3.79477    9    orth
   59      0.152D-02      0.145D-03       -55.33205844    104.671872    0.00000    0.00000   -3.70771    9    diag,B
   60      0.148D-02      0.140D-03       -55.33053240    104.893473    0.00000    0.00000   -4.04492    9    diag,B
   61      0.217D-02      0.235D-03       -55.33161645    104.769488    0.00000    0.00000   -3.83625    9    diag,B
   62      0.146D-02      0.140D-03       -55.33213876    104.656006    0.00000    0.00000   -3.68527    9    diag,B
   63      0.111D-02      0.146D-03       -55.33071829    104.886425    0.00000    0.00000   -4.02768    9    diag,B
   64      0.191D-02      0.205D-03       -55.33157179    104.778556    0.00000    0.00000   -3.84905    9    diag,B
   65      0.136D-02      0.143D-03       -55.33224252    104.634656    0.00000    0.00000   -3.65585    9    diag,B
   66      0.103D-02      0.153D-03       -55.33086722    104.877583    0.00000    0.00000   -4.01050    9    diag,B
   67      0.194D-02      0.179D-03       -55.33159135    104.773278    0.00000    0.00000   -3.84000    9    diag,B
   68      0.185D-02      0.148D-03       -55.33224570    104.633720    0.00000    0.00000   -3.65468    9    orth
   69      0.113D-02      0.149D-03       -55.33084392    104.879511    0.00000    0.00000   -4.01477    9    diag,B
   70      0.216D-02      0.179D-03       -55.33164337    104.761329    0.00000    0.00000   -3.82177    9    diag,B
   71      0.260D-02      0.151D-03       -55.33223692    104.635421    0.00000    0.00000   -3.65661    9    diag,B
   72      0.113D-02      0.151D-03       -55.33079180    104.882865    0.00000    0.00000   -4.02132    9    diag,B
   73      0.245D-02      0.188D-03       -55.33165146    104.760073    0.00000    0.00000   -3.82118    9    diag,B
   74      0.246D-02      0.148D-03       -55.33220667    104.641714    0.00000    0.00000   -3.66457    9    diag,B
   75      0.750D-03      0.150D-03       -55.33080253    104.882774    0.00000    0.00000   -4.02129    9    diag,B
   76      0.262D-02      0.183D-03       -55.33167679    104.754264    0.00000    0.00000   -3.81300    9    diag,B
   77      0.254D-02      0.149D-03       -55.33219744    104.643427    0.00000    0.00000   -3.66679    9    diag,B
   78      0.657D-03      0.150D-03       -55.33079723    104.883668    0.00000    0.00000   -4.02309    9    orth
   79      0.272D-02      0.181D-03       -55.33170444    104.747866    0.00000    0.00000   -3.80377    9    diag,B
   80      0.262D-02      0.150D-03       -55.33218893    104.644955    0.00000    0.00000   -3.66869    9    diag,B
   81      0.599D-03      0.150D-03       -55.33079237    104.884412    0.00000    0.00000   -4.02455    9    diag,B
   82      0.274D-02      0.181D-03       -55.33172242    104.743811    0.00000    0.00000   -3.79819    9    diag,B
   83      0.256D-02      0.150D-03       -55.33217430    104.647802    0.00000    0.00000   -3.67244    9    diag,B
   84      0.542D-03      0.150D-03       -55.33079318    104.884844    0.00000    0.00000   -4.02548    9    diag,B
   85      0.270D-02      0.179D-03       -55.33174153    104.739330    0.00000    0.00000   -3.79180    9    diag,B
   86      0.254D-02      0.151D-03       -55.33216746    104.648969    0.00000    0.00000   -3.67395    9    diag,B
   87      0.516D-03      0.150D-03       -55.33079633    104.885033    0.00000    0.00000   -4.02596    9    diag,B
   88      0.265D-02      0.177D-03       -55.33175604    104.735883    0.00000    0.00000   -3.78685    9    orth
   89      0.251D-02      0.151D-03       -55.33216085    104.650090    0.00000    0.00000   -3.67537    9    diag,B
   90      0.501D-03      0.150D-03       -55.33080153    104.885026    0.00000    0.00000   -4.02612    9    diag,B
   91      0.259D-02      0.175D-03       -55.33176801    104.732984    0.00000    0.00000   -3.78264    9    diag,B
   92      0.249D-02      0.152D-03       -55.33215616    104.650802    0.00000    0.00000   -3.67625    9    diag,B
   93      0.501D-03      0.150D-03       -55.33080780    104.884878    0.00000    0.00000   -4.02604    9    diag,B
   94      0.254D-02      0.173D-03       -55.33177755    104.730622    0.00000    0.00000   -3.77916    9    diag,B
   95      0.249D-02      0.153D-03       -55.33215315    104.651166    0.00000    0.00000   -3.67664    9    diag,B
   96      0.513D-03      0.151D-03       -55.33081438    104.884638    0.00000    0.00000   -4.02581    9    diag,B
   97      0.250D-02      0.171D-03       -55.33178469    104.728817    0.00000    0.00000   -3.77645    9    diag,B
   98      0.249D-02      0.154D-03       -55.33215076    104.651414    0.00000    0.00000   -3.67686    9    orth
   99      0.532D-03      0.151D-03       -55.33082075    104.884353    0.00000    0.00000   -4.02550    9    diag,B
  100      0.246D-02      0.170D-03       -55.33179014    104.727405    0.00000    0.00000   -3.77430    9    diag,B
  101      0.250D-02      0.155D-03       -55.33214930    104.651485    0.00000    0.00000   -3.67684    9    diag,B
  102      0.557D-03      0.152D-03       -55.33082658    104.884053    0.00000    0.00000   -4.02517    9    diag,B
  103      0.243D-02      0.168D-03       -55.33179406    104.726367    0.00000    0.00000   -3.77269    9    diag,B
  104      0.251D-02      0.156D-03       -55.33214818    104.651509    0.00000    0.00000   -3.67675    9    diag,B
  105      0.584D-03      0.152D-03       -55.33083165    104.883764    0.00000    0.00000   -4.02484    9    diag,B
  106      0.241D-02      0.167D-03       -55.33179685    104.725608    0.00000    0.00000   -3.77149    9    diag,B
  107      0.252D-02      0.156D-03       -55.33214738    104.651491    0.00000    0.00000   -3.67661    9    diag,B
  108      0.610D-03      0.153D-03       -55.33083591    104.883498    0.00000    0.00000   -4.02455    9    orth
  109      0.240D-02      0.166D-03       -55.33179877    104.725074    0.00000    0.00000   -3.77063    9    diag,B
  110      0.254D-02      0.157D-03       -55.33214673    104.651468    0.00000    0.00000   -3.67647    9    diag,B
  111      0.635D-03      0.153D-03       -55.33083935    104.883266    0.00000    0.00000   -4.02430    9    diag,B
  112      0.239D-02      0.166D-03       -55.33180003    104.724715    0.00000    0.00000   -3.77004    9    diag,B
  113      0.256D-02      0.157D-03       -55.33214616    104.651455    0.00000    0.00000   -3.67635    9    diag,B
  114      0.657D-03      0.154D-03       -55.33084202    104.883071    0.00000    0.00000   -4.02410    9    diag,B
  115      0.238D-02      0.165D-03       -55.33180081    104.724484    0.00000    0.00000   -3.76964    9    diag,B
  116      0.257D-02      0.158D-03       -55.33214562    104.651462    0.00000    0.00000   -3.67627    9    diag,B
  117      0.676D-03      0.154D-03       -55.33084401    104.882913    0.00000    0.00000   -4.02394    9    diag,B
  118      0.237D-02      0.165D-03       -55.33180125    104.724348    0.00000    0.00000   -3.76941    9    orth
  119      0.258D-02      0.158D-03       -55.33214510    104.651488    0.00000    0.00000   -3.67622    9    diag,B
  120      0.692D-03      0.154D-03       -55.33084539    104.882791    0.00000    0.00000   -4.02384    9    diag,B
  121      0.237D-02      0.164D-03       -55.33180146    104.724280    0.00000    0.00000   -3.76928    9    diag,B
  122      0.260D-02      0.158D-03       -55.33214456    104.651537    0.00000    0.00000   -3.67622    9    diag,B
  123      0.705D-03      0.154D-03       -55.33084629    104.882699    0.00000    0.00000   -4.02377    9    diag,B
  124      0.236D-02      0.164D-03       -55.33180152    104.724259    0.00000    0.00000   -3.76923    9    diag,B
  125      0.260D-02      0.158D-03       -55.33214405    104.651599    0.00000    0.00000   -3.67624    9    diag,B
  126      0.715D-03      0.154D-03       -55.33084680    104.882635    0.00000    0.00000   -4.02373    9    diag,B
  127      0.236D-02      0.164D-03       -55.33180148    104.724269    0.00000    0.00000   -3.76924    9    diag,B
  128      0.261D-02      0.158D-03       -55.33214354    104.651674    0.00000    0.00000   -3.67629    9    orth
  129      0.723D-03      0.155D-03       -55.33084699    104.882593    0.00000    0.00000   -4.02372    9    diag,B
  130      0.236D-02      0.164D-03       -55.33180138    104.724298    0.00000    0.00000   -3.76929    9    diag,B
  131      0.262D-02      0.158D-03       -55.33214306    104.651756    0.00000    0.00000   -3.67636    9    diag,B
  132      0.729D-03      0.155D-03       -55.33084696    104.882570    0.00000    0.00000   -4.02374    9    diag,B
  133      0.236D-02      0.164D-03       -55.33180125    104.724338    0.00000    0.00000   -3.76935    9    diag,B
  134      0.262D-02      0.158D-03       -55.33214262    104.651838    0.00000    0.00000   -3.67643    9    diag,B
  135      0.734D-03      0.155D-03       -55.33084676    104.882560    0.00000    0.00000   -4.02376    9    diag,B
  136      0.236D-02      0.164D-03       -55.33180112    104.724382    0.00000    0.00000   -3.76942    9    diag,B
  137      0.263D-02      0.158D-03       -55.33214221    104.651921    0.00000    0.00000   -3.67652    9    diag,B
  138      0.737D-03      0.155D-03       -55.33084646    104.882561    0.00000    0.00000   -4.02380    9    orth
  139      0.236D-02      0.164D-03       -55.33180098    104.724426    0.00000    0.00000   -3.76950    9    diag,B
  140      0.263D-02      0.158D-03       -55.33214185    104.651998    0.00000    0.00000   -3.67660    9    diag,B
  141      0.739D-03      0.155D-03       -55.33084609    104.882569    0.00000    0.00000   -4.02384    9    diag,B
  142      0.236D-02      0.164D-03       -55.33180086    104.724467    0.00000    0.00000   -3.76957    9    diag,B
  143      0.263D-02      0.158D-03       -55.33214153    104.652070    0.00000    0.00000   -3.67668    9    diag,B
  144      0.740D-03      0.155D-03       -55.33084570    104.882582    0.00000    0.00000   -4.02388    9    diag,B
  145      0.236D-02      0.164D-03       -55.33180076    104.724503    0.00000    0.00000   -3.76964    9    diag,B
  146      0.263D-02      0.158D-03       -55.33214126    104.652134    0.00000    0.00000   -3.67675    9    diag,B
  147      0.741D-03      0.155D-03       -55.33084531    104.882598    0.00000    0.00000   -4.02393    9    diag,B
  148      0.236D-02      0.164D-03       -55.33180068    104.724533    0.00000    0.00000   -3.76970    9    orth
  149      0.263D-02      0.158D-03       -55.33214103    104.652192    0.00000    0.00000   -3.67682    9    diag,B
  150      0.741D-03      0.155D-03       -55.33084494    104.882614    0.00000    0.00000   -4.02397    9    diag,B
  151      0.236D-02      0.164D-03       -55.33180063    104.724556    0.00000    0.00000   -3.76975    9    diag,B
  152      0.263D-02      0.158D-03       -55.33214084    104.652241    0.00000    0.00000   -3.67688    9    diag,B
  153      0.741D-03      0.155D-03       -55.33084460    104.882630    0.00000    0.00000   -4.02401    9    diag,B
  154      0.236D-02      0.164D-03       -55.33180060    104.724572    0.00000    0.00000   -3.76978    9    diag,B
  155      0.263D-02      0.158D-03       -55.33214068    104.652283    0.00000    0.00000   -3.67693    9    diag,B
  156      0.740D-03      0.155D-03       -55.33084431    104.882644    0.00000    0.00000   -4.02404    9    diag,B
  157      0.236D-02      0.164D-03       -55.33180058    104.724582    0.00000    0.00000   -3.76981    9    diag,B
  158      0.263D-02      0.158D-03       -55.33214054    104.652318    0.00000    0.00000   -3.67697    9    orth
  159      0.740D-03      0.155D-03       -55.33084408    104.882656    0.00000    0.00000   -4.02406    9    diag,B
  160      0.236D-02      0.165D-03       -55.33180059    104.724586    0.00000    0.00000   -3.76982    9    diag,B
  161      0.263D-02      0.158D-03       -55.33214044    104.652348    0.00000    0.00000   -3.67701    9    diag,B
  162      0.739D-03      0.155D-03       -55.33084391    104.882664    0.00000    0.00000   -4.02408    9    diag,B
  163      0.236D-02      0.165D-03       -55.33180061    104.724586    0.00000    0.00000   -3.76983    9    diag,B
  164      0.263D-02      0.158D-03       -55.33214036    104.652367    0.00000    0.00000   -3.67703    9    diag,B
  165      0.738D-03      0.155D-03       -55.33084382    104.882668    0.00000    0.00000   -4.02409    9    diag,B
  166      0.236D-02      0.165D-03       -55.33180062    104.724584    0.00000    0.00000   -3.76983    9    diag,B
  167      0.263D-02      0.158D-03       -55.33214031    104.652381    0.00000    0.00000   -3.67704    9    diag,B
  168      0.738D-03      0.155D-03       -55.33084380    104.882667    0.00000    0.00000   -4.02409    9    orth
  169      0.236D-02      0.165D-03       -55.33180062    104.724582    0.00000    0.00000   -3.76983    9    diag,B
  170      0.263D-02      0.158D-03       -55.33214029    104.652385    0.00000    0.00000   -3.67705    9    diag,B
  171      0.738D-03      0.155D-03       -55.33084387    104.882659    0.00000    0.00000   -4.02408    9    diag,B
  172      0.236D-02      0.165D-03       -55.33180060    104.724585    0.00000    0.00000   -3.76983    9    diag,B
  173      0.263D-02      0.158D-03       -55.33214032    104.652378    0.00000    0.00000   -3.67703    9    diag,B
  174      0.738D-03      0.155D-03       -55.33084403    104.882645    0.00000    0.00000   -4.02405    9    diag,B
  175      0.236D-02      0.165D-03       -55.33180050    104.724601    0.00000    0.00000   -3.76985    9    diag,B
  176      0.263D-02      0.158D-03       -55.33214040    104.652358    0.00000    0.00000   -3.67701    9    diag,B
  177      0.738D-03      0.155D-03       -55.33084428    104.882623    0.00000    0.00000   -4.02402    9    diag,B
  178      0.236D-02      0.164D-03       -55.33180031    104.724637    0.00000    0.00000   -3.76990    9    orth
  179      0.263D-02      0.158D-03       -55.33214055    104.652322    0.00000    0.00000   -3.67696    9    diag,B
  180      0.739D-03      0.155D-03       -55.33084460    104.882594    0.00000    0.00000   -4.02397    9    diag,B
  181      0.236D-02      0.164D-03       -55.33179996    104.724704    0.00000    0.00000   -3.76998    9    diag,B
  182      0.264D-02      0.158D-03       -55.33214078    104.652266    0.00000    0.00000   -3.67688    9    diag,B
  183      0.741D-03      0.155D-03       -55.33084496    104.882561    0.00000    0.00000   -4.02390    9    diag,B
  184      0.236D-02      0.164D-03       -55.33179938    104.724819    0.00000    0.00000   -3.77013    9    diag,B
  185      0.264D-02      0.158D-03       -55.33214110    104.652191    0.00000    0.00000   -3.67678    9    diag,B
  186      0.742D-03      0.155D-03       -55.33084528    104.882526    0.00000    0.00000   -4.02384    9    diag,B
  187      0.236D-02      0.164D-03       -55.33179849    104.725003    0.00000    0.00000   -3.77038    9    diag,B
  188      0.264D-02      0.158D-03       -55.33214150    104.652097    0.00000    0.00000   -3.67666    9    orth
  189      0.744D-03      0.155D-03       -55.33084542    104.882500    0.00000    0.00000   -4.02377    9    diag,B
  190      0.236D-02      0.164D-03       -55.33179718    104.725278    0.00000    0.00000   -3.77076    9    diag,B
  191      0.263D-02      0.158D-03       -55.33214198    104.651992    0.00000    0.00000   -3.67653    9    diag,B
  192      0.746D-03      0.155D-03       -55.33084517    104.882495    0.00000    0.00000   -4.02374    9    diag,B
  193      0.236D-02      0.164D-03       -55.33179534    104.725671    0.00000    0.00000   -3.77132    9    diag,B
  194      0.262D-02      0.158D-03       -55.33214245    104.651891    0.00000    0.00000   -3.67642    9    diag,B
  195      0.747D-03      0.155D-03       -55.33084416    104.882536    0.00000    0.00000   -4.02376    9    diag,B
  196      0.235D-02      0.164D-03       -55.33179288    104.726207    0.00000    0.00000   -3.77211    9    diag,B
  197      0.261D-02      0.158D-03       -55.33214279    104.651829    0.00000    0.00000   -3.67637    9    diag,B
  198      0.745D-03      0.154D-03       -55.33084191    104.882656    0.00000    0.00000   -4.02390    9    orth
  199      0.234D-02      0.165D-03       -55.33177622    104.736652    0.00000    0.00000   -3.78201    9    orth
  200      0.256D-02      0.143D-03       -55.33187576    104.752388    0.00000    0.00000   -3.78556    0    orth

 Final alpha occupancy:   5   2   2   0
 Final beta  occupancy:   4   2   2   0

 !RHF STATE 1.1 Energy                -55.331875763005
   --><property name="Energy" method="RHF" principal="true" stateSymmetry="1" stateNumber="1"
     value="-55.3318757630046"/><!--
 Nuclear energy                        15.18508518
 One-electron energy                 -122.89315501
 Two-electron energy                   52.37619406
 Virial quotient                       -2.20133478
 !RHF STATE 1.1 Dipole moment           0.00000000     0.00000000    -3.78555886
 Dipole moment /Debye                   0.00000000     0.00000000    -9.62130068
   --><property name="Dipole moment" method="RHF" principal="true" stateSymmetry="1"
     stateNumber="1" value="0.0 0.0 -3.7855588556498"/><!--

 ELECTRON ORBITALS
 =================


   Orb  Occ    Energy  Couls-En    Coefficients

                                   1 1s      1 1s      1 1s      1 1s      1 1s      1 1s      1 1s      1 1s      1 1s      1 1s
                                   1 1s      1 1s      1 1s      1 1s      1 1s      1 1s      1 1s      1 1s      1 1s      1 1s
                                   1 1s      1 1s      1 1s      1 1s      1 1s      1 1s      1 1s      1 1s      1 1s      1 1s
                                   1 1s      1 1s      1 1s      1 1s      1 1s      1 1s      1 1s      1 1s      1 2pz     1 2pz
                                   1 2pz     1 2pz     1 2pz     1 2pz     1 2pz     1 2pz     1 2pz     1 2pz     1 2pz     1 2pz
                                   1 2pz     1 2pz     1 2pz     1 2pz     1 2pz     1 2pz     1 2pz     1 2pz     1 2pz     1 2pz
                                   1 2pz     1 2pz     1 2pz     1 2pz     1 2pz     1 2pz     1 2pz     1 2pz     1 2pz     1 3d0
                                   1 3d2+    1 3d0     1 3d2+    1 3d0     1 3d2+    1 3d0     1 3d2+    1 3d0     1 3d2+    1 3d0
                                   1 3d2+    1 3d0     1 3d2+    1 3d0     1 3d2+    1 3d0     1 3d2+    1 3d0     1 3d2+    1 3d0
                                   1 3d2+    1 3d0     1 3d2+    1 3d0     1 3d2+    1 3d0     1 3d2+    1 3d0     1 3d2+    1 3d0
                                   1 3d2+    1 3d0     1 3d2+    1 3d0     1 3d2+    1 3d0     1 3d2+    1 3d0     1 3d2+    1 3d0
                                   1 3d2+    1 3d0     1 3d2+    1 4f0     1 4f2+    1 4f0     1 4f2+    1 4f0     1 4f2+    1 4f0
                                   1 4f2+    1 4f0     1 4f2+    1 4f0     1 4f2+    1 4f0     1 4f2+    1 4f0     1 4f2+    1 4f0
                                   1 4f2+    1 4f0     1 4f2+    1 4f0     1 4f2+    1 4f0     1 4f2+    1 4f0     1 4f2+    1 4f0
[...]
                                -0.000023  0.000067 -0.000203  0.000722 -0.002001 -0.048678  0.193845 -0.229017  0.070122 -0.203434
                                 0.163335  0.519826 -0.003753  0.429337  0.241127  0.089641 -0.009169 -0.239099  0.005380 -0.002301
                                 0.000510  0.000000 -0.000000  0.000000 -0.000000  0.000001 -0.000004  0.000012 -0.000039  0.000175
                                -0.000358  0.000286 -0.000716 -0.000138 -0.003521 -0.012629 -0.006128  0.005849 -0.008316  0.003795
                                -0.000729  0.000261 -0.000069  0.000000  0.000000 -0.000000 -0.000000  0.000002  0.000000 -0.000008
                                -0.000000  0.000027  0.000000  0.000190  0.000000 -0.000666 -0.000002 -0.002864 -0.000010 -0.002535
                                -0.000007 -0.004296 -0.000023 -0.004119 -0.000011 -0.000495  0.000010 -0.000112 -0.000004 -0.000024
                                 0.000003 -0.000009 -0.000001 -0.000007  0.000000  0.000023 -0.000000 -0.000137 -0.000000 -0.001290
                                 0.000005  0.001162 -0.000005 -0.000535  0.000002  0.000125 -0.000001  0.000003 -0.000000 -0.000000
                                -0.000136  0.000001 -0.000000  0.000081  0.000000  0.000000  0.000107  0.000924  0.002822  0.004639
                                 0.003716  0.000558  0.000024 -0.000029 -0.000164 -0.001070 -0.000882 -0.000021  0.000099  0.000000
                                 0.000574 -0.000000

   2.2   2    -0.3310   -6.6591  0.000000 -0.000000  0.000000 -0.000000  0.000000 -0.000000  0.000000 -0.000000  0.000000 -0.000000
                                 0.000001 -0.000003  0.000011 -0.000039  0.000106  0.003012 -0.011935  0.014535 -0.005216  0.013054
                                -0.011034 -0.031968 -0.004825 -0.033661  0.014604  0.018114  0.044355 -0.018855  0.003323 -0.001537
                                 0.000356  0.000000 -0.000000  0.000001 -0.000002  0.000008 -0.000026  0.000080 -0.000256  0.001521
                                -0.004644  0.004969  0.002920  0.010588  0.043489  0.077327  0.082871 -0.060931  0.145577 -0.089260
                                 0.020195 -0.007484  0.002060  0.000000 -0.000000 -0.000002  0.000000  0.000008 -0.000000 -0.000035
                                 0.000000  0.000441 -0.000000 -0.001681  0.000000  0.003266  0.000000  0.009522  0.000002  0.010585
                                 0.000001  0.007221  0.000003  0.017619 -0.000001  0.005579 -0.000014  0.009736 -0.000001 -0.006140
                                -0.000003  0.000820  0.000001  0.000005 -0.000000 -0.000011  0.000000  0.000383 -0.000001  0.012451
                                -0.000017 -0.012517  0.000005  0.005144 -0.000012 -0.001315  0.000001  0.000060 -0.000000  0.000000
                                -0.000470  0.000000  0.000000  0.001899 -0.000001 -0.000000  0.009258  0.079515  0.262012  0.409188
                                 0.359143  0.092814  0.005262 -0.002435 -0.002496 -0.009866 -0.022665 -0.000250  0.001153 -0.000002
                                 0.005373 -0.000003

   3.2   0    -0.0075   -2.5572  0.000000 -0.000000  0.000000 -0.000000  0.000000 -0.000000  0.000000 -0.000000  0.000001 -0.000003
                                 0.000007 -0.000021  0.000060 -0.000199  0.000640  0.004700 -0.023365  0.025443  0.000519  0.024584
                                -0.022243 -0.105641  0.027806 -0.122055  0.288430  0.042886  0.257623  0.025044  0.255910  0.106010
                                 0.129569 -0.000000  0.000000 -0.000000  0.000002 -0.000006  0.000018 -0.000054  0.000175 -0.001174
                                 0.003997 -0.004531 -0.004286 -0.011846 -0.054095 -0.084139 -0.110168 -0.091420 -0.030537 -0.087946
                                -0.127504 -0.063844 -0.065639 -0.000000  0.000000  0.000000 -0.000000 -0.000000  0.000000  0.000001
                                -0.000000  0.000006  0.000001 -0.000087 -0.000004  0.000235  0.000010  0.000885  0.000034  0.000789
                                 0.000034  0.001043  0.000033  0.001721  0.000052 -0.003311  0.000046  0.004500 -0.000032 -0.003751
                                -0.000013  0.024780 -0.000053  0.000008  0.000000 -0.000035 -0.000000  0.000301  0.000000  0.004873
                                -0.000003 -0.001770  0.000005  0.003767 -0.000000  0.001807  0.000028 -0.000002 -0.000000 -0.000000
                                -0.000003  0.000000 -0.000000  0.000131 -0.000001  0.000000 -0.000024 -0.000226 -0.000429 -0.001078
                                 0.001896  0.009113  0.000044  0.000007  0.000139  0.001148 -0.001099  0.000019 -0.000133  0.000000
                                -0.000463 -0.000000

   4.2   0     0.0051   -0.8584 -0.000000  0.000000 -0.000000  0.000000 -0.000000  0.000000 -0.000000  0.000000 -0.000001  0.000003
                                -0.000009  0.000025 -0.000067  0.000195 -0.000740  0.009520 -0.027079  0.039697 -0.035274  0.030904
                                -0.022083  0.007747 -0.069370  0.017603-13.678053 -0.031866  0.230070 14.212144 -1.280313  1.958192
                                -1.884632 -0.000000  0.000000 -0.000000  0.000001 -0.000004  0.000014 -0.000043  0.000138 -0.000799
                                 0.002380 -0.002516 -0.001214 -0.005106 -0.019993 -0.035254 -0.026198 -0.237826  0.464675 -0.453985
                                 0.260063 -0.431658  0.617415 -0.000000  0.000000  0.000000 -0.000000 -0.000001  0.000000  0.000004
                                -0.000000 -0.000028  0.000000  0.000009 -0.000002  0.000081  0.000004  0.000533  0.000012  0.000374
                                 0.000012  0.000677  0.000011  0.000429  0.000019  0.003167  0.000011 -0.007280 -0.000001  0.014265
                                -0.000021 -0.016005  0.000022  0.000003  0.000000 -0.000013 -0.000000  0.000113  0.000000  0.001903
                                 0.000000 -0.000369 -0.000000  0.001361  0.000004 -0.000177  0.000003  0.000002 -0.000000 -0.000000
                                -0.000025  0.000000 -0.000000  0.000109 -0.000000  0.000000  0.000030  0.000252  0.000890  0.001332
                                 0.001706  0.006313  0.000027 -0.000008  0.000053  0.000394  0.000242  0.000007 -0.000004  0.000000
                                -0.000332 -0.000000

                                   1 2py     1 2py     1 2py     1 2py     1 2py     1 2py     1 2py     1 2py     1 2py     1 2py
                                   1 2py     1 2py     1 2py     1 2py     1 2py     1 2py     1 2py     1 2py     1 2py     1 2py
                                   1 2py     1 2py     1 2py     1 2py     1 2py     1 2py     1 2py     1 2py     1 2py     1 2py
                                   1 2py     1 3d1-    1 3d1-    1 3d1-    1 3d1-    1 3d1-    1 3d1-    1 3d1-    1 3d1-    1 3d1-
                                   1 3d1-    1 3d1-    1 3d1-    1 3d1-    1 3d1-    1 3d1-    1 3d1-    1 3d1-    1 3d1-    1 3d1-
                                   1 3d1-    1 3d1-    1 3d1-    1 4f1-    1 4f3-    1 4f1-    1 4f3-    1 4f1-    1 4f3-    1 4f1-
                                   1 4f3-    1 4f1-    1 4f3-    1 4f1-    1 4f3-    1 4f1-    1 4f3-    1 4f1-    1 4f3-    1 4f1-
                                   1 4f3-    1 4f1-    1 4f3-    1 4f1-    1 4f3-    1 4f1-    1 4f3-    1 4f1-    1 4f3-    1 4f1-
                                   1 4f3-    1 4f1-    1 4f3-    1 5g1-    1 5g3-    1 5g1-    1 5g3-    1 5g1-    1 5g3-    1 5g1-
                                   1 5g3-    1 5g1-    1 5g3-    1 5g1-    1 5g3-    1 5g1-    1 5g3-    1 6h1-    1 6h3-    1 6h5-
                                   1 6h1-    1 6h3-    1 6h5-    1 6h1-    1 6h3-    1 6h5-    2 2py     2 2py     2 2py     2 2py
                                   2 2py     2 2py     2 2py     2 2py     2 3d1-    2 3d1-    2 3d1-    2 3d1-    2 4f1-    2 4f3-
                                   2 4f1-    2 4f3-

   1.3   2    -1.3460   -9.1263 -0.000000  0.000000 -0.000000  0.000000 -0.000000  0.000000 -0.000000  0.000001 -0.000002  0.000008
                                -0.000023  0.000067 -0.000203  0.000722 -0.002002 -0.048678  0.193849 -0.229020  0.070117 -0.203435
                                 0.163335  0.519844 -0.003723  0.429363  0.241386  0.089555 -0.009211 -0.239356  0.005386 -0.002304
                                 0.000511  0.000000 -0.000000  0.000000 -0.000000  0.000001 -0.000004  0.000012 -0.000039  0.000176
                                -0.000360  0.000288 -0.000718 -0.000139 -0.003541 -0.012643 -0.006097  0.005818 -0.008264  0.003768
                                -0.000724  0.000258 -0.000069  0.000000  0.000000 -0.000000 -0.000000  0.000002  0.000000 -0.000008
                                -0.000000  0.000027  0.000000  0.000188  0.000000 -0.000661 -0.000002 -0.002849 -0.000010 -0.002519
                                -0.000007 -0.004288 -0.000023 -0.004098 -0.000011 -0.000479  0.000010 -0.000118 -0.000004 -0.000021
                                 0.000003 -0.000010 -0.000001 -0.000007  0.000000  0.000023 -0.000000 -0.000137 -0.000000 -0.001284
                                 0.000005  0.001156 -0.000005 -0.000534  0.000002  0.000124 -0.000001  0.000003 -0.000000 -0.000000
                                -0.000136  0.000001 -0.000000  0.000081  0.000000  0.000000  0.000107  0.000925  0.002825  0.004645
                                 0.003719  0.000559  0.000024 -0.000029 -0.000164 -0.001073 -0.000884 -0.000021  0.000099  0.000000
                                 0.000575 -0.000000

   2.3   2    -0.3309   -6.6584  0.000000 -0.000000  0.000000 -0.000000  0.000000 -0.000000  0.000000 -0.000000  0.000000 -0.000000
                                 0.000001 -0.000003  0.000011 -0.000039  0.000106  0.003012 -0.011938  0.014536 -0.005207  0.013057
                                -0.011037 -0.032013 -0.004796 -0.033727  0.014361  0.018157  0.044505 -0.018575  0.003312 -0.001532
                                 0.000354  0.000000 -0.000000  0.000001 -0.000002  0.000008 -0.000026  0.000080 -0.000257  0.001524
                                -0.004655  0.004981  0.002930  0.010619  0.043625  0.077556  0.083115 -0.060923  0.145713 -0.089315
                                 0.020215 -0.007492  0.002062  0.000000 -0.000000 -0.000002  0.000000  0.000008 -0.000000 -0.000035
                                 0.000000  0.000441 -0.000000 -0.001682  0.000000  0.003270  0.000000  0.009533  0.000002  0.010595
                                 0.000001  0.007231  0.000003  0.017631 -0.000001  0.005603 -0.000014  0.009742 -0.000001 -0.006136
                                -0.000003  0.000820  0.000001  0.000005 -0.000000 -0.000011  0.000000  0.000382 -0.000001  0.012438
                                -0.000017 -0.012508  0.000005  0.005142 -0.000012 -0.001314  0.000001  0.000060 -0.000000  0.000000
                                -0.000470  0.000000  0.000000  0.001898 -0.000001 -0.000000  0.009254  0.079485  0.261913  0.409049
                                 0.359056  0.092818  0.005260 -0.002434 -0.002498 -0.009876 -0.022672 -0.000250  0.001152 -0.000002
                                 0.005374 -0.000003

   3.3   0    -0.0074   -2.5536  0.000000 -0.000000  0.000000 -0.000000  0.000000 -0.000000  0.000000 -0.000000  0.000001 -0.000003
                                 0.000007 -0.000021  0.000060 -0.000199  0.000638  0.004687 -0.023297  0.025369  0.000519  0.024511
                                -0.022178 -0.105335  0.027744 -0.121724  0.292810  0.042627  0.256755  0.020119  0.256537  0.105907
                                 0.130850 -0.000000  0.000000 -0.000000  0.000002 -0.000005  0.000018 -0.000054  0.000175 -0.001172
                                 0.003993 -0.004526 -0.004284 -0.011836 -0.054059 -0.084081 -0.110004 -0.091074 -0.030854 -0.087628
                                -0.127762 -0.063907 -0.066218 -0.000000  0.000000  0.000000 -0.000000 -0.000000  0.000000  0.000001
                                -0.000000  0.000007  0.000001 -0.000091 -0.000004  0.000243  0.000010  0.000911  0.000034  0.000816
                                 0.000034  0.001067  0.000032  0.001773  0.000051 -0.003245  0.000046  0.004515 -0.000032 -0.003774
                                -0.000013  0.024847 -0.000053  0.000008  0.000000 -0.000035 -0.000000  0.000299  0.000000  0.004853
                                -0.000003 -0.001755  0.000005  0.003757 -0.000000  0.001830  0.000028 -0.000002 -0.000000 -0.000000
                                -0.000003  0.000000 -0.000000  0.000130 -0.000001  0.000000 -0.000023 -0.000215 -0.000394 -0.001022
                                 0.001933  0.009116  0.000045  0.000007  0.000139  0.001146 -0.001098  0.000019 -0.000133  0.000000
                                -0.000461 -0.000000

   4.3   0     0.0051   -0.8594 -0.000000  0.000000 -0.000000  0.000000 -0.000000  0.000000 -0.000000  0.000000 -0.000001  0.000003
                                -0.000009  0.000025 -0.000067  0.000195 -0.000740  0.009529 -0.027107  0.039734 -0.035300  0.030935
                                -0.022106  0.007723 -0.069410  0.017575-13.687555 -0.031927  0.230285 14.222266 -1.280870  1.959955
                                -1.885266 -0.000000  0.000000 -0.000000  0.000001 -0.000004  0.000014 -0.000043  0.000138 -0.000800
                                 0.002386 -0.002522 -0.001220 -0.005122 -0.020068 -0.035373 -0.026311 -0.237958  0.464759 -0.454238
                                 0.259941 -0.432044  0.617370 -0.000000  0.000000  0.000000 -0.000000 -0.000001  0.000000  0.000004
                                -0.000000 -0.000027  0.000000  0.000008 -0.000002  0.000085  0.000004  0.000544  0.000012  0.000385
                                 0.000012  0.000687  0.000011  0.000451  0.000019  0.003185  0.000011 -0.007266 -0.000001  0.014237
                                -0.000021 -0.015914  0.000022  0.000003  0.000000 -0.000013 -0.000000  0.000113  0.000000  0.001904
                                 0.000000 -0.000368 -0.000000  0.001366  0.000004 -0.000175  0.000003  0.000002 -0.000000 -0.000000
                                -0.000025  0.000000 -0.000000  0.000109 -0.000000  0.000000  0.000030  0.000257  0.000904  0.001354
                                 0.001725  0.006350  0.000027 -0.000008  0.000053  0.000395  0.000240  0.000007 -0.000004  0.000000
                                -0.000332 -0.000000

                                   1 3d2-    1 3d2-    1 3d2-    1 3d2-    1 3d2-    1 3d2-    1 3d2-    1 3d2-    1 3d2-    1 3d2-
                                   1 3d2-    1 3d2-    1 3d2-    1 3d2-    1 3d2-    1 3d2-    1 3d2-    1 3d2-    1 3d2-    1 3d2-
                                   1 3d2-    1 3d2-    1 4f2-    1 4f2-    1 4f2-    1 4f2-    1 4f2-    1 4f2-    1 4f2-    1 4f2-
                                   1 4f2-    1 4f2-    1 4f2-    1 4f2-    1 4f2-    1 4f2-    1 4f2-    1 5g2-    1 5g4-    1 5g2-
                                   1 5g4-    1 5g2-    1 5g4-    1 5g2-    1 5g4-    1 5g2-    1 5g4-    1 5g2-    1 5g4-    1 5g2-
                                   1 5g4-    1 6h4-    1 6h2-    1 6h4-    1 6h2-    1 6h4-    1 6h2-    2 3d2-    2 3d2-    2 3d2-
                                   2 3d2-    2 4f2-    2 4f2-

   1.4   0     0.0105   -0.7815 -0.000000  0.000000 -0.000000  0.000001 -0.000004  0.000014 -0.000042  0.000131 -0.000567  0.001082
                                -0.000769  0.002185  0.001683  0.015838  0.016025  0.064908 -0.526978  1.259973 -1.091975  0.830856
                                -1.123613  1.580961 -0.000000  0.000001 -0.000004  0.000019 -0.000164  0.000356 -0.000412 -0.000383
                                -0.000953  0.000243 -0.002997  0.006112 -0.027613  0.043176 -0.089181 -0.000001 -0.000000  0.000006
                                 0.000000 -0.000054 -0.000000 -0.000911  0.000001  0.000389 -0.000004 -0.001139  0.000004 -0.000121
                                -0.000017 -0.000000  0.000000 -0.000000  0.000001  0.000000 -0.000013  0.000055  0.000113  0.000590
                                 0.000002 -0.000032  0.000046

   2.4   0     0.0246   -2.3940  0.000000 -0.000000  0.000001 -0.000006  0.000020 -0.000065  0.000197 -0.000629  0.003730 -0.011384
                                 0.012197  0.007026  0.026181  0.106135  0.191122  0.151993  0.750831 -1.546952  1.532453 -0.984450
                                 1.935691 -1.130036 -0.000000  0.000002 -0.000009  0.000039 -0.000399  0.001151 -0.001856 -0.004293
                                -0.005417 -0.002376 -0.012412 -0.010828 -0.056503  0.041233 -0.206749 -0.000011 -0.000000  0.000046
                                 0.000000 -0.000436 -0.000000 -0.007061 -0.000003  0.002985 -0.000014 -0.008338  0.000000  0.001917
                                -0.000063 -0.000000  0.000002 -0.000000  0.000016  0.000001 -0.000127  0.000322  0.001195  0.002142
                                 0.000023 -0.000141 -0.000284

 HOMO      5.1    -0.286666 =      -7.8006eV
 LUMO      3.2    -0.007461 =      -0.2030eV
 LUMO-HOMO         0.279205 =       7.5976eV

 No convergence



 **********************************************************************************************************************************
 DATASETS  * FILE   NREC   LENGTH (MB)   RECORD NAMES
              1      19       23.22       500      610      700      900      950      970     1000      129      960     1100
                                          VAR    BASINP    GEOM    SYMINP    ZMAT    AOBASIS   BASIS     P2S    ABASIS      S
                                         1400     1410     1420     1200     1210     1080     1600     1650     1700
                                           T        V       ECP      H0       H01     AOSYM     SMH    MOLCAS    OPER

              2       5       10.56       700     1000      520     2202     3202
                                         GEOM     BASIS   MCVARS     RHF      RHF

 PROGRAMS   *        TOTAL       RHF       RHF       INT
 CPU TIMES  *       384.40    178.46     15.06    190.63
 REAL TIME  *       418.10 SEC
 DISK USED  *        15.69 GB
 SF USED    *         0.31 MB
 GA USED    *         0.00 MB       (max)       0.00 MB       (current)
 **********************************************************************************************************************************
   -->
   <time start="16:52:32" end="16:55:42" cpu="178.47" system="10.36" real="189.36"/>
   <storage units="megabyte" memory="8001.84" sf="0.31" df="494.39" eaf="15196.77" ga="0.0"/>
  </jobstep><!--
 SETTING SCF            =       -55.33187576  AU
 SETTING _CC_NORM_MAX   =         2.00000000
  --><jobstep command="RCCSD(T)" commandset="CCSD">
   <!--


 PROGRAM * CCSD (Restricted open-shell coupled cluster)     Authors: C. Hampel, H.-J. Werner, 1991, M. Deegan, P.J. Knowles, 1992


 Convergence thresholds:  THRVAR = 1.00D-08  THRDEN = 1.00D-06

 CCSD(T)     terms to be evaluated (factor= 1.000)


 Number of closed-shell orbitals:   8 (   4   2   2   0 )
 Number of active  orbitals:        1 (   1   0   0   0 )
 Number of external orbitals:     504 ( 201 120 120  63 )

 Memory could be reduced to 526.11 Mwords without degradation in triples

 Number of N-1 electron functions:              17
 Number of N-2 electron functions:             136
 Number of singly external CSFs:              2778
 Number of doubly external CSFs:           6876148
 Total number of CSFs:                     6878926

 Molecular orbitals read from record     3202.2  Type=RHF/CANONICAL (state 1.1)

 ?Error: RHF not converged. This error exit can be avoided using the IGNORE_ERROR option on the ORBITAL directive
   --><error/><!--
  --></jobstep><!--
  -->
  <input>
  <!--
 --></job><!--
--></molpro>
