<?xml version="1.0"?>
<molpro xmlns="http://www.molpro.net/schema/molpro-output"
  xmlns:xsd="http://www.w3.org/1999/XMLSchema"
  xmlns:cml="http://www.xml-cml.org/schema"
  xmlns:stm="http://www.xml-cml.org/schema"
  xmlns:xhtml="http://www.w3.org/1999/xhtml">
 <!--

 Nodes     nprocs
 nid00923    11
 Number of processes for MPI-2 version of Molpro:   nprocs(total)=   12   nprocs(compute)=   11   nprocs(helper)=    1

 Using customized tuning parameters: mindgm=7; mindgv=16; mindgc=1; mindgr=1; noblas=0; minvec=7
 default implementation of scratch files=sf

 --><job>
  <!--

 Variables initialized (889), CPU time= 0.03 sec
 Commands  initialized (702), CPU time= 0.01 sec, 572 directives.
 Default parameters read. Elapsed time= 0.11 sec

 Checking input...
 Passed
1


                                         ***  PROGRAM SYSTEM MOLPRO  ***
                                       Copyright, TTI GmbH Stuttgart, 2015
                                    Version 2015.1 linked Dec 29 2018 15:55:43


 **********************************************************************************************************************************
 LABEL *   Calculation for Re atom, singlet and triplet
  64 bit mpp version                                                                     DATE: 11-Nov-22          TIME: 07:21:30
 **********************************************************************************************************************************

 SHA1:             19cd028119e0e09f93f0674bd8af7968d9b3eff6
 **********************************************************************************************************************************
  -->
  <!--

 THRESHOLDS:

 ZERO    =  1.00D-12  ONEINT  =  1.00D-12  TWOINT  =  1.00D-15  PREFAC  =  1.00D-14  LOCALI  =  1.00D-09  EORDER  =  1.00D-04
 ENERGY  =  0.00D+00  ETEST   =  0.00D+00  EDENS   =  0.00D+00  THRDEDEF=  1.00D-06  GRADIENT=  1.00D-02  STEP    =  1.00D-03
 ORBITAL =  1.00D-05  CIVEC   =  1.00D-05  COEFF   =  1.00D-04  PRINTCI =  5.00D-02  PUNCHCI =  9.90D+01  OPTGRAD =  3.00D-04
 OPTENERG=  1.00D-06  OPTSTEP =  3.00D-04  THRGRAD =  1.00D-10  COMPRESS=  1.00D-11  VARMIN  =  1.00D-07  VARMAX  =  1.00D-03
 THRDOUB =  0.00D+00  THRDIV  =  1.00D-05  THRRED  =  1.00D-07  THRPSP  =  1.00D+00  THRDC   =  1.00D-10  THRCS   =  1.00D-10
 THRNRM  =  1.00D-08  THREQ   =  0.00D+00  THRDE   =  1.00D+00  THRREF  =  1.00D-05  SPARFAC =  1.00D+00  THRDLP  =  1.00D-07
 THRDIA  =  1.00D-10  THRDLS  =  1.00D-07  THRGPS  =  0.00D+00  THRKEX  =  0.00D+00  THRDIS  =  2.00D-01  THRVAR  =  1.00D-10
 THRLOC  =  1.00D-06  THRGAP  =  1.00D-06  THRLOCT = -1.00D+00  THRGAPT = -1.00D+00  THRORB  =  1.00D-06  THRMLTP =  0.00D+00
 THRCPQCI=  1.00D-10  KEXTA   =  0.00D+00  THRCOARS=  0.00D+00  SYMTOL  =  1.00D-06  GRADTOL =  1.00D-06  THROVL  =  1.00D-08
 THRORTH =  1.00D-08  GRID    =  1.00D-06  GRIDMAX =  1.00D-03  DTMAX   =  0.00D+00  THROCCDE=  1.00D-01  THROCCDE=  1.00D-01



 THRESHOLDS:

 ZERO    =  1.00D-12  ONEINT  =  1.00D-12  TWOINT  =  1.00D-15  PREFAC  =  1.00D-14  LOCALI  =  1.00D-09  EORDER  =  1.00D-04
 ENERGY  =  0.00D+00  ETEST   =  0.00D+00  EDENS   =  0.00D+00  THRDEDEF=  1.00D-06  GRADIENT=  1.00D-02  STEP    =  1.00D-03
 ORBITAL =  1.00D-05  CIVEC   =  1.00D-05  COEFF   =  1.00D-04  PRINTCI =  5.00D-02  PUNCHCI =  9.90D+01  OPTGRAD =  3.00D-04
 OPTENERG=  1.00D-06  OPTSTEP =  3.00D-04  THRGRAD =  1.00D-10  COMPRESS=  1.00D-11  VARMIN  =  1.00D-07  VARMAX  =  1.00D-03
 THRDOUB =  0.00D+00  THRDIV  =  1.00D-05  THRRED  =  1.00D-07  THRPSP  =  1.00D+00  THRDC   =  1.00D-10  THRCS   =  1.00D-10
 THRNRM  =  1.00D-08  THREQ   =  0.00D+00  THRDE   =  1.00D+00  THRREF  =  1.00D-05  SPARFAC =  1.00D+00  THRDLP  =  1.00D-07
 THRDIA  =  1.00D-10  THRDLS  =  1.00D-07  THRGPS  =  0.00D+00  THRKEX  =  0.00D+00  THRDIS  =  2.00D-01  THRVAR  =  1.00D-10
 THRLOC  =  1.00D-06  THRGAP  =  1.00D-06  THRLOCT = -1.00D+00  THRGAPT = -1.00D+00  THRORB  =  1.00D-06  THRMLTP =  0.00D+00
 THRCPQCI=  1.00D-10  KEXTA   =  0.00D+00  THRCOARS=  0.00D+00  SYMTOL  =  1.00D-06  GRADTOL =  1.00D-06  THROVL  =  1.00D-15
 THRORTH =  1.00D-08  GRID    =  1.00D-06  GRIDMAX =  1.00D-03  DTMAX   =  0.00D+00  THROCCDE=  1.00D-01  THROCCDE=  1.00D-01



 Variable memory set to 1000000000 words,  buffer space   230000 words

 SETTING BASIS          =    USERDEF
 SETTING RE_CCSD        =       -78.82668609
 SETTING O_CCSD         =       -15.86622096
 SETTING NE             =        21.00000000
 SETTING SYMM           =         1.00000000
 SETTING SS             =         1.00000000
 SETTING A1             =         6.00000000
 SETTING B1             =         2.00000000
 SETTING B2             =         2.00000000
 SETTING A2             =         1.00000000

Geometry recognized as XYZ

  --><jobstep command="RHF-SCF" commandset="SCFPRO">
   <!--


 Recomputing integrals since basis changed


 Using spherical harmonics



 PROGRAM * SEWARD (Integral evaluation for generally contracted gaussian basis sets)     Author: Roland Lindh, 1990

 Geometry written to block  1 of record 700


 Point group  C2v


   --><cml:molecule>
    <cml:symmetry pointGroup="C2v"/>
    <cml:atomArray>
     <cml:atom id="a1" elementType="Re" x3="0.0" y3="0.0" z3="0.0"/>
     <cml:atom id="a2" elementType="O" x3="0.0" y3="0.0" z3="2.6"/>
    </cml:atomArray>
    <cml:bondArray>
     <cml:bond atomRefs2="a1 a2"/>
    </cml:bondArray>
   </cml:molecule><!--

 ATOMIC COORDINATES

 NR  ATOM    CHARGE       X              Y              Z

   1  RE     15.00    0.000000000    0.000000000    0.000000000
   2  O       6.00    0.000000000    0.000000000    4.913287924

 Bond lengths in Bohr (Angstrom)

 1-2  4.913287924
     ( 2.600000000)

 NUCLEAR CHARGE:                   21
 NUMBER OF PRIMITIVE AOS:         536
 NUMBER OF SYMMETRY AOS:          441
 NUMBER OF CONTRACTIONS:          441   ( 182A1  + 105B1  + 105B2  +  49A2  )
 NUMBER OF CORE ORBITALS:           4   (   2A1  +   1B1  +   1B2  +   0A2  )
 NUMBER OF VALENCE ORBITALS:       10   (   5A1  +   2B1  +   2B2  +   1A2  )


 NUCLEAR REPULSION ENERGY   18.31767269

 EXTRA SYMMETRY OF AOS IN SYMMETRY 1:   1 1 1 1 1 1 1 1 1 1   1 1 1 1 1 1 1 1 1 1   1 1 1 1 1 1 1 1 1 1   1 1 1 1 1 1 1 1 1 1
                                        1 1 1 1 1 1 1 1 1 1   1 1 1 1 1 1 1 1 1 1   1 1 1 1 1 1 1 2 1 2   1 2 1 2 1 2 1 2 1 2
                                        1 2 1 2 1 2 1 2 1 2   1 2 1 2 1 2 1 2 1 2   1 2 1 2 1 2 1 2 1 2   1 2 1 2 1 2 1 2 1 2
                                        1 2 1 2 1 2 1 2 1 2   1 2 1 2 1 2 1 2 1 2   1 3 2 1 3 2 1 3 2 1   1 1 1 1 1 1 1 1 1 1
                                        1 1 1 1 1 1 1 1 1 1   1 2 1 2 1 2 1 2 1 2   1 2
 EXTRA SYMMETRY OF AOS IN SYMMETRY 2:   1 1 1 1 1 1 1 1 1 1   1 1 1 1 1 1 1 1 1 1   1 1 1 1 1 1 1 1 1 1   1 1 1 1 1 1 1 1 1 1
                                        1 1 1 1 1 1 1 1 1 1   1 1 1 1 2 1 2 1 2 1   2 1 2 1 2 1 2 1 2 1   2 1 2 1 2 1 2 1 2 1
                                        2 1 2 1 2 1 2 1 2 1   1 1 1 1 1 1 1 1 1 1   1 1 2 1 2
 EXTRA SYMMETRY OF AOS IN SYMMETRY 3:   1 1 1 1 1 1 1 1 1 1   1 1 1 1 1 1 1 1 1 1   1 1 1 1 1 1 1 1 1 1   1 1 1 1 1 1 1 1 1 1
                                        1 1 1 1 1 1 1 1 1 1   1 1 1 1 2 1 2 1 2 1   2 1 2 1 2 1 2 1 2 1   2 1 2 1 2 1 2 1 2 1
                                        2 1 2 1 2 1 2 1 2 1   1 1 1 1 1 1 1 1 1 1   1 1 2 1 2
 EXTRA SYMMETRY OF AOS IN SYMMETRY 4:   1 1 1 1 1 1 1 1 1 1   1 1 1 1 1 1 1 1 1 1   1 1 1 1 1 1 1 1 1 1   1 1 1 1 1 1 1 1 2 1
                                        2 1 2 1 1 1 1 1 1

 Eigenvalues of metric

         1 0.419E-06 0.678E-06 0.107E-04 0.133E-04 0.139E-04 0.222E-04 0.459E-04 0.711E-04
         2 0.467E-06 0.113E-04 0.138E-04 0.970E-04 0.100E-03 0.132E-03 0.141E-03 0.442E-03
         3 0.467E-06 0.113E-04 0.138E-04 0.970E-04 0.100E-03 0.132E-03 0.141E-03 0.442E-03
         4 0.139E-04 0.999E-04 0.143E-03 0.607E-03 0.146E-02 0.227E-02 0.654E-02 0.735E-02


 Contracted 2-electron integrals neglected if value below      1.0D-15

 Warning: maximum contribution to expansion of semi-local PP integrals   0.3D+07

 AO integral compression algorithm  1   Integral accuracy      1.0D-15

     3736.338 MB (compressed) written to integral file ( 33.3%)

     Node minimum: 173.539 MB, node maximum: 765.460 MB


 NUMBER OF SORTED TWO-ELECTRON INTEGRALS:  110660215.     BUFFER LENGTH:  32768
 NUMBER OF SEGMENTS:   4  SEGMENT LENGTH:   31977666      RECORD LENGTH: 524288

 Memory used in sort:      32.53 MW

 SORT1 READ  1401473000. AND WROTE    36961016. INTEGRALS IN    107 RECORDS. CPU TIME:    20.24 SEC, REAL TIME:    27.43 SEC
 SORT2 READ   407234540. AND WROTE  1216411966. INTEGRALS IN   7469 RECORDS. CPU TIME:     1.40 SEC, REAL TIME:     2.69 SEC

 Node minimum:   110449701.  Node maximum:   110660215. integrals

 OPERATOR DM      FOR CENTER  0  COORDINATES:    0.000000    0.000000    0.000000


 **********************************************************************************************************************************
 DATASETS  * FILE   NREC   LENGTH (MB)   RECORD NAMES
              1      19       22.35       500      610      700      900      950      970     1000      129      960     1100
                                          VAR    BASINP    GEOM    SYMINP    ZMAT    AOBASIS   BASIS     P2S    ABASIS      S
                                         1400     1410     1420     1200     1210     1080     1600     1650     1700
                                           T        V       ECP      H0       H01     AOSYM     SMH    MOLCAS    OPER

 PROGRAMS   *        TOTAL       INT
 CPU TIMES  *       157.34    157.03
 REAL TIME  *       167.27 SEC
 DISK USED  *         8.73 GB
 GA USED    *         0.00 MB       (max)       0.00 MB       (current)
 **********************************************************************************************************************************


 PROGRAM * RHF-SCF (OPEN SHELL)       Authors: W. Meyer, H.-J. Werner


 NUMBER OF ELECTRONS:      11+   10-    SPACE SYMMETRY=1    SPIN SYMMETRY: Doublet
 CONVERGENCE THRESHOLDS:    1.00E-05 (Density)    1.00E-07 (Energy)
 MAX. NUMBER OF ITERATIONS:      200
 INTERPOLATION TYPE:            DIIS
 INTERPOLATION STEPS:              2 (START)      1 (STEP)
 LEVEL SHIFTS:                 -0.60 (CLOSED) -0.30 (OPEN)

 Number of closed-shell orbitals:   10 (   5   2   2   1 )
 Number of open-shell orbitals:      1 (   1   0   0   0 )


 Orbital guess generated from atomic densities. Full valence occupancy:    7   3   3   1

 Molecular orbital dump at record        2100.2

 ITERATION    DDIFF          GRAD             ENERGY        2-EL.EN.            DIPOLE MOMENTS         DIIS   ORB.
    1      0.000D+00      0.000D+00       -93.16159032    163.861938    0.00000    0.00000   -8.10262    0    start
    2      0.000D+00      0.159D-01       -93.19595765    170.984440    0.00000    0.00000    1.23901    1    diag,B
    3      0.213D-01      0.213D-01       -93.68313156    166.720509    0.00000    0.00000   -3.48269    2    diag,B
    4      0.113D-01      0.232D-02       -93.70265105    167.263455    0.00000    0.00000   -3.11341    3    diag,B
    5      0.329D-02      0.169D-02       -93.72314627    167.530627    0.00000    0.00000   -2.99275    4    diag,B
    6      0.312D-02      0.149D-02       -93.73726218    167.688548    0.00000    0.00000   -2.92536    5    diag,B
    7      0.913D-03      0.149D-02       -93.74402304    167.754034    0.00000    0.00000   -2.89114    6    diag,B
    8      0.300D-03      0.149D-02       -93.74298205    167.744913    0.00000    0.00000   -2.89648    7    diag,B
    9      0.525D-04      0.149D-02       -93.73035561    167.643100    0.00000    0.00000   -2.96691    8    diag,B
   10      0.765D-03      0.145D-02       -93.46010220    169.540671    0.00000    0.00000    0.86200    9    orth
   11      0.836D-02      0.115D-01       -93.51204660    169.063007    0.00000    0.00000    0.23757    9    diag,B
   12      0.880D-03      0.992D-02       -93.63559172    167.852640    0.00000    0.00000   -1.74163    9    diag,B
   13      0.305D-02      0.457D-02       -93.66653509    167.513543    0.00000    0.00000   -2.49108    9    diag,B
   14      0.155D-02      0.239D-02       -93.68139445    167.185687    0.00000    0.00000   -3.37003    9    diag,B
   15      0.169D-02      0.106D-02       -93.65093515    167.446444    0.00000    0.00000   -2.37838    9    diag,B
   16      0.254D-02      0.212D-02       -93.59329246    168.269200    0.00000    0.00000   -0.85927    9    diag,B
   17      0.173D-02      0.601D-02       -93.64215746    167.636895    0.00000    0.00000   -2.08194    9    diag,B
   18      0.154D-02      0.275D-02       -93.61893970    168.020207    0.00000    0.00000   -1.42141    9    diag,B
   19      0.948D-03      0.420D-02       -93.64985820    167.525628    0.00000    0.00000   -2.32848    9    fixocc
   20      0.151D-02      0.234D-02       -93.65011672    167.541552    0.00000    0.00000   -2.32944    9    orth
     Orbital  4.1 strongly deviates from fixed occupation: 1.86706  (now: 2.00)
     Orbital  2.2 strongly deviates from fixed occupation: 1.84637  (now: 2.00)
     Orbital  2.3 strongly deviates from fixed occupation: 1.84629  (now: 2.00)
     Note:  Use {hf,nitord=N} to fix occupations at iteration N
            Use {gthresh,occdev=1.0} to suppress deviation warnings
   21      0.151D-03      0.241D-02       -93.35267437    170.563860    0.00000    0.00000    2.25007    9    diag,B
     Orbital  4.1 strongly deviates from fixed occupation: 1.88905  (now: 2.00)
     Orbital  2.2 strongly deviates from fixed occupation: 1.86031  (now: 2.00)
     Orbital  2.3 strongly deviates from fixed occupation: 1.86023  (now: 2.00)
   22      0.539D-02      0.129D-01       -93.64536695    167.638323    0.00000    0.00000   -2.16482    9    diag,B
   23      0.520D-02      0.283D-02       -93.64762055    167.611674    0.00000    0.00000   -2.24303    9    diag,B
   24      0.988D-04      0.265D-02       -93.65733870    167.650800    0.00000    0.00000   -2.75600    9    diag,B
   25      0.144D-02      0.143D-02       -93.46650407    169.922730    0.00000    0.00000    0.75628    9    diag,B
   26      0.337D-02      0.103D-01       -93.64703944    167.863803    0.00000    0.00000   -2.37695    9    diag,B
   27      0.289D-02      0.226D-02       -93.65145448    167.812864    0.00000    0.00000   -2.56208    9    diag,B
   28      0.223D-03      0.186D-02       -93.63297333    168.331117    0.00000    0.00000   -2.01001    9    diag,B
   29      0.957D-03      0.343D-02       -93.64187811    167.812917    0.00000    0.00000   -2.23746    9    diag,B
   30      0.120D-02      0.222D-02       -93.59899000    168.151564    0.00000    0.00000   -0.92075    9    orth
   31      0.207D-02      0.477D-02       -93.52518529    169.357972    0.00000    0.00000    0.08471    9    diag,B
   32      0.183D-02      0.846D-02       -93.57896030    168.494074    0.00000    0.00000   -0.57114    9    diag,B
   33      0.121D-02      0.612D-02       -93.64383305    167.938724    0.00000    0.00000   -2.25657    9    diag,B
   34      0.220D-02      0.260D-02       -93.65779766    167.756594    0.00000    0.00000   -2.91795    9    diag,B
   35      0.818D-03      0.115D-02       -93.64108284    168.152098    0.00000    0.00000   -2.25850    9    diag,B
   36      0.755D-03      0.270D-02       -93.64595032    168.063369    0.00000    0.00000   -2.45784    9    diag,B
   37      0.267D-03      0.216D-02       -93.62782790    167.930642    0.00000    0.00000   -1.76833    9    diag,B
   38      0.165D-02      0.306D-02       -93.59395493    168.365967    0.00000    0.00000   -0.91156    9    diag,B
   39      0.100D-02      0.516D-02       -93.53386085    169.085298    0.00000    0.00000    0.09500    9    diag,B
     Orbital  5.1 strongly deviates from fixed occupation: 1.89047  (now: 2.00)
   40      0.944D-03      0.775D-02       -93.65785173    168.333713    0.00000    0.00000   -2.96774    9    orth
   41      0.431D-02      0.164D-02       -93.60730840    168.316083    0.00000    0.00000   -1.17354    9    diag,B
   42      0.375D-02      0.471D-02       -93.59625062    168.500139    0.00000    0.00000   -0.96421    9    diag,B
   43      0.278D-03      0.529D-02       -93.64777172    167.667572    0.00000    0.00000   -2.44464    9    diag,B
   44      0.156D-02      0.172D-02       -93.59390794    168.497048    0.00000    0.00000   -0.92201    9    diag,B
   45      0.139D-02      0.546D-02       -93.60521891    168.235222    0.00000    0.00000   -1.07920    9    diag,B
   46      0.609D-03      0.477D-02       -93.63719628    167.717851    0.00000    0.00000   -2.02066    9    diag,B
   47      0.989D-03      0.247D-02       -93.54037885    169.078514    0.00000    0.00000   -0.05261    9    diag,B
   48      0.185D-02      0.795D-02       -93.54726569    168.901968    0.00000    0.00000   -0.03870    9    diag,B
   49      0.821D-03      0.749D-02       -93.59845710    168.398494    0.00000    0.00000   -1.04094    9    diag,B
   50      0.146D-02      0.503D-02       -93.64110178    168.250396    0.00000    0.00000   -2.26494    9    orth
   51      0.198D-02      0.289D-02       -93.63602719    167.991505    0.00000    0.00000   -2.04936    9    diag,B
   52      0.118D-02      0.276D-02       -93.62849525    167.985251    0.00000    0.00000   -1.76001    9    diag,B
   53      0.638D-03      0.324D-02       -93.64640328    168.207422    0.00000    0.00000   -2.46522    9    diag,B
   54      0.203D-02      0.246D-02       -93.63369686    167.959978    0.00000    0.00000   -1.95842    9    diag,B
   55      0.172D-02      0.283D-02       -93.62617781    167.971241    0.00000    0.00000   -1.68146    9    diag,B
   56      0.581D-03      0.331D-02       -93.63471586    168.412216    0.00000    0.00000   -2.08495    9    diag,B
   57      0.220D-02      0.351D-02       -93.63070901    167.952188    0.00000    0.00000   -1.84484    9    diag,B
   58      0.188D-02      0.300D-02       -93.62711666    167.988715    0.00000    0.00000   -1.72227    9    diag,B
   59      0.167D-03      0.325D-02       -93.60143099    168.602855    0.00000    0.00000   -1.19501    9    diag,B
   60      0.125D-02      0.542D-02       -93.61587241    168.309135    0.00000    0.00000   -1.46966    9    orth
   61      0.750D-03      0.427D-02       -93.62962968    168.264089    0.00000    0.00000   -1.89256    9    diag,B
   62      0.743D-03      0.348D-02       -93.64382838    168.015811    0.00000    0.00000   -2.35110    9    diag,B
   63      0.413D-03      0.232D-02       -93.64060698    168.158197    0.00000    0.00000   -2.23562    9    diag,B
   64      0.259D-03      0.276D-02       -93.63131863    168.148862    0.00000    0.00000   -1.89340    9    diag,B
   65      0.750D-03      0.335D-02       -93.64351746    168.135651    0.00000    0.00000   -2.35827    9    diag,B
   66      0.853D-03      0.247D-02       -93.64471358    168.034302    0.00000    0.00000   -2.39250    9    diag,B
   67      0.248D-03      0.225D-02       -93.64150746    167.658648    0.00000    0.00000   -2.16514    9    diag,B
   68      0.148D-02      0.209D-02       -93.63709535    167.876874    0.00000    0.00000   -2.03984    9    diag,B
   69      0.568D-03      0.266D-02       -93.63343762    167.745422    0.00000    0.00000   -1.82576    9    diag,B
   70      0.932D-03      0.300D-02       -93.61045708    168.633577    0.00000    0.00000   -1.46417    9    orth
   71      0.191D-02      0.499D-02       -93.62911448    167.877857    0.00000    0.00000   -1.76100    9    diag,B
   72      0.177D-02      0.304D-02       -93.60314564    168.119904    0.00000    0.00000   -1.00290    9    diag,B
   73      0.115D-02      0.455D-02       -93.58188919    168.757655    0.00000    0.00000   -0.77692    9    diag,B
   74      0.176D-02      0.634D-02       -93.55463434    168.764648    0.00000    0.00000   -0.13365    9    diag,B
   75      0.165D-02      0.706D-02       -93.61053273    168.472497    0.00000    0.00000   -1.39285    9    diag,B
   76      0.215D-02      0.471D-02       -93.64175210    168.086774    0.00000    0.00000   -2.29532    9    diag,B
   77      0.984D-03      0.248D-02       -93.63244997    168.263569    0.00000    0.00000   -1.98519    9    diag,B
   78      0.315D-03      0.332D-02       -93.61901897    168.270039    0.00000    0.00000   -1.54695    9    diag,B
   79      0.894D-03      0.412D-02       -93.64130898    168.168148    0.00000    0.00000   -2.26870    9    diag,B
   80      0.111D-02      0.271D-02       -93.64125445    168.017407    0.00000    0.00000   -2.26186    9    orth
   81      0.472D-03      0.244D-02       -93.61720840    168.027128    0.00000    0.00000   -1.37765    9    diag,B
   82      0.188D-02      0.392D-02       -93.64321831    168.228252    0.00000    0.00000   -2.35079    9    diag,B
   83      0.261D-02      0.268D-02       -93.63832945    167.926334    0.00000    0.00000   -2.14361    9    diag,B
   84      0.127D-02      0.246D-02       -93.59895011    168.125208    0.00000    0.00000   -0.84787    9    diag,B
   85      0.268D-02      0.478D-02       -93.62624979    168.508997    0.00000    0.00000   -1.85048    9    diag,B
   86      0.378D-02      0.410D-02       -93.63496592    167.943277    0.00000    0.00000   -2.02424    9    diag,B
   87      0.143D-02      0.268D-02       -93.57002303    168.507045    0.00000    0.00000   -0.26957    9    diag,B
   88      0.298D-02      0.622D-02       -93.61768704    168.544958    0.00000    0.00000   -1.61384    9    diag,B
   89      0.381D-02      0.459D-02       -93.63316818    168.042751    0.00000    0.00000   -1.97706    9    diag,B
   90      0.102D-02      0.293D-02       -93.56128083    168.680816    0.00000    0.00000   -0.19426    9    orth
   91      0.268D-02      0.671D-02       -93.63454818    168.361588    0.00000    0.00000   -2.06229    9    diag,B
   92      0.362D-02      0.345D-02       -93.63833614    168.003332    0.00000    0.00000   -2.15372    9    diag,B
   93      0.956D-03      0.257D-02       -93.59625031    168.254893    0.00000    0.00000   -0.84902    9    diag,B
   94      0.239D-02      0.505D-02       -93.63847675    168.343833    0.00000    0.00000   -2.18861    9    diag,B
   95      0.337D-02      0.319D-02       -93.63712069    167.982764    0.00000    0.00000   -2.10408    9    diag,B
   96      0.128D-02      0.261D-02       -93.61837493    168.069376    0.00000    0.00000   -1.44872    9    diag,B
   97      0.120D-02      0.382D-02       -93.62918022    168.434778    0.00000    0.00000   -1.91016    9    diag,B
   98      0.219D-02      0.388D-02       -93.63231920    168.045459    0.00000    0.00000   -1.93062    9    diag,B
   99      0.124D-02      0.302D-02       -93.62914579    168.082462    0.00000    0.00000   -1.82417    9    diag,B
  100      0.139D-03      0.325D-02       -93.61529730    168.483315    0.00000    0.00000   -1.51634    9    orth
  101      0.930D-03      0.463D-02       -93.63094533    168.205388    0.00000    0.00000   -1.91556    9    diag,B
  102      0.602D-03      0.335D-02       -93.63718992    168.171169    0.00000    0.00000   -2.12954    9    diag,B
  103      0.338D-03      0.291D-02       -93.64304085    168.093122    0.00000    0.00000   -2.32167    9    diag,B
  104      0.239D-03      0.251D-02       -93.64196591    168.160592    0.00000    0.00000   -2.30997    9    diag,B
  105      0.236D-03      0.258D-02       -93.64457718    168.107074    0.00000    0.00000   -2.40144    9    diag,B
  106      0.114D-03      0.234D-02       -93.64439700    168.088823    0.00000    0.00000   -2.38112    9    diag,B
  107      0.104D-03      0.236D-02       -93.64344415    168.110955    0.00000    0.00000   -2.34733    9    diag,B
  108      0.609D-04      0.246D-02       -93.64010258    168.179065    0.00000    0.00000   -2.24915    9    diag,B
  109      0.168D-03      0.269D-02       -93.63794238    168.220786    0.00000    0.00000   -2.18170    9    diag,B
  110      0.109D-03      0.288D-02       -93.64740884    168.049314    0.00000    0.00000   -2.50394    9    orth
  111      0.353D-03      0.207D-02       -93.64983921    167.986508    0.00000    0.00000   -2.59318    9    diag,B
  112      0.139D-03      0.183D-02       -93.64334816    168.099737    0.00000    0.00000   -2.34298    9    diag,B
  113      0.271D-03      0.240D-02       -93.65463446    167.983186    0.00000    0.00000   -2.85788    9    diag,B
  114      0.735D-03      0.134D-02       -93.65842396    168.056139    0.00000    0.00000   -3.12205    9    diag,B
  115      0.699D-03      0.103D-02       -93.59921366    168.758800    0.00000    0.00000   -1.28054    9    diag,B
  116      0.195D-02      0.549D-02       -93.64577172    168.064265    0.00000    0.00000   -2.46081    9    diag,B
  117      0.113D-02      0.210D-02       -93.64329311    168.017900    0.00000    0.00000   -2.35896    9    diag,B
  118      0.325D-03      0.219D-02       -93.64375932    168.271155    0.00000    0.00000   -2.41757    9    diag,B
  119      0.886D-03      0.253D-02       -93.63818651    168.111029    0.00000    0.00000   -2.18662    9    diag,B
  120      0.955D-03      0.264D-02       -93.64295358    168.148935    0.00000    0.00000   -2.36553    9    orth
  121      0.467D-03      0.240D-02       -93.64455783    168.171702    0.00000    0.00000   -2.44279    9    diag,B
  122      0.248D-03      0.229D-02       -93.65035364    168.221819    0.00000    0.00000   -2.67692    9    diag,B
  123      0.597D-03      0.196D-02       -93.64446552    168.232997    0.00000    0.00000   -2.43415    9    diag,B
  124      0.501D-03      0.242D-02       -93.64545917    168.110953    0.00000    0.00000   -2.47690    9    diag,B
  125      0.309D-03      0.213D-02       -93.63642191    167.935463    0.00000    0.00000   -2.10278    9    diag,B
  126      0.112D-02      0.244D-02       -93.62814699    168.215055    0.00000    0.00000   -1.89070    9    diag,B
  127      0.678D-03      0.332D-02       -93.63568766    168.110157    0.00000    0.00000   -2.10727    9    diag,B
  128      0.452D-03      0.277D-02       -93.64482047    168.186194    0.00000    0.00000   -2.43798    9    diag,B
  129      0.830D-03      0.234D-02       -93.63988184    168.505304    0.00000    0.00000   -2.31380    9    diag,B
  130      0.828D-03      0.311D-02       -93.63670200    167.912682    0.00000    0.00000   -2.08454    9    orth
  131      0.212D-02      0.246D-02       -93.63319351    167.913980    0.00000    0.00000   -1.95530    9    diag,B
  132      0.317D-03      0.268D-02       -93.64396761    168.518557    0.00000    0.00000   -2.43401    9    diag,B
  133      0.268D-02      0.291D-02       -93.62598560    168.010476    0.00000    0.00000   -1.72187    9    diag,B
  134      0.305D-02      0.328D-02       -93.64459235    168.069758    0.00000    0.00000   -2.40052    9    diag,B
  135      0.152D-02      0.224D-02       -93.65015975    168.199639    0.00000    0.00000   -2.65636    9    diag,B
  136      0.111D-02      0.197D-02       -93.65183143    168.179339    0.00000    0.00000   -2.71991    9    diag,B
  137      0.150D-03      0.183D-02       -93.62256069    168.036419    0.00000    0.00000   -1.63259    9    diag,B
  138      0.265D-02      0.331D-02       -93.63766856    168.299764    0.00000    0.00000   -2.19972    9    diag,B
  139      0.202D-02      0.298D-02       -93.64213033    168.010516    0.00000    0.00000   -2.31781    9    diag,B
  140      0.676D-03      0.225D-02       -93.64159708    167.958003    0.00000    0.00000   -2.27069    9    orth
  141      0.226D-03      0.226D-02       -93.63857450    168.395185    0.00000    0.00000   -2.25703    9    diag,B
  142      0.124D-02      0.300D-02       -93.62654201    167.932044    0.00000    0.00000   -1.70650    9    diag,B
  143      0.253D-02      0.310D-02       -93.63312250    168.174757    0.00000    0.00000   -2.03044    9    diag,B
  144      0.141D-02      0.304D-02       -93.64099984    168.200233    0.00000    0.00000   -2.30312    9    diag,B
  145      0.775D-03      0.261D-02       -93.64853739    168.285818    0.00000    0.00000   -2.57941    9    diag,B
  146      0.647D-03      0.226D-02       -93.62598766    167.997550    0.00000    0.00000   -1.72461    9    diag,B
  147      0.268D-02      0.316D-02       -93.64152053    168.083950    0.00000    0.00000   -2.30755    9    diag,B
  148      0.151D-02      0.240D-02       -93.64509240    168.291233    0.00000    0.00000   -2.46305    9    diag,B
  149      0.109D-02      0.247D-02       -93.64731800    168.218647    0.00000    0.00000   -2.53413    9    diag,B
  150      0.313D-03      0.223D-02       -93.64215958    167.993230    0.00000    0.00000   -2.33390    9    orth
  151      0.102D-02      0.215D-02       -93.63168969    167.965304    0.00000    0.00000   -1.92315    9    diag,B
  152      0.945D-03      0.276D-02       -93.63519147    168.600965    0.00000    0.00000   -2.18936    9    diag,B
  153      0.251D-02      0.351D-02       -93.63398013    167.937064    0.00000    0.00000   -1.98710    9    diag,B
  154      0.246D-02      0.267D-02       -93.63477912    167.934873    0.00000    0.00000   -2.01397    9    diag,B
  155      0.712D-04      0.264D-02       -93.64912507    168.630710    0.00000    0.00000   -2.66228    9    diag,B
  156      0.319D-02      0.254D-02       -93.62890116    168.065138    0.00000    0.00000   -1.82838    9    diag,B
  157      0.333D-02      0.319D-02       -93.64340900    168.034594    0.00000    0.00000   -2.35107    9    diag,B
  158      0.100D-02      0.224D-02       -93.65579975    168.393761    0.00000    0.00000   -2.88584    9    diag,B
  159      0.205D-02      0.183D-02       -93.64375531    167.921892    0.00000    0.00000   -2.36528    9    diag,B
  160      0.235D-02      0.202D-02       -93.63290184    167.989600    0.00000    0.00000   -1.93830    9    orth
  161      0.742D-03      0.288D-02       -93.62065192    167.927463    0.00000    0.00000   -1.47674    9    diag,B
     Orbital  5.1 strongly deviates from fixed occupation: 1.88926  (now: 2.00)
  162      0.145D-02      0.336D-02       -93.64652863    168.451707    0.00000    0.00000   -2.55354    9    diag,B
  163      0.412D-02      0.245D-02       -93.63844349    168.221541    0.00000    0.00000   -2.20552    9    diag,B
  164      0.153D-02      0.286D-02       -93.64914902    168.061736    0.00000    0.00000   -2.60157    9    diag,B
  165      0.640D-03      0.183D-02       -93.64740196    168.038618    0.00000    0.00000   -2.50561    9    diag,B
  166      0.261D-03      0.195D-02       -93.63550191    168.327853    0.00000    0.00000   -2.14333    9    diag,B
  167      0.542D-03      0.302D-02       -93.63877744    168.034664    0.00000    0.00000   -2.13126    9    diag,B
  168      0.951D-03      0.263D-02       -93.63082317    168.130323    0.00000    0.00000   -1.87971    9    diag,B
  169      0.572D-03      0.329D-02       -93.64103465    168.291879    0.00000    0.00000   -2.30916    9    diag,B
  170      0.170D-02      0.269D-02       -93.64264035    168.297800    0.00000    0.00000   -2.37823    9    orth
  171      0.110D-02      0.265D-02       -93.64346117    168.054284    0.00000    0.00000   -2.36493    9    diag,B
  172      0.111D-02      0.222D-02       -93.63982829    168.025233    0.00000    0.00000   -2.19624    9    diag,B
  173      0.438D-03      0.245D-02       -93.63587565    168.443474    0.00000    0.00000   -2.19247    9    diag,B
  174      0.155D-02      0.319D-02       -93.63604309    168.132681    0.00000    0.00000   -2.09103    9    diag,B
  175      0.125D-02      0.287D-02       -93.64075829    168.144946    0.00000    0.00000   -2.27396    9    diag,B
  176      0.468D-03      0.258D-02       -93.64545561    168.148355    0.00000    0.00000   -2.47799    9    diag,B
  177      0.374D-03      0.217D-02       -93.64928782    168.211696    0.00000    0.00000   -2.63329    9    diag,B
  178      0.566D-03      0.200D-02       -93.63372219    168.228780    0.00000    0.00000   -2.05028    9    diag,B
  179      0.123D-02      0.313D-02       -93.64572477    168.170962    0.00000    0.00000   -2.45991    9    diag,B
  180      0.113D-02      0.229D-02       -93.64665893    168.140616    0.00000    0.00000   -2.50605    9    orth
  181      0.399D-03      0.214D-02       -93.64376737    168.179492    0.00000    0.00000   -2.40871    9    diag,B
  182      0.372D-03      0.237D-02       -93.64490790    168.207034    0.00000    0.00000   -2.44305    9    diag,B
  183      0.816D-03      0.236D-02       -93.64504121    168.170438    0.00000    0.00000   -2.45052    9    diag,B
  184      0.422D-03      0.229D-02       -93.64530966    168.194182    0.00000    0.00000   -2.46974    9    diag,B
  185      0.134D-03      0.229D-02       -93.64285731    168.146923    0.00000    0.00000   -2.36073    9    diag,B
  186      0.334D-03      0.241D-02       -93.64079597    168.120526    0.00000    0.00000   -2.28159    9    diag,B
  187      0.266D-03      0.249D-02       -93.64030464    168.130363    0.00000    0.00000   -2.29249    9    diag,B
  188      0.188D-03      0.247D-02       -93.64011359    168.464290    0.00000    0.00000   -2.32625    9    diag,B
  189      0.114D-02      0.299D-02       -93.63695627    167.982027    0.00000    0.00000   -2.12232    9    diag,B
  190      0.201D-02      0.249D-02       -93.63956996    167.989976    0.00000    0.00000   -2.21863    9    orth
  191      0.322D-03      0.236D-02       -93.64203186    168.535130    0.00000    0.00000   -2.40883    9    diag,B
  192      0.206D-02      0.294D-02       -93.63376277    168.020931    0.00000    0.00000   -2.00883    9    diag,B
  193      0.233D-02      0.277D-02       -93.63671923    168.019891    0.00000    0.00000   -2.11281    9    diag,B
  194      0.237D-03      0.261D-02       -93.65047433    168.451133    0.00000    0.00000   -2.68973    9    diag,B
  195      0.228D-02      0.228D-02       -93.63284087    168.002675    0.00000    0.00000   -1.96783    9    diag,B
  196      0.264D-02      0.281D-02       -93.63666517    167.997185    0.00000    0.00000   -2.10629    9    diag,B
  197      0.264D-03      0.257D-02       -93.64998229    168.494797    0.00000    0.00000   -2.64590    9    diag,B
  198      0.239D-02      0.247D-02       -93.63312161    167.820174    0.00000    0.00000   -1.91504    9    diag,B
  199      0.339D-02      0.257D-02       -93.63423016    167.825902    0.00000    0.00000   -1.95818    9    orth
  200      0.991D-04      0.250D-02       -93.64310203    167.097564    0.00000    0.00000   -3.01182    0    orth

 Final alpha occupancy:   6   2   2   1
 Final beta  occupancy:   5   2   2   1

 !RHF STATE 1.1 Energy                -93.643102028694
   --><property name="Energy" method="RHF" principal="true" stateSymmetry="1" stateNumber="1"
     value="-93.6431020286941"/><!--
 Nuclear energy                        18.31767269
 One-electron energy                 -195.50955692
 Two-electron energy                   83.54878220
 Virial quotient                       -2.60633050
 !RHF STATE 1.1 Dipole moment           0.00000000     0.00000000    -3.01181679
 Dipole moment /Debye                   0.00000000     0.00000000    -7.65477332
   --><property name="Dipole moment" method="RHF" principal="true" stateSymmetry="1"
     stateNumber="1" value="0.0 0.0 -3.01181679094866"/><!--

 ELECTRON ORBITALS
 =================


   Orb  Occ    Energy  Couls-En    Coefficients

                                   1 1s      1 1s      1 1s      1 1s      1 1s      1 1s      1 1s      1 1s      1 1s      1 1s
                                   1 1s      1 1s      1 1s      1 1s      1 1s      1 1s      1 1s      1 1s      1 1s      1 1s
                                   1 1s      1 1s      1 1s      1 1s      1 1s      1 1s      1 1s      1 1s      1 1s      1 1s
                                   1 1s      1 1s      1 1s      1 1s      1 1s      1 2pz     1 2pz     1 2pz     1 2pz     1 2pz
                                   1 2pz     1 2pz     1 2pz     1 2pz     1 2pz     1 2pz     1 2pz     1 2pz     1 2pz     1 2pz
                                   1 2pz     1 2pz     1 2pz     1 2pz     1 2pz     1 2pz     1 2pz     1 2pz     1 2pz     1 2pz
                                   1 2pz     1 2pz     1 2pz     1 2pz     1 2pz     1 2pz     1 3d0     1 3d2+    1 3d0     1 3d2+
                                   1 3d0     1 3d2+    1 3d0     1 3d2+    1 3d0     1 3d2+    1 3d0     1 3d2+    1 3d0     1 3d2+
                                   1 3d0     1 3d2+    1 3d0     1 3d2+    1 3d0     1 3d2+    1 3d0     1 3d2+    1 3d0     1 3d2+
                                   1 3d0     1 3d2+    1 3d0     1 3d2+    1 3d0     1 3d2+    1 3d0     1 3d2+    1 3d0     1 3d2+
                                   1 3d0     1 3d2+    1 3d0     1 3d2+    1 3d0     1 3d2+    1 3d0     1 3d2+    1 3d0     1 3d2+
                                   1 4f0     1 4f2+    1 4f0     1 4f2+    1 4f0     1 4f2+    1 4f0     1 4f2+    1 4f0     1 4f2+
                                   1 4f0     1 4f2+    1 4f0     1 4f2+    1 4f0     1 4f2+    1 4f0     1 4f2+    1 4f0     1 4f2+
                                   1 4f0     1 4f2+    1 4f0     1 4f2+    1 4f0     1 4f2+    1 4f0     1 4f2+    1 4f0     1 4f2+
                                   1 5g0     1 5g4+    1 5g2+    1 5g0     1 5g4+    1 5g2+    1 5g0     1 5g4+    1 5g2+    2 1s
                                   2 1s      2 1s      2 1s      2 1s      2 1s      2 1s      2 1s      2 1s      2 1s      2 1s
                                   2 1s      2 1s      2 2pz     2 2pz     2 2pz     2 2pz     2 2pz     2 2pz     2 2pz     2 2pz
                                   2 3d0     2 3d2+    2 3d0     2 3d2+    2 3d0     2 3d2+    2 3d0     2 3d2+    2 4f0     2 4f2+
                                   2 4f0     2 4f2+

   1.1   2    -3.8252  -17.3395  0.000000 -0.000000  0.000000 -0.000000  0.000000 -0.000000  0.000000 -0.000000  0.000000 -0.000001
                                 0.000001 -0.000004  0.000009 -0.000023  0.000056 -0.000138  0.000341 -0.000836  0.002003 -0.004797
                                 0.012086 -0.030756  0.077160 -0.174830  0.366386 -0.483245  1.666864  0.514704  0.218569  0.035916
                                -0.015012  0.005248 -1.778050  0.405354 -0.001354 -0.000000  0.000000 -0.000000  0.000000 -0.000000
                                 0.000000 -0.000000  0.000000 -0.000000  0.000000 -0.000000  0.000000 -0.000001  0.000003 -0.000007
                                 0.000015 -0.000033  0.000069 -0.000150  0.000351 -0.000925  0.003979  0.007967 -0.057509 -0.007248
                                 0.004245 -0.001342 -0.000033 -0.006853  0.055767  0.000075  0.000000  0.000000 -0.000000 -0.000000
                                 0.000000  0.000000 -0.000000 -0.000000  0.000000  0.000000 -0.000001 -0.000000  0.000002  0.000000
                                -0.000008 -0.000000  0.000015  0.000000 -0.000033 -0.000000  0.000015  0.000001 -0.000128 -0.000001
                                 0.000763 -0.000003  0.009931 -0.000080  0.007514 -0.000170 -0.011558  0.000130  0.000588  0.000127
                                 0.000637  0.000047 -0.000810  0.000002 -0.009320  0.000087  0.016852 -0.000190  0.000289  0.000000
                                -0.000000 -0.000000  0.000000  0.000000 -0.000000 -0.000000  0.000001  0.000000 -0.000004 -0.000000
                                 0.000009  0.000000 -0.000021 -0.000000  0.000058  0.000001 -0.000463 -0.000002 -0.002004  0.000006
                                -0.002360 -0.000000  0.000890  0.000003  0.001914  0.000001  0.002257 -0.000005 -0.000297 -0.000002
                                 0.000203 -0.000217  0.000002  0.000024 -0.000903  0.000033  0.000391 -0.000137  0.000008  0.000000
                                -0.000000  0.000000 -0.000002  0.000012 -0.000160 -0.000784 -0.000618  0.001468 -0.001140  0.000603
                                 0.000787  0.000347 -0.000008 -0.000071 -0.000120 -0.000475  0.001533 -0.000417  0.000015  0.000002
                                 0.000030  0.000000 -0.000105  0.000001 -0.000982  0.000002 -0.000002  0.000000 -0.000012  0.000000
                                 0.000200 -0.000001

   2.1   2    -2.2428  -13.9794  0.000000 -0.000000  0.000000 -0.000000  0.000000 -0.000000  0.000000 -0.000000  0.000000 -0.000000
                                 0.000000 -0.000000  0.000000 -0.000000  0.000000 -0.000000  0.000001 -0.000003  0.000007 -0.000017
                                 0.000044 -0.000118  0.000311 -0.000730  0.001597 -0.001952  0.014724  0.000977 -0.016917 -0.000983
                                 0.001103  0.000298 -0.014502  0.017682 -0.000138 -0.000000  0.000000 -0.000000  0.000000 -0.000000
                                 0.000000 -0.000000  0.000001 -0.000002  0.000007 -0.000021  0.000059 -0.000169  0.000405 -0.000944
                                 0.002108 -0.005694  0.013387 -0.030595  0.043593 -0.005966 -0.633755  0.144797  1.422924  0.248971
                                 0.007638  0.002180 -0.000647  0.563316 -0.797781  0.000158  0.000000 -0.000000 -0.000000  0.000000
                                 0.000000 -0.000000 -0.000000  0.000000  0.000000 -0.000000 -0.000000  0.000000  0.000001 -0.000000
                                -0.000001  0.000000  0.000003 -0.000000 -0.000005  0.000000  0.000019 -0.000000 -0.000022  0.000000
                                 0.000077 -0.000002  0.001079  0.000013 -0.001175  0.000036 -0.006834  0.000042 -0.001212  0.000023
                                 0.000017  0.000008  0.000451  0.000001 -0.000665 -0.000009  0.001412  0.000009 -0.000169 -0.000000
                                 0.000000 -0.000000 -0.000000  0.000000  0.000000 -0.000000 -0.000000  0.000000 -0.000002 -0.000000
                                -0.000003  0.000000 -0.000026 -0.000001 -0.000031  0.000005  0.000700  0.000015  0.007101 -0.000061
                                 0.001967  0.000024  0.001935 -0.000018  0.000310  0.000022 -0.001915  0.000077  0.000049  0.000010
                                -0.000263 -0.000000  0.000001 -0.000719  0.000004  0.000007 -0.000056  0.000004  0.000001 -0.000000
                                 0.000000 -0.000000  0.000002 -0.000016  0.000554 -0.000815  0.001797  0.004342  0.004558  0.000591
                                -0.000631 -0.000913 -0.000074 -0.000644 -0.001899 -0.003270 -0.003257  0.000028 -0.000008  0.000020
                                 0.000085  0.000000  0.000448  0.000002  0.000635  0.000009  0.000008 -0.000000 -0.000066  0.000000
                                 0.000027 -0.000006

   3.1   2    -1.2461   -9.1190 -0.000000  0.000000 -0.000000  0.000000 -0.000000  0.000000 -0.000000  0.000000 -0.000000  0.000000
                                -0.000000  0.000000 -0.000000  0.000000 -0.000000  0.000000 -0.000001  0.000002 -0.000005  0.000014
                                -0.000052  0.000186 -0.000606  0.001573 -0.003594  0.002702 -0.080042  0.021213  0.029583  0.019071
                                -0.015396  0.004168  0.072828 -0.060293 -0.000911  0.000000 -0.000000  0.000000 -0.000000  0.000000
                                -0.000000  0.000000 -0.000000  0.000000 -0.000000  0.000001 -0.000004  0.000010 -0.000025  0.000058
                                -0.000131  0.000320 -0.000719  0.001600 -0.002815  0.004212 -0.002705 -0.043233  0.295682  0.019651
                                 0.000440 -0.004970  0.002018  0.022254 -0.318595 -0.000342 -0.000000 -0.000000  0.000000  0.000000
                                -0.000000 -0.000000  0.000000  0.000000 -0.000001 -0.000000  0.000003  0.000000 -0.000008 -0.000000
                                 0.000019  0.000000 -0.000044 -0.000000  0.000092  0.000001 -0.000217 -0.000001  0.000448  0.000002
                                -0.001511 -0.000009 -0.006203 -0.000064  0.007790  0.000024  0.017038  0.000041  0.008494 -0.000032
                                -0.006714 -0.000018  0.001585 -0.000002  0.005820  0.000057 -0.012948 -0.000069 -0.000006 -0.000001
                                 0.000000  0.000000 -0.000000 -0.000000  0.000002  0.000000 -0.000007 -0.000000  0.000019  0.000000
                                -0.000049 -0.000000  0.000123  0.000000 -0.000379 -0.000000  0.003101  0.000004  0.010232  0.000023
                                 0.012345  0.000015 -0.006268 -0.000007 -0.012764 -0.000013 -0.006656 -0.000006 -0.001245 -0.000008
                                -0.000063 -0.000007  0.000001  0.001034  0.000008 -0.000003 -0.001251 -0.000004 -0.000005 -0.000000
                                 0.000003 -0.000026  0.000161 -0.001416  0.055005 -0.106337  0.195403  0.572199  0.382873  0.024804
                                -0.051789 -0.089142 -0.000005  0.000184 -0.001213  0.000236 -0.025909 -0.004076 -0.000296 -0.000002
                                 0.000528 -0.000028  0.004275 -0.000078  0.011725 -0.000143  0.000299 -0.000016  0.000200 -0.000001
                                -0.002865  0.000017

   4.1   2    -0.5480   -7.8297  0.000000 -0.000000  0.000000 -0.000000  0.000000 -0.000000  0.000000 -0.000000  0.000000 -0.000000
                                 0.000000 -0.000000  0.000000 -0.000001  0.000002 -0.000006  0.000014 -0.000035  0.000083 -0.000203
                                 0.000552 -0.001549  0.004278 -0.010394  0.023898 -0.036430  0.198103  0.003048 -0.016239 -0.116347
                                 0.005833  0.031787 -0.183079  0.123053 -0.007910 -0.000000  0.000000 -0.000000  0.000000 -0.000000
                                 0.000000 -0.000000  0.000000 -0.000000  0.000001 -0.000003  0.000007 -0.000020  0.000048 -0.000112
                                 0.000251 -0.000631  0.001443 -0.003271  0.005629 -0.007563 -0.010343  0.076538 -0.504080 -0.027127
                                -0.043014  0.009199  0.010332 -0.021672  0.562209 -0.005284  0.000000  0.000000 -0.000000 -0.000000
                                 0.000000  0.000000 -0.000001 -0.000000  0.000002  0.000000 -0.000008 -0.000000  0.000022  0.000000
                                -0.000051 -0.000000  0.000121  0.000001 -0.000251 -0.000001  0.000652  0.000005 -0.001259 -0.000006
                                 0.004154  0.000015  0.012920 -0.000128 -0.027761 -0.000379 -0.047919 -0.000544 -0.040341 -0.000301
                                 0.005071  0.000017  0.012200 -0.000112 -0.012246  0.000110  0.026524 -0.000034 -0.003217  0.000067
                                -0.000000 -0.000000  0.000000  0.000000 -0.000001 -0.000000  0.000002  0.000000 -0.000005 -0.000000
                                 0.000014  0.000001 -0.000031 -0.000002  0.000155  0.000006 -0.002579 -0.000044 -0.013245 -0.000151
                                -0.022026 -0.000138  0.005755  0.000080  0.018568  0.000149  0.003139  0.000145  0.004280 -0.000114
                                 0.000090  0.000093 -0.000004 -0.003737  0.000013  0.000020 -0.001229  0.000008  0.000027  0.000000
                                -0.000000  0.000001 -0.000007  0.000014  0.001995 -0.013484  0.006698  0.060855  0.012491 -0.074803
                                 0.004035 -0.002520  0.010040  0.086484  0.286197  0.437949  0.356789  0.062933  0.005735 -0.002639
                                -0.001709  0.000001 -0.007266  0.000002 -0.024859 -0.000013 -0.000195 -0.000001 -0.002170  0.000102
                                 0.004095  0.000071

   5.1   2    -0.3289   -6.9595 -0.000000  0.000000 -0.000000  0.000000 -0.000000  0.000000 -0.000000  0.000000 -0.000000  0.000000
                                -0.000000  0.000001 -0.000002  0.000006 -0.000015  0.000036 -0.000089  0.000219 -0.000523  0.001259
                                -0.003274  0.008690 -0.022863  0.054311 -0.125415  0.227656 -0.417352 -0.250012 -0.126471  0.459700
                                 0.535530  0.104412  0.392165 -0.268638 -0.003435 -0.000000  0.000000 -0.000000  0.000000 -0.000000
                                 0.000000 -0.000000  0.000000 -0.000000  0.000000 -0.000001  0.000003 -0.000009  0.000021 -0.000049
                                 0.000110 -0.000309  0.000744 -0.001762  0.002622 -0.000979 -0.041687 -0.001231  0.171839  0.035544
                                -0.091307 -0.119937 -0.013027  0.045580 -0.125251 -0.000214  0.000000 -0.000000 -0.000000  0.000000
                                 0.000000 -0.000000 -0.000001  0.000000  0.000004 -0.000000 -0.000012  0.000000  0.000033 -0.000001
                                -0.000054  0.000002  0.000153 -0.000006 -0.000296  0.000012  0.001457 -0.000064 -0.001779  0.000075
                                 0.004435 -0.000187 -0.045038  0.002102 -0.118879  0.005269 -0.164243  0.007556 -0.140642  0.006672
                                -0.055507  0.003208 -0.005965  0.000657  0.039077 -0.001806 -0.021382  0.000695  0.000932  0.000032
                                -0.000000  0.000000  0.000000 -0.000000 -0.000000  0.000000  0.000002 -0.000000 -0.000005  0.000000
                                 0.000012 -0.000001 -0.000037  0.000002  0.000106 -0.000007 -0.000569  0.000042 -0.001061  0.000103
                                 0.000893  0.000051  0.001419 -0.000088  0.003862 -0.000204 -0.001619 -0.000210 -0.002264  0.000022
                                -0.001882 -0.000718  0.000114 -0.005378 -0.000371  0.000272 -0.003373 -0.000420  0.000189  0.000000
                                -0.000000  0.000001 -0.000004  0.000035 -0.001480  0.003163 -0.005429 -0.018125 -0.015542  0.000957
                                 0.001239  0.002400  0.000992  0.008574  0.028271  0.043849  0.034481  0.005120  0.000527 -0.000261
                                -0.000158  0.000004 -0.000565  0.000018 -0.000983  0.000055 -0.000021  0.000001 -0.000110  0.000010
                                 0.000260 -0.000009

   6.1   +    -0.4428   -9.0463  0.000000 -0.000000  0.000000 -0.000000  0.000000 -0.000000  0.000000 -0.000000  0.000000 -0.000000
                                 0.000000 -0.000000  0.000000 -0.000000  0.000000 -0.000001  0.000001 -0.000003  0.000007 -0.000018
                                 0.000047 -0.000130  0.000352 -0.000850  0.001987 -0.003453  0.011535  0.001844 -0.004361 -0.010131
                                -0.004349 -0.000376 -0.010485  0.011551  0.000109 -0.000000  0.000000 -0.000000  0.000000 -0.000000
                                 0.000000 -0.000000  0.000000 -0.000000  0.000000 -0.000000  0.000000 -0.000000  0.000000 -0.000001
                                 0.000001 -0.000003  0.000007 -0.000015  0.000026 -0.000037 -0.000062  0.000365 -0.002505 -0.000457
                                -0.000142  0.000330 -0.000003 -0.000075  0.002861  0.000019 -0.000000 -0.000000  0.000000  0.000000
                                -0.000000 -0.000000  0.000000  0.000002 -0.000000 -0.000008  0.000001  0.000025 -0.000002 -0.000071
                                 0.000003  0.000113 -0.000007 -0.000327  0.000014  0.000627 -0.000072 -0.003229  0.000086  0.003823
                                -0.000212 -0.009461  0.002288  0.106686  0.005948  0.267717  0.008927  0.390654  0.007498  0.342265
                                 0.002363  0.131405  0.000006  0.009320 -0.002005 -0.091867  0.000869  0.033373 -0.000019 -0.000085
                                 0.000000  0.000000 -0.000000 -0.000000  0.000000  0.000001 -0.000000 -0.000004  0.000000  0.000011
                                -0.000001 -0.000028  0.000003  0.000074 -0.000009 -0.000216  0.000048  0.001458  0.000120  0.004342
                                -0.000064  0.002030 -0.000091 -0.002692 -0.000199 -0.006517 -0.000283 -0.010791 -0.000035 -0.004686
                                -0.000003 -0.000203  0.001379 -0.000010 -0.000736  0.004610 -0.000034 -0.000488  0.002415  0.000000
                                -0.000000  0.000000 -0.000000  0.000001 -0.000027 -0.000031 -0.000110 -0.000024 -0.000304 -0.000186
                                 0.000078  0.000051  0.000018  0.000156  0.000538  0.000784  0.000839  0.000239  0.000013 -0.000005
                                 0.000010  0.000151  0.000031  0.000830 -0.000045  0.001052  0.000000  0.000015 -0.000011 -0.000077
                                 0.000011 -0.000377

   7.1   0    -0.0489   -6.9822  0.000000 -0.000000  0.000000 -0.000000  0.000000 -0.000000  0.000000 -0.000000  0.000000 -0.000000
                                 0.000000 -0.000000  0.000001 -0.000002  0.000005 -0.000012  0.000029 -0.000070  0.000167 -0.000401
                                 0.001019 -0.002621  0.006683 -0.015546  0.035118 -0.063870  0.042016  0.105504  0.101099 -0.031588
                                -0.168532 -0.138856 -0.049559 -0.024593 -0.124295  0.000000 -0.000000  0.000000 -0.000000  0.000000
                                -0.000000  0.000000 -0.000000  0.000000 -0.000001  0.000003 -0.000007  0.000021 -0.000051  0.000119
                                -0.000267  0.000703 -0.001641  0.003790 -0.006102  0.005558  0.048610 -0.044808  0.138195 -0.007081
                                 0.078829  0.180318  0.138262 -0.032949 -0.225027  0.038753  0.000000 -0.000000 -0.000000  0.000000
                                 0.000000 -0.000000 -0.000001  0.000000  0.000005 -0.000000 -0.000015  0.000000  0.000042 -0.000001
                                -0.000058  0.000001  0.000182 -0.000004 -0.000339  0.000008  0.002076 -0.000041 -0.002186  0.000048
                                 0.004605 -0.000117 -0.086180  0.001367 -0.181784  0.003333 -0.259207  0.004790 -0.283896  0.004865
                                -0.199838  0.003690 -0.094336  0.001912  0.076097 -0.001176 -0.048875  0.000370 -0.036055  0.000419
                                 0.000000 -0.000000 -0.000000  0.000000  0.000001 -0.000000 -0.000002  0.000000  0.000005 -0.000000
                                -0.000012  0.000000  0.000034 -0.000001 -0.000110  0.000002  0.001100 -0.000018  0.003803 -0.000010
                                 0.011187  0.000016 -0.002989  0.000044 -0.006418  0.000059  0.007862 -0.000242  0.026768 -0.000505
                                -0.002626  0.001238  0.000062 -0.006420  0.001852  0.000282 -0.008708  0.000484  0.000353 -0.000000
                                 0.000000 -0.000002  0.000015 -0.000112  0.003554 -0.003256  0.013922  0.028464  0.042543  0.042469
                                -0.005749 -0.006116 -0.001406 -0.012086 -0.041700 -0.061089 -0.073185 -0.031242 -0.001032  0.000366
                                -0.001086  0.000006 -0.003529  0.000017  0.002924  0.000030 -0.000043 -0.000000  0.000803 -0.000019
                                -0.000829 -0.000010

   8.1   0     0.0178   -2.1960 -0.000000  0.000000 -0.000000  0.000000 -0.000000  0.000000 -0.000000  0.000000 -0.000000  0.000000
                                -0.000000  0.000001 -0.000002  0.000004 -0.000010  0.000023 -0.000058  0.000141 -0.000337  0.000797
                                -0.001899  0.004472 -0.010356  0.022807 -0.051370  0.125538  0.566598 -0.439126 -0.553683  0.381448
                                -0.522748  1.592202 -0.487837  0.627144 -1.498558  0.000000 -0.000000  0.000000 -0.000000  0.000000
                                -0.000000  0.000000 -0.000000  0.000000 -0.000001  0.000004 -0.000011  0.000028 -0.000071  0.000169
                                -0.000380  0.000804 -0.001661  0.003421 -0.007847  0.022696 -0.150827 -0.238046  2.118986  0.177436
                                -0.171513  0.213478 -0.444017  0.264582 -2.111545  1.016231 -0.000000  0.000000  0.000000 -0.000000
                                -0.000000  0.000000  0.000000 -0.000000 -0.000002  0.000000  0.000005 -0.000000 -0.000015  0.000000
                                 0.000026 -0.000000 -0.000070  0.000000  0.000137 -0.000000 -0.000619  0.000004  0.000798 -0.000002
                                -0.002103  0.000000  0.015197 -0.000292  0.047901 -0.000395  0.083164 -0.000485  0.071347 -0.001007
                                 0.026207 -0.000831  0.095149 -0.000574 -0.013197  0.000255 -0.007509 -0.000237 -0.190877  0.000703
                                 0.000000 -0.000000 -0.000000  0.000000  0.000002 -0.000000 -0.000007  0.000000  0.000021 -0.000001
                                -0.000052  0.000001  0.000134 -0.000003 -0.000398  0.000010  0.002863 -0.000075  0.009991 -0.000239
                                 0.014310 -0.000233 -0.005901  0.000148 -0.014184  0.000278 -0.022428  0.000211  0.003889 -0.000105
                                 0.000641 -0.000379 -0.000007  0.001749 -0.000036 -0.000054 -0.001447  0.000211 -0.000045  0.000000
                                -0.000000  0.000002 -0.000012  0.000093 -0.002742  0.001763 -0.010045 -0.023243 -0.038791 -0.054598
                                 0.004688  0.004777  0.000765  0.006668  0.021467  0.034658  0.020548  0.067948  0.000295 -0.000203
                                 0.000394 -0.000001  0.001670 -0.000011  0.011716  0.000048  0.000020  0.000000 -0.000051  0.000009
                                -0.001811  0.000005

                                   1 2px     1 2px     1 2px     1 2px     1 2px     1 2px     1 2px     1 2px     1 2px     1 2px
                                   1 2px     1 2px     1 2px     1 2px     1 2px     1 2px     1 2px     1 2px     1 2px     1 2px
                                   1 2px     1 2px     1 2px     1 2px     1 2px     1 2px     1 2px     1 2px     1 2px     1 2px
                                   1 2px     1 3d1+    1 3d1+    1 3d1+    1 3d1+    1 3d1+    1 3d1+    1 3d1+    1 3d1+    1 3d1+
                                   1 3d1+    1 3d1+    1 3d1+    1 3d1+    1 3d1+    1 3d1+    1 3d1+    1 3d1+    1 3d1+    1 3d1+
                                   1 3d1+    1 3d1+    1 3d1+    1 4f1+    1 4f3+    1 4f1+    1 4f3+    1 4f1+    1 4f3+    1 4f1+
                                   1 4f3+    1 4f1+    1 4f3+    1 4f1+    1 4f3+    1 4f1+    1 4f3+    1 4f1+    1 4f3+    1 4f1+
                                   1 4f3+    1 4f1+    1 4f3+    1 4f1+    1 4f3+    1 4f1+    1 4f3+    1 4f1+    1 4f3+    1 4f1+
                                   1 4f3+    1 4f1+    1 4f3+    1 5g1+    1 5g3+    1 5g1+    1 5g3+    1 5g1+    1 5g3+    2 2px
                                   2 2px     2 2px     2 2px     2 2px     2 2px     2 2px     2 2px     2 3d1+    2 3d1+    2 3d1+
                                   2 3d1+    2 4f1+    2 4f3+    2 4f1+    2 4f3+

   1.2   2    -2.2188  -13.8682 -0.000000  0.000000 -0.000000  0.000000 -0.000000  0.000000 -0.000000  0.000001 -0.000002  0.000007
                                -0.000021  0.000058 -0.000166  0.000397 -0.000927  0.002069 -0.005597  0.013164 -0.030091  0.042757
                                -0.005113 -0.630988  0.134222  1.467373  0.268561  0.023000  0.001825 -0.000364  0.566654 -0.862529
                                 0.000120  0.000000 -0.000000  0.000000 -0.000000  0.000000 -0.000000  0.000001 -0.000002  0.000004
                                -0.000008  0.000017 -0.000033  0.000112  0.001604 -0.000365 -0.004737 -0.001888 -0.000491 -0.000059
                                -0.001186  0.002111  0.000004 -0.000000  0.000000  0.000000 -0.000000 -0.000000  0.000001  0.000000
                                -0.000002 -0.000003  0.000008  0.000002 -0.000017 -0.000025  0.000071 -0.000007 -0.000180 -0.000018
                                -0.000335  0.003728 -0.001382  0.000341 -0.001869  0.002235 -0.001080  0.001641 -0.002626 -0.000401
                                -0.001487 -0.000063 -0.000179 -0.000118  0.000007 -0.000323  0.000063  0.000211  0.000061  0.000060
                                 0.000516  0.001606  0.002626  0.002133  0.000177  0.000016 -0.000016 -0.000075 -0.000452 -0.000545
                                -0.000009  0.000001  0.000001  0.000248 -0.000001

   2.2   2    -0.3799   -7.6736  0.000000 -0.000000  0.000000 -0.000000  0.000000 -0.000000  0.000000 -0.000000  0.000000 -0.000000
                                 0.000001 -0.000002  0.000006 -0.000015  0.000034 -0.000076  0.000201 -0.000471  0.001089 -0.001734
                                 0.001472  0.015582 -0.010063 -0.013062 -0.007275  0.024713  0.030611 -0.000342 -0.012544 -0.008094
                                -0.000249 -0.000000  0.000000 -0.000000  0.000001 -0.000003  0.000011 -0.000030  0.000046 -0.000135
                                 0.000256 -0.001396  0.001579 -0.003625  0.050671  0.116616  0.164724  0.179651  0.102824  0.021545
                                -0.044376  0.026483 -0.004453  0.000000  0.000000 -0.000000 -0.000000  0.000000  0.000000 -0.000001
                                -0.000000  0.000001  0.000000 -0.000006 -0.000000 -0.000002  0.000000 -0.000032 -0.000000  0.001161
                                 0.000027  0.003343  0.000052  0.001650  0.000031 -0.001130 -0.000041 -0.000013 -0.000088  0.011242
                                -0.000126  0.008164 -0.000068  0.001905 -0.000186  0.006680 -0.000378  0.008248 -0.000369  0.008062
                                 0.069110  0.229323  0.360303  0.309103  0.069012  0.004784 -0.002119 -0.001882 -0.007842 -0.018994
                                -0.000193 -0.001408  0.000100  0.003550  0.000095

   3.2   0    -0.0957   -7.9596 -0.000000  0.000000 -0.000000  0.000000 -0.000000  0.000000 -0.000000  0.000000 -0.000000  0.000000
                                -0.000001  0.000003 -0.000009  0.000021 -0.000050  0.000112 -0.000302  0.000712 -0.001655  0.002566
                                -0.001684 -0.028944  0.011093  0.047823  0.010960 -0.046465 -0.052928 -0.020089  0.026163 -0.009490
                                -0.005751 -0.000000  0.000000 -0.000000  0.000001 -0.000006  0.000020 -0.000056  0.000090 -0.000258
                                 0.000497 -0.002508  0.002998 -0.007344  0.079525  0.204750  0.311981  0.290280  0.182407  0.074291
                                -0.069414  0.017810  0.005482  0.000000  0.000000 -0.000000 -0.000000  0.000000  0.000000 -0.000001
                                -0.000000  0.000005  0.000000 -0.000011 -0.000000  0.000034  0.000001 -0.000083 -0.000006  0.000137
                                 0.000024  0.000664  0.000134 -0.002098 -0.000040 -0.000263  0.000015 -0.003004 -0.000104 -0.017916
                                -0.000252 -0.016451 -0.000067  0.002459  0.000628  0.006067  0.001182  0.004803  0.000402 -0.005320
                                -0.045606 -0.152468 -0.238317 -0.209872 -0.086113 -0.003306  0.001396 -0.000445 -0.003191  0.002029
                                -0.000022  0.001453 -0.000067 -0.000813 -0.000066

   4.2   0     0.0152   -2.5673  0.000000 -0.000000  0.000000 -0.000000  0.000000 -0.000000  0.000000 -0.000000  0.000000 -0.000002
                                 0.000005 -0.000013  0.000037 -0.000091  0.000214 -0.000481  0.001149 -0.002554  0.005654 -0.010504
                                 0.018867 -0.041797 -0.178137  1.257793  0.083363 -0.021498  0.306549 -0.194097  0.121108 -1.326984
                                 0.995315  0.000000 -0.000000  0.000000 -0.000000  0.000001 -0.000004  0.000012 -0.000035  0.000074
                                -0.000162  0.000166 -0.000716  0.002966  0.030680  0.010494 -0.014741  0.050320 -0.015461  0.031795
                                -0.027934  0.055198 -0.211181 -0.000000 -0.000000  0.000000  0.000000 -0.000000 -0.000000  0.000001
                                 0.000000 -0.000002 -0.000001  0.000007  0.000002 -0.000009 -0.000006  0.000046  0.000021 -0.000706
                                -0.000099 -0.002818 -0.000410 -0.002696 -0.000051  0.000800  0.000104  0.000693  0.000461 -0.000422
                                 0.000845  0.002166  0.000405  0.000286  0.000075  0.000918  0.000119 -0.001332  0.000008 -0.001170
                                -0.009950 -0.034978 -0.052741 -0.055346 -0.025939 -0.001021  0.000303 -0.000213 -0.001872  0.000347
                                -0.000026  0.000243 -0.000016  0.000364 -0.000012

                                   1 2py     1 2py     1 2py     1 2py     1 2py     1 2py     1 2py     1 2py     1 2py     1 2py
                                   1 2py     1 2py     1 2py     1 2py     1 2py     1 2py     1 2py     1 2py     1 2py     1 2py
                                   1 2py     1 2py     1 2py     1 2py     1 2py     1 2py     1 2py     1 2py     1 2py     1 2py
                                   1 2py     1 3d1-    1 3d1-    1 3d1-    1 3d1-    1 3d1-    1 3d1-    1 3d1-    1 3d1-    1 3d1-
                                   1 3d1-    1 3d1-    1 3d1-    1 3d1-    1 3d1-    1 3d1-    1 3d1-    1 3d1-    1 3d1-    1 3d1-
                                   1 3d1-    1 3d1-    1 3d1-    1 4f1-    1 4f3-    1 4f1-    1 4f3-    1 4f1-    1 4f3-    1 4f1-
                                   1 4f3-    1 4f1-    1 4f3-    1 4f1-    1 4f3-    1 4f1-    1 4f3-    1 4f1-    1 4f3-    1 4f1-
                                   1 4f3-    1 4f1-    1 4f3-    1 4f1-    1 4f3-    1 4f1-    1 4f3-    1 4f1-    1 4f3-    1 4f1-
                                   1 4f3-    1 4f1-    1 4f3-    1 5g1-    1 5g3-    1 5g1-    1 5g3-    1 5g1-    1 5g3-    2 2py
                                   2 2py     2 2py     2 2py     2 2py     2 2py     2 2py     2 2py     2 3d1-    2 3d1-    2 3d1-
                                   2 3d1-    2 4f1-    2 4f3-    2 4f1-    2 4f3-

   1.3   2    -2.2198  -13.8703 -0.000000  0.000000 -0.000000  0.000000 -0.000000  0.000000 -0.000000  0.000001 -0.000002  0.000007
                                -0.000021  0.000058 -0.000166  0.000398 -0.000927  0.002070 -0.005600  0.013170 -0.030107  0.042783
                                -0.005149 -0.630967  0.134603  1.464676  0.268105  0.022499  0.001769 -0.000371  0.566415 -0.859285
                                 0.000122  0.000000 -0.000000  0.000000 -0.000000  0.000000 -0.000000  0.000001 -0.000002  0.000004
                                -0.000008  0.000017 -0.000033  0.000114  0.001605 -0.000378 -0.004728 -0.001842 -0.000465 -0.000059
                                -0.001189  0.002093  0.000004 -0.000000 -0.000000  0.000000  0.000000 -0.000000 -0.000001  0.000000
                                 0.000002 -0.000003 -0.000008  0.000001  0.000016 -0.000022 -0.000068 -0.000016  0.000176 -0.000030
                                 0.000346  0.003617  0.001148  0.000221  0.001760  0.002158  0.000947  0.001472  0.002436 -0.000476
                                 0.001513 -0.000070  0.000188 -0.000119 -0.000007 -0.000319 -0.000054  0.000211 -0.000062  0.000059
                                 0.000510  0.001586  0.002589  0.002090  0.000172  0.000016 -0.000016 -0.000073 -0.000444 -0.000534
                                -0.000009  0.000002  0.000000  0.000245  0.000003

   2.3   2    -0.3880   -7.6495  0.000000 -0.000000  0.000000 -0.000000  0.000000 -0.000000  0.000000 -0.000000  0.000000 -0.000000
                                 0.000001 -0.000002  0.000006 -0.000015  0.000034 -0.000076  0.000202 -0.000472  0.001091 -0.001736
                                 0.001469  0.015615 -0.010075 -0.013009 -0.007345  0.024968  0.030130 -0.000582 -0.012554 -0.008207
                                -0.000257 -0.000000  0.000000 -0.000000  0.000001 -0.000003  0.000010 -0.000028  0.000042 -0.000126
                                 0.000239 -0.001311  0.001476 -0.003366  0.048022  0.109709  0.154323  0.170478  0.098147  0.020845
                                -0.042095  0.025975 -0.004444  0.000000  0.000000 -0.000000 -0.000000  0.000000  0.000000 -0.000001
                                -0.000000  0.000001  0.000000 -0.000007 -0.000000 -0.000001  0.000000 -0.000034 -0.000002  0.001174
                                -0.000008  0.003375  0.000017  0.001709  0.000036 -0.001178  0.000010 -0.000064  0.000028  0.011435
                                 0.000029  0.008184  0.000025  0.001778  0.000135  0.006336  0.000164  0.007951  0.000121  0.008274
                                 0.070954  0.235351  0.369218  0.314370  0.068711  0.004885 -0.002174 -0.001870 -0.007728 -0.019003
                                -0.000192 -0.001406  0.000103  0.003612  0.000094

   3.3   0    -0.0930   -7.9810 -0.000000  0.000000 -0.000000  0.000000 -0.000000  0.000000 -0.000000  0.000000 -0.000000  0.000000
                                -0.000001  0.000003 -0.000009  0.000021 -0.000049  0.000110 -0.000296  0.000699 -0.001626  0.002518
                                -0.001637 -0.028636  0.010682  0.048695  0.010927 -0.046278 -0.053047 -0.020704  0.026011 -0.010808
                                -0.005896 -0.000000  0.000000 -0.000000  0.000001 -0.000006  0.000020 -0.000057  0.000091 -0.000261
                                 0.000503 -0.002538  0.003033 -0.007421  0.080406  0.207050  0.315798  0.295379  0.187275  0.077587
                                -0.070238  0.018139  0.006258  0.000000 -0.000000 -0.000000  0.000000  0.000000 -0.000000 -0.000001
                                 0.000000  0.000005 -0.000000 -0.000011  0.000001  0.000033 -0.000002 -0.000084  0.000010  0.000177
                                -0.000048  0.000793 -0.000248 -0.001937 -0.000047 -0.000302  0.000027 -0.002991  0.000203 -0.017480
                                 0.000495 -0.016215  0.000314  0.002385 -0.000727  0.005898 -0.001722  0.004754 -0.000996 -0.005102
                                -0.043756 -0.146257 -0.228236 -0.199747 -0.081901 -0.003159  0.001338 -0.000499 -0.003412  0.001512
                                -0.000027  0.001381 -0.000069 -0.000753 -0.000045

   4.3   0     0.0148   -2.6028  0.000000 -0.000000  0.000000 -0.000000  0.000000 -0.000000  0.000000 -0.000000  0.000000 -0.000002
                                 0.000005 -0.000013  0.000037 -0.000091  0.000213 -0.000479  0.001149 -0.002557  0.005669 -0.010481
                                 0.018536 -0.037622 -0.174257  1.217543  0.079789 -0.016368  0.307195 -0.177964  0.114922 -1.288924
                                 0.980663  0.000000 -0.000000  0.000000 -0.000000  0.000001 -0.000004  0.000011 -0.000034  0.000071
                                -0.000156  0.000148 -0.000687  0.002875  0.030673  0.011577 -0.012484  0.051494 -0.014332  0.030798
                                -0.027915  0.054417 -0.208527 -0.000000 -0.000000  0.000000  0.000000 -0.000000 -0.000000  0.000001
                                 0.000000 -0.000002 -0.000000  0.000007  0.000001 -0.000008 -0.000002  0.000042  0.000002 -0.000696
                                -0.000090 -0.002804 -0.000093 -0.002749 -0.000527  0.000766  0.000264  0.000585  0.000131 -0.000632
                                -0.001021  0.001787 -0.002009  0.000286 -0.000084  0.000920 -0.000213 -0.001315  0.000071 -0.001176
                                -0.010011 -0.035140 -0.052947 -0.055097 -0.026403 -0.001015  0.000305 -0.000229 -0.001942  0.000264
                                -0.000028  0.000242 -0.000020  0.000355  0.000004

                                   1 3d2-    1 3d2-    1 3d2-    1 3d2-    1 3d2-    1 3d2-    1 3d2-    1 3d2-    1 3d2-    1 3d2-
                                   1 3d2-    1 3d2-    1 3d2-    1 3d2-    1 3d2-    1 3d2-    1 3d2-    1 3d2-    1 3d2-    1 3d2-
                                   1 3d2-    1 3d2-    1 4f2-    1 4f2-    1 4f2-    1 4f2-    1 4f2-    1 4f2-    1 4f2-    1 4f2-
                                   1 4f2-    1 4f2-    1 4f2-    1 4f2-    1 4f2-    1 4f2-    1 4f2-    1 5g2-    1 5g4-    1 5g2-
                                   1 5g4-    1 5g2-    1 5g4-    2 3d2-    2 3d2-    2 3d2-    2 3d2-    2 4f2-    2 4f2-

   1.4   2    -0.4087   -8.9705 -0.000000  0.000000 -0.000000  0.000002 -0.000008  0.000024 -0.000069  0.000108 -0.000314  0.000599
                                -0.003163  0.003695 -0.009121  0.109517  0.264254  0.380519  0.344867  0.142568  0.012932 -0.093634
                                 0.035746 -0.000163  0.000000 -0.000000  0.000001 -0.000004  0.000012 -0.000030  0.000079 -0.000230
                                 0.001544  0.004635  0.002431 -0.002898 -0.006916 -0.011603 -0.005578  0.002664 -0.000093  0.007276
                                -0.000356  0.003659 -0.000286  0.000161  0.000890  0.001046  0.000016 -0.000092 -0.000349

   2.4   0     0.0586   -2.0331 -0.000000  0.000000 -0.000001  0.000004 -0.000016  0.000052 -0.000150  0.000383 -0.000864  0.001828
                                -0.003718  0.008840 -0.032032 -0.187307  0.101572  0.433300 -0.164663  0.200200 -0.472727  0.173469
                                -0.460419  1.263872 -0.000000  0.000001 -0.000006  0.000020 -0.000057  0.000145 -0.000362  0.001078
                                -0.007982 -0.024013 -0.023452  0.015623  0.028246  0.016798 -0.018647 -0.000126  0.000004 -0.000467
                                 0.000047  0.000532 -0.000066  0.000203  0.000491  0.002533  0.000010 -0.000042  0.000223

   3.4   0     0.1893   -2.8780  0.000000 -0.000000  0.000003 -0.000012  0.000048 -0.000160  0.000461 -0.001152  0.002628 -0.005536
                                 0.011982 -0.027116  0.096975  0.507370 -0.397881 -1.441330  0.379449 -0.695863  1.901523 -0.473031
                                 1.358593 -0.964910 -0.000001  0.000004 -0.000019  0.000066 -0.000186  0.000475 -0.001188  0.003556
                                -0.026634 -0.081136 -0.081765  0.052169  0.095887  0.059045 -0.088214 -0.000423  0.000013 -0.002193
                                 0.000186  0.004310 -0.000356  0.000190  0.004370 -0.002637  0.000078  0.000268 -0.001979

 HOMO      2.2    -0.379886 =     -10.3372eV
 LUMO      3.2    -0.095711 =      -2.6044eV
 LUMO-HOMO         0.284175 =       7.7328eV

 No convergence



 **********************************************************************************************************************************
 DATASETS  * FILE   NREC   LENGTH (MB)   RECORD NAMES
              1      19       22.43       500      610      700      900      950      970     1000      129      960     1100
                                          VAR    BASINP    GEOM    SYMINP    ZMAT    AOBASIS   BASIS     P2S    ABASIS      S
                                         1400     1410     1420     1200     1210     1080     1600     1650     1700
                                           T        V       ECP      H0       H01     AOSYM     SMH    MOLCAS    OPER

              2       4        4.45       700     1000      520     2100
                                         GEOM     BASIS   MCVARS     RHF

 PROGRAMS   *        TOTAL       RHF       INT
 CPU TIMES  *       258.62    101.18    157.03
 REAL TIME  *       274.98 SEC
 DISK USED  *         9.12 GB
 SF USED    *         0.23 MB
 GA USED    *         0.00 MB       (max)       0.00 MB       (current)
 **********************************************************************************************************************************
   -->
   <time start="07:21:30" end="07:26:04" cpu="258.62" system="15.48" real="274.98"/>
   <storage units="megabyte" memory="8001.84" sf="0.23" df="388.75" eaf="8729.55" ga="0.0"/>
  </jobstep><!--
 SETTING SCF            =       -93.64310203  AU
 SETTING _CC_NORM_MAX   =         2.00000000
  --><jobstep command="RCCSD(T)" commandset="CCSD">
   <!--


 PROGRAM * CCSD (Restricted open-shell coupled cluster)     Authors: C. Hampel, H.-J. Werner, 1991, M. Deegan, P.J. Knowles, 1992


 Convergence thresholds:  THRVAR = 1.00D-08  THRDEN = 1.00D-06

 CCSD(T)     terms to be evaluated (factor= 1.000)


 Number of closed-shell orbitals:  10 (   5   2   2   1 )
 Number of active  orbitals:        1 (   1   0   0   0 )
 Number of external orbitals:     430 ( 176 103 103  48 )

 Memory could be reduced to 382.54 Mwords without degradation in triples

 Number of N-1 electron functions:              21
 Number of N-2 electron functions:             210
 Number of singly external CSFs:              2867
 Number of doubly external CSFs:           7632564
 Total number of CSFs:                     7635431

 Molecular orbitals read from record     2100.2  Type=RHF/CANONICAL (state 1.1)

 ?Error: RHF not converged. This error exit can be avoided using the IGNORE_ERROR option on the ORBITAL directive
   --><error/><!--
  --></jobstep><!--
  -->
  <input>
  <!--
 --></job><!--
--></molpro>
