
 Primary working directories    : /global/cscratch1/sd/haihan
 Secondary working directories  : /global/cscratch1/sd/haihan
 Wavefunction directory         : /global/homes/h/haihan/Research/ECP/f_group_element_ecps/Y/Molpro/molecule/YH/AE/wfu/
 Main file repository           : /global/cscratch1/sd/haihan/

 SHA1      : 19cd028119e0e09f93f0674bd8af7968d9b3eff6
 NAME      : 2015.1.36
 ARCHNAME  : linux/x86_64
 FC        : /opt/cray/pe/craype/2.5.14/bin/ftn
 BLASLIB   : -L/opt/intel/compilers_and_libraries_2018.1.163/linux/mkl/lib/intel64 -Wl,-_start-group -lmkl_intel_ilp64 -lmkl_intel_thread -lmkl_core -Wl,-_end-group -liomp5
 id        : lbl

 Nodes     nprocs
 nid02152    11
 Number of processes for MPI-2 version of Molpro:   nprocs(total)=   12   nprocs(compute)=   11   nprocs(helper)=    1

 Using customized tuning parameters: mindgm=7; mindgv=16; mindgc=1; mindgr=1; noblas=0; minvec=7
 default implementation of scratch files=sf  

 ***,Calculation for all-electron YH molecule, SCF and CCSD(T)
 memory,1,g
 gthresh,twoint=1.0E-12
 gthresh,throvl=1.0E-12
 
 set,dkroll=1,dkho=10,dkhp=4
 basis={
 Including file /global/u2/h/haihan/Research/ECP/f_group_element_ecps/Y/Molpro/molecule/YH/AE/r_2.00/../generate/Y-aug-cc-pwCVTZ.basis
 Including file /global/u2/h/haihan/Research/ECP/f_group_element_ecps/Y/Molpro/molecule/YH/AE/r_2.00/../generate/H-aug-cc-pVTZ.basis
 }
 
 Y_ccsd=-3384.082171
 H_ccsd=-0.49982785
 
                                                                                 !These are the wf cards parameters
 ne = 40
 symm = 1
 ss= 0
 
                                                                                 !There are irrep cards paramters
 A1=11
 B1=4
 B2=4
 A2=1
 
 
 geometry={
     2
     YH molecule
     Y 0.0 0.0 0.0
     H 0.0 0.0 2.00
 }
 {rhf,nitord=20;
  maxit,200;
  wf,ne,symm,ss
  occ,A1,B1,B2,A2
  closed,A1,B1,B2,A2
  print,orbitals=2
 }
 scf=energy
 _CC_NORM_MAX=2.0
 {rccsd(t);maxit,100;core}
 ccsd=energy
 bind=ccsd-Y_ccsd-H_ccsd
 
 
 table,2.00,scf,ccsd,bind
 save
 type,csv
 

 Variables initialized (889), CPU time= 0.01 sec
 Commands  initialized (702), CPU time= 0.01 sec, 572 directives.
 Default parameters read. Elapsed time= 0.16 sec

 Checking input...
 Passed
1


                                         ***  PROGRAM SYSTEM MOLPRO  ***
                                       Copyright, TTI GmbH Stuttgart, 2015
                                    Version 2015.1 linked Dec 29 2018 15:55:43


 **********************************************************************************************************************************
 LABEL *   Calculation for all-electron YH molecule, SCF and CCSD(T)                     
  64 bit mpp version                                                                     DATE: 03-Sep-22          TIME: 04:49:57  
 **********************************************************************************************************************************

 SHA1:             19cd028119e0e09f93f0674bd8af7968d9b3eff6
 **********************************************************************************************************************************

 THRESHOLDS:

 ZERO    =  1.00D-12  ONEINT  =  1.00D-12  TWOINT  =  1.00D-12  PREFAC  =  1.00D-14  LOCALI  =  1.00D-09  EORDER  =  1.00D-04
 ENERGY  =  0.00D+00  ETEST   =  0.00D+00  EDENS   =  0.00D+00  THRDEDEF=  1.00D-06  GRADIENT=  1.00D-02  STEP    =  1.00D-03
 ORBITAL =  1.00D-05  CIVEC   =  1.00D-05  COEFF   =  1.00D-04  PRINTCI =  5.00D-02  PUNCHCI =  9.90D+01  OPTGRAD =  3.00D-04
 OPTENERG=  1.00D-06  OPTSTEP =  3.00D-04  THRGRAD =  1.00D-10  COMPRESS=  1.00D-11  VARMIN  =  1.00D-07  VARMAX  =  1.00D-03
 THRDOUB =  0.00D+00  THRDIV  =  1.00D-05  THRRED  =  1.00D-07  THRPSP  =  1.00D+00  THRDC   =  1.00D-10  THRCS   =  1.00D-10
 THRNRM  =  1.00D-08  THREQ   =  0.00D+00  THRDE   =  1.00D+00  THRREF  =  1.00D-05  SPARFAC =  1.00D+00  THRDLP  =  1.00D-07
 THRDIA  =  1.00D-10  THRDLS  =  1.00D-07  THRGPS  =  0.00D+00  THRKEX  =  0.00D+00  THRDIS  =  2.00D-01  THRVAR  =  1.00D-10
 THRLOC  =  1.00D-06  THRGAP  =  1.00D-06  THRLOCT = -1.00D+00  THRGAPT = -1.00D+00  THRORB  =  1.00D-06  THRMLTP =  0.00D+00
 THRCPQCI=  1.00D-10  KEXTA   =  0.00D+00  THRCOARS=  0.00D+00  SYMTOL  =  1.00D-06  GRADTOL =  1.00D-06  THROVL  =  1.00D-08
 THRORTH =  1.00D-08  GRID    =  1.00D-06  GRIDMAX =  1.00D-03  DTMAX   =  0.00D+00  THROCCDE=  1.00D-01  THROCCDE=  1.00D-01



 THRESHOLDS:

 ZERO    =  1.00D-12  ONEINT  =  1.00D-12  TWOINT  =  1.00D-12  PREFAC  =  1.00D-14  LOCALI  =  1.00D-09  EORDER  =  1.00D-04
 ENERGY  =  0.00D+00  ETEST   =  0.00D+00  EDENS   =  0.00D+00  THRDEDEF=  1.00D-06  GRADIENT=  1.00D-02  STEP    =  1.00D-03
 ORBITAL =  1.00D-05  CIVEC   =  1.00D-05  COEFF   =  1.00D-04  PRINTCI =  5.00D-02  PUNCHCI =  9.90D+01  OPTGRAD =  3.00D-04
 OPTENERG=  1.00D-06  OPTSTEP =  3.00D-04  THRGRAD =  1.00D-10  COMPRESS=  1.00D-11  VARMIN  =  1.00D-07  VARMAX  =  1.00D-03
 THRDOUB =  0.00D+00  THRDIV  =  1.00D-05  THRRED  =  1.00D-07  THRPSP  =  1.00D+00  THRDC   =  1.00D-10  THRCS   =  1.00D-10
 THRNRM  =  1.00D-08  THREQ   =  0.00D+00  THRDE   =  1.00D+00  THRREF  =  1.00D-05  SPARFAC =  1.00D+00  THRDLP  =  1.00D-07
 THRDIA  =  1.00D-10  THRDLS  =  1.00D-07  THRGPS  =  0.00D+00  THRKEX  =  0.00D+00  THRDIS  =  2.00D-01  THRVAR  =  1.00D-10
 THRLOC  =  1.00D-06  THRGAP  =  1.00D-06  THRLOCT = -1.00D+00  THRGAPT = -1.00D+00  THRORB  =  1.00D-06  THRMLTP =  0.00D+00
 THRCPQCI=  1.00D-10  KEXTA   =  0.00D+00  THRCOARS=  0.00D+00  SYMTOL  =  1.00D-06  GRADTOL =  1.00D-06  THROVL  =  1.00D-12
 THRORTH =  1.00D-08  GRID    =  1.00D-06  GRIDMAX =  1.00D-03  DTMAX   =  0.00D+00  THROCCDE=  1.00D-01  THROCCDE=  1.00D-01


 SETTING DKROLL         =         1.00000000                                  
 SETTING DKHO           =        10.00000000                                  
 SETTING DKHP           =         4.00000000                                  

 Variable memory set to 1000000000 words,  buffer space   230000 words

 SETTING BASIS          =    USERDEF
 SETTING Y_CCSD         =     -3384.08217100                                  
 SETTING H_CCSD         =        -0.49982785                                  
 SETTING NE             =        40.00000000                                  
 SETTING SYMM           =         1.00000000                                  
 SETTING SS             =     0.00000000D+00                                  
 SETTING A1             =        11.00000000                                  
 SETTING B1             =         4.00000000                                  
 SETTING B2             =         4.00000000                                  
 SETTING A2             =         1.00000000                                  

Geometry recognized as XYZ



 Recomputing integrals since basis changed


 Using spherical harmonics



 PROGRAM * SEWARD (Integral evaluation for generally contracted gaussian basis sets)     Author: Roland Lindh, 1990

 Geometry written to block  1 of record 700


 Point group  C2v 



 ATOMIC COORDINATES

 NR  ATOM    CHARGE       X              Y              Z

   1  Y      39.00    0.000000000    0.000000000    0.000000000
   2  H       1.00    0.000000000    0.000000000    3.779452249

 Bond lengths in Bohr (Angstrom)

 1-2  3.779452249
     ( 2.000000000)

 NUCLEAR CHARGE:                   40
 NUMBER OF PRIMITIVE AOS:         341
 NUMBER OF SYMMETRY AOS:          289
 NUMBER OF CONTRACTIONS:          289   ( 127A1  +  65B1  +  65B2  +  32A2  )
 NUMBER OF CORE ORBITALS:          18   (   9A1  +   4B1  +   4B2  +   1A2  )
 NUMBER OF VALENCE ORBITALS:        7   (   4A1  +   1B1  +   1B2  +   1A2  )


 NUCLEAR REPULSION ENERGY   10.31895561

 One-electron integrals computed with SEWARD

 10nd-order Douglas-Kroll-Hess method activated. McWeeny DKH parametrization is used.

 Computing Douglas-Kroll / X2C integrals

 AO integral compression algorithm  1   Integral accuracy      1.0D-12

     718.799 MB (compressed) written to integral file ( 35.0%)

     Node minimum: 25.166 MB, node maximum: 192.414 MB


 NUMBER OF SORTED TWO-ELECTRON INTEGRALS:   20691084.     BUFFER LENGTH:  32768
 NUMBER OF SEGMENTS:   2  SEGMENT LENGTH:   15985734      RECORD LENGTH: 524288

 Memory used in sort:      16.54 MW

 SORT1 READ   256676862. AND WROTE     8292338. INTEGRALS IN     25 RECORDS. CPU TIME:     3.07 SEC, REAL TIME:     3.76 SEC
 SORT2 READ    90117601. AND WROTE   227370829. INTEGRALS IN   1177 RECORDS. CPU TIME:     0.35 SEC, REAL TIME:     0.62 SEC

 Node minimum:    20662678.  Node maximum:    20691084. integrals

 OPERATOR DM      FOR CENTER  0  COORDINATES:    0.000000    0.000000    0.000000

 EXTRA SYMMETRY OF AOS IN SYMMETRY 1:   1 1 1 1 1 1 1 1 1 1   1 1 1 1 1 1 1 1 1 1   1 1 1 1 1 1 1 1 1 1   1 1 1 1 1 1 1 1 1 1
                                        1 1 1 1 1 1 1 1 1 1   1 1 1 1 1 1 1 1 2 1   2 1 2 1 2 1 2 1 2 1   2 1 2 1 2 1 2 1 2 1
                                        2 1 2 1 2 1 2 1 2 1   2 1 2 1 2 1 2 1 2 1   2 1 2 1 2 1 3 2 1 3   2 1 3 2 1 1 1 1 1 1
                                        1 1 1 1 2 1 2
 EXTRA SYMMETRY OF AOS IN SYMMETRY 2:   1 1 1 1 1 1 1 1 1 1   1 1 1 1 1 1 1 1 1 1   1 1 1 1 1 1 1 1 1 1   1 1 1 1 1 1 1 1 1 1
                                        1 1 1 1 1 1 1 2 1 2   1 2 1 2 1 2 1 2 1 2   1 1 1 1 1
 EXTRA SYMMETRY OF AOS IN SYMMETRY 3:   1 1 1 1 1 1 1 1 1 1   1 1 1 1 1 1 1 1 1 1   1 1 1 1 1 1 1 1 1 1   1 1 1 1 1 1 1 1 1 1
                                        1 1 1 1 1 1 1 2 1 2   1 2 1 2 1 2 1 2 1 2   1 1 1 1 1
 EXTRA SYMMETRY OF AOS IN SYMMETRY 4:   1 1 1 1 1 1 1 1 1 1   1 1 1 1 1 1 1 1 1 1   1 1 1 1 1 2 1 2 1 2   1 1

 Eigenvalues of metric

         1 0.105E-06 0.183E-06 0.133E-05 0.262E-05 0.390E-05 0.139E-04 0.156E-04 0.168E-04
         2 0.189E-06 0.268E-05 0.145E-04 0.168E-04 0.686E-04 0.144E-03 0.166E-03 0.795E-03
         3 0.189E-06 0.268E-05 0.145E-04 0.168E-04 0.686E-04 0.144E-03 0.166E-03 0.795E-03
         4 0.168E-04 0.686E-04 0.167E-03 0.105E-02 0.382E-02 0.798E-02 0.224E-01 0.452E-01


 **********************************************************************************************************************************
 DATASETS  * FILE   NREC   LENGTH (MB)   RECORD NAMES
              1      22       21.69       500      610      700      900      950      970     1000      129      960     1700   
                                          VAR    BASINP    GEOM    SYMINP    ZMAT    AOBASIS   BASIS     P2S    ABASIS    OPER   
                                         1101     1401     1411     1412     1650     1100     1400     1410     1200     1210   
                                          SR      EKINR    POTR     PVPR    MOLCAS      S      EKIN      POT      H0       H01  
                                         1080     1600   
                                         AOSYM     SMH  

 PROGRAMS   *        TOTAL       INT
 CPU TIMES  *        48.73     48.53
 REAL TIME  *        51.52 SEC
 DISK USED  *         1.84 GB      
 GA USED    *         0.00 MB       (max)       0.00 MB       (current)
 **********************************************************************************************************************************


 PROGRAM * RHF-SCF (CLOSED SHELL)       Authors: W. Meyer, H.-J. Werner


 NUMBER OF ELECTRONS:      20+   20-    SPACE SYMMETRY=1    SPIN SYMMETRY: Singlet 
 CONVERGENCE THRESHOLDS:    1.00E-05 (Density)    1.00E-07 (Energy)
 MAX. NUMBER OF ITERATIONS:      200
 INTERPOLATION TYPE:            DIIS
 INTERPOLATION STEPS:              2 (START)      1 (STEP)
 LEVEL SHIFTS:                  0.00 (CLOSED)  0.00 (OPEN) 

 Number of closed-shell orbitals:   20 (  11   4   4   1 )


 Orbital guess generated from atomic densities. Full valence occupancy:   13   5   5   2

 Molecular orbital dump at record        2100.2

 ITERATION    DDIFF          GRAD             ENERGY        2-EL.EN.            DIPOLE MOMENTS         DIIS   ORB.
    1      0.000D+00      0.000D+00     -3383.41331574   2576.280603    0.00000    0.00000   -0.91372    0    start
    2      0.000D+00      0.552D-02     -3383.54267547   2605.646974    0.00000    0.00000   -0.29908    1    diag
    3      0.237D-01      0.326D-02     -3383.55059140   2600.356447    0.00000    0.00000   -0.48645    2    diag
    4      0.603D-02      0.598D-03     -3383.55178289   2600.350183    0.00000    0.00000   -0.54144    3    diag
    5      0.199D-02      0.156D-03     -3383.55207359   2600.549902    0.00000    0.00000   -0.57351    4    diag
    6      0.895D-03      0.491D-04     -3383.55210564   2600.629480    0.00000    0.00000   -0.59529    5    diag
    7      0.351D-03      0.151D-04     -3383.55210809   2600.639981    0.00000    0.00000   -0.60282    6    diag
    8      0.616D-04      0.558D-05     -3383.55210846   2600.645517    0.00000    0.00000   -0.60680    7    diag
    9      0.166D-04      0.233D-05     -3383.55210853   2600.646593    0.00000    0.00000   -0.60808    8    diag
   10      0.126D-04      0.102D-05     -3383.55210856   2600.648463    0.00000    0.00000   -0.60883    9    orth
   11      0.725D-05      0.371D-06     -3383.55210856   2600.648561    0.00000    0.00000   -0.60894    0    orth

 Final occupancy:  11   4   4   1

 !RHF STATE 1.1 Energy              -3383.552108557657
 Nuclear energy                        10.31895561
 One-electron energy                -4694.19534450
 Two-electron energy                 1300.32428032
 Virial quotient                       -0.91550451
 !RHF STATE 1.1 Dipole moment           0.00000000     0.00000000    -0.60893867
 Dipole moment /Debye                   0.00000000     0.00000000    -1.54766634

 ELECTRON ORBITALS
 =================


   Orb  Occ    Energy  Couls-En    Coefficients

                                   1 1s      1 1s      1 1s      1 1s      1 1s      1 1s      1 1s      1 1s      1 1s      1 1s   
                                   1 1s      1 1s      1 1s      1 1s      1 1s      1 1s      1 1s      1 1s      1 1s      1 1s   
                                   1 1s      1 1s      1 1s      1 1s      1 1s      1 1s      1 1s      1 1s      1 1s      1 1s   
                                   1 1s      1 2pz     1 2pz     1 2pz     1 2pz     1 2pz     1 2pz     1 2pz     1 2pz     1 2pz  
                                   1 2pz     1 2pz     1 2pz     1 2pz     1 2pz     1 2pz     1 2pz     1 2pz     1 2pz     1 2pz  
                                   1 2pz     1 2pz     1 2pz     1 2pz     1 2pz     1 2pz     1 2pz     1 3d0     1 3d2+    1 3d0  
                                   1 3d2+    1 3d0     1 3d2+    1 3d0     1 3d2+    1 3d0     1 3d2+    1 3d0     1 3d2+    1 3d0  
                                   1 3d2+    1 3d0     1 3d2+    1 3d0     1 3d2+    1 3d0     1 3d2+    1 3d0     1 3d2+    1 3d0  
                                   1 3d2+    1 3d0     1 3d2+    1 3d0     1 3d2+    1 3d0     1 3d2+    1 3d0     1 3d2+    1 3d0  
                                   1 3d2+    1 3d0     1 3d2+    1 3d0     1 3d2+    1 3d0     1 3d2+    1 4f0     1 4f2+    1 4f0  
                                   1 4f2+    1 4f0     1 4f2+    1 4f0     1 4f2+    1 5g0     1 5g4+    1 5g2+    1 5g0     1 5g4+ 
                                   1 5g2+    1 5g0     1 5g4+    1 5g2+    2 1s      2 1s      2 1s      2 1s      2 1s      2 1s   
                                   2 2pz     2 2pz     2 2pz     2 3d0     2 3d2+    2 3d0     2 3d2+ 

   1.1   2  -629.7144-1406.3501  0.000041  0.000109  0.000302  0.000698  0.001520  0.003159  0.006523  0.013590  0.028843  0.061543
                                 0.126272  0.229722  0.321095  0.274181 -0.006117  0.101217  0.004785  0.003367 -0.005687  0.015016
                                -0.013884  0.011356 -0.010670  0.003813 -0.002309  0.000693 -0.000069  0.000020 -0.000010  0.000014
                                -0.000000  0.000000  0.000000  0.000000  0.000000  0.000000  0.000000  0.000000  0.000000  0.000001
                                 0.000001  0.000001 -0.000007  0.000011 -0.000009  0.000028 -0.000060  0.000088 -0.000089  0.000067
                                -0.000036  0.000012 -0.000010  0.000007  0.000003  0.000005  0.000000 -0.000000 -0.000000 -0.000000
                                -0.000000 -0.000000  0.000000 -0.000000 -0.000000 -0.000000 -0.000000 -0.000000  0.000000  0.000000
                                -0.000000 -0.000000  0.000000  0.000000 -0.000000 -0.000000  0.000000  0.000001 -0.000000 -0.000003
                                 0.000000  0.000004 -0.000000 -0.000003  0.000000 -0.000002 -0.000000  0.000003  0.000000  0.000003
                                -0.000000 -0.000001  0.000000  0.000002 -0.000000  0.000000  0.000000  0.000000 -0.000000 -0.000001
                                 0.000000  0.000002  0.000000  0.000001 -0.000000 -0.000000 -0.000000  0.000000  0.000000  0.000000
                                 0.000000  0.000000 -0.000000  0.000000  0.000000 -0.000000 -0.000000 -0.000000 -0.000008 -0.000011
                                -0.000000 -0.000001  0.000002  0.000000  0.000000  0.000001 -0.000000

   2.1   2   -88.9289 -282.0656 -0.000013 -0.000036 -0.000099 -0.000230 -0.000501 -0.001045 -0.002170 -0.004562 -0.009831 -0.021569
                                -0.046648 -0.094077 -0.160101 -0.184512  0.004494 -0.024637  0.372690  0.539894  0.216527  0.030640
                                -0.009880  0.040193 -0.038435  0.015469 -0.009845  0.002976 -0.000348  0.000093 -0.000048  0.000068
                                -0.000001  0.000000  0.000000  0.000000  0.000000  0.000001  0.000004  0.000013  0.000035  0.000077
                                 0.000127  0.000163  0.000099  0.000019 -0.000005  0.000103 -0.000228  0.000358 -0.000379  0.000300
                                -0.000166  0.000058 -0.000050  0.000032  0.000016  0.000024  0.000001 -0.000000  0.000000 -0.000000
                                -0.000000 -0.000001  0.000000 -0.000003 -0.000000 -0.000016  0.000000 -0.000020 -0.000000  0.000009
                                 0.000000 -0.000002 -0.000000 -0.000000  0.000000 -0.000003 -0.000000  0.000004 -0.000000 -0.000013
                                 0.000000  0.000022 -0.000000 -0.000015  0.000000 -0.000011 -0.000000  0.000016  0.000000  0.000014
                                -0.000000 -0.000003  0.000000  0.000010 -0.000000  0.000000  0.000000  0.000004  0.000000 -0.000003
                                -0.000000  0.000008 -0.000000  0.000004  0.000000 -0.000001 -0.000000  0.000000  0.000000 -0.000000
                                -0.000000  0.000002 -0.000000  0.000000  0.000000  0.000000 -0.000001 -0.000001 -0.000038 -0.000053
                                -0.000000 -0.000004  0.000007  0.000001 -0.000000  0.000005 -0.000000

   3.1   2   -78.9742 -268.6768  0.000000  0.000000  0.000000  0.000000  0.000000  0.000000  0.000001  0.000002  0.000005  0.000010
                                 0.000022  0.000044  0.000075  0.000087 -0.000003  0.000009 -0.000190 -0.000231 -0.000100  0.000036
                                -0.000075  0.000129 -0.000160  0.000121 -0.000110  0.000057 -0.000016  0.000013  0.000027  0.000002
                                 0.000003  0.000014  0.000053  0.000206  0.000769  0.002805  0.009658  0.030133  0.082173  0.183300
                                 0.308913  0.340241  0.185090  0.005658  0.036906  0.012852 -0.016548  0.018809 -0.014317  0.007387
                                -0.002842  0.000385 -0.000151  0.000076  0.000001  0.000007 -0.000000  0.000000  0.000000  0.000000
                                -0.000000  0.000002  0.000000  0.000010 -0.000000  0.000032  0.000000  0.000032 -0.000000 -0.000009
                                 0.000000  0.000002 -0.000000  0.000001  0.000000  0.000004 -0.000000  0.000000  0.000000  0.000007
                                -0.000000 -0.000017  0.000000  0.000018  0.000000 -0.000015 -0.000000  0.000013  0.000000  0.000015
                                -0.000000 -0.000006  0.000000  0.000002 -0.000000  0.000000  0.000000 -0.000005  0.000000 -0.000000
                                 0.000000  0.000005 -0.000000  0.000000  0.000000  0.000000  0.000000  0.000000  0.000001 -0.000000
                                -0.000000  0.000001  0.000000 -0.000000 -0.000000 -0.000000  0.000001 -0.000005 -0.000041 -0.000011
                                -0.000001  0.000003  0.000015 -0.000001 -0.000000  0.000000  0.000000

   4.1   2   -15.3744  -94.0696  0.000006  0.000015  0.000041  0.000095  0.000207  0.000433  0.000899  0.001891  0.004085  0.008996
                                 0.019595  0.040101  0.070216  0.085349 -0.003479  0.012425 -0.239542 -0.483854 -0.193977 -0.035264
                                 0.519411  0.749284 -0.089101  0.234607 -0.066640  0.026207 -0.001481  0.000540 -0.000297  0.000450
                                -0.000003 -0.000000 -0.000000 -0.000000 -0.000001 -0.000003 -0.000010 -0.000031 -0.000087 -0.000200
                                -0.000356 -0.000407 -0.000174  0.000191  0.000561  0.001663 -0.001218  0.002946 -0.002393  0.002129
                                -0.001259  0.000442 -0.000416  0.000178  0.000111  0.000168  0.000009 -0.000000  0.000000 -0.000000
                                -0.000000 -0.000002  0.000000 -0.000007 -0.000000 -0.000015  0.000000 -0.000002 -0.000000 -0.000057
                                 0.000000 -0.000068 -0.000000 -0.000244  0.000000 -0.000213 -0.000000  0.000095  0.000000 -0.000201
                                -0.000000  0.000296  0.000000 -0.000195 -0.000000 -0.000129  0.000000  0.000142 -0.000000  0.000054
                                 0.000000  0.000005 -0.000000  0.000065  0.000000  0.000003 -0.000000  0.000031  0.000000 -0.000080
                                -0.000000  0.000052  0.000000  0.000027  0.000000 -0.000002 -0.000000 -0.000000 -0.000004 -0.000000
                                 0.000000  0.000020  0.000000  0.000000 -0.000000  0.000002 -0.000021  0.000027 -0.000211 -0.000356
                                 0.000005 -0.000069  0.000008  0.000015  0.000000  0.000056 -0.000000

   5.1   2   -12.0398  -87.7987 -0.000000 -0.000000 -0.000000 -0.000000 -0.000001 -0.000001 -0.000002 -0.000005 -0.000010 -0.000022
                                -0.000049 -0.000100 -0.000174 -0.000218  0.000027 -0.000051  0.000632  0.001170  0.000596 -0.000504
                                -0.000591 -0.004247  0.003101 -0.002100  0.001749 -0.000928 -0.000028  0.000484  0.000063  0.000024
                                 0.000010 -0.000006 -0.000022 -0.000087 -0.000327 -0.001196 -0.004147 -0.013100 -0.036666 -0.084999
                                -0.151247 -0.169338 -0.004708 -0.000354  0.297344  0.469672 -0.000570  0.313270 -0.028776  0.075448
                                -0.009544  0.003165 -0.000783  0.000615 -0.000011  0.000024  0.000001  0.000000  0.000000  0.000001
                                 0.000000  0.000005 -0.000000  0.000016  0.000000  0.000042  0.000000  0.000052  0.000000  0.000091
                                -0.000000  0.000203  0.000000  0.000477  0.000000  0.000456  0.000000 -0.000163 -0.000000  0.000257
                                 0.000000 -0.000431 -0.000000  0.000282  0.000000  0.000165 -0.000000 -0.000097  0.000000  0.000275
                                -0.000000 -0.000151 -0.000000  0.000013  0.000000  0.000001 -0.000000 -0.000203 -0.000000  0.000194
                                 0.000000  0.000026 -0.000000 -0.000011  0.000000 -0.000008 -0.000000  0.000000  0.000042  0.000000
                                -0.000000 -0.000017 -0.000000 -0.000000  0.000001 -0.000006  0.000056 -0.000144 -0.000438 -0.000063
                                -0.000023  0.000161  0.000253 -0.000028 -0.000000 -0.000068  0.000000

   6.1   2    -6.5488  -77.6452  0.000000 -0.000000 -0.000000  0.000000 -0.000000  0.000000  0.000000  0.000000  0.000000  0.000000
                                -0.000000 -0.000000  0.000000 -0.000000  0.000000 -0.000000 -0.000000  0.000000 -0.000000  0.000000
                                -0.000000  0.000000 -0.000000  0.000000 -0.000000  0.000000  0.000000  0.000000 -0.000000  0.000000
                                 0.000000 -0.000000  0.000000 -0.000000 -0.000000 -0.000000  0.000000  0.000000  0.000000 -0.000000
                                -0.000000  0.000000 -0.000000  0.000000 -0.000000  0.000000 -0.000000 -0.000000  0.000000 -0.000000
                                 0.000000 -0.000000  0.000000 -0.000000 -0.000000  0.000000 -0.000000 -0.000000  0.000171 -0.000000
                                 0.001504 -0.000000  0.008888 -0.000000  0.034996 -0.000000  0.101919 -0.000000  0.219217 -0.000000
                                -0.000670 -0.000000  0.324285 -0.000000  0.332762 -0.000000  0.197875 -0.000000  0.047848  0.000000
                                 0.001303 -0.000000 -0.002806  0.000000  0.005544 -0.000000 -0.004118  0.000000  0.003245 -0.000000
                                -0.001936  0.000000  0.000973  0.000000 -0.000104  0.000000  0.000026 -0.000000  0.000144  0.000000
                                -0.000077 -0.000000  0.000023  0.000000 -0.000007 -0.000000 -0.000000 -0.000092  0.000000  0.000000
                                 0.000007 -0.000000 -0.000000 -0.000002 -0.000000 -0.000000 -0.000000 -0.000000  0.000000 -0.000000
                                 0.000000  0.000000 -0.000000 -0.000000  0.000000  0.000000 -0.000008

   7.1   2    -6.5452  -77.6697  0.000000  0.000000  0.000000  0.000000  0.000000  0.000000  0.000001  0.000002  0.000004  0.000008
                                 0.000017  0.000035  0.000060  0.000086 -0.000046  0.000060 -0.000265 -0.000398 -0.000545  0.001739
                                -0.001455  0.006566 -0.006860  0.004393 -0.004984  0.001961 -0.000255 -0.000884  0.000444 -0.000298
                                 0.000007  0.000000  0.000000  0.000000  0.000000  0.000002  0.000006  0.000019  0.000054  0.000127
                                 0.000225  0.000261 -0.000167  0.000202 -0.000763 -0.000232 -0.001600  0.002639 -0.002886  0.003458
                                -0.002156  0.000694 -0.000740 -0.000165  0.000036 -0.000085 -0.000010  0.000171  0.000000  0.001505
                                 0.000000  0.008896  0.000000  0.035028  0.000000  0.102011  0.000000  0.219457  0.000000 -0.000732
                                -0.000000  0.324576  0.000000  0.332785  0.000000  0.197395  0.000000  0.047446  0.000000  0.001494
                                 0.000000 -0.003069 -0.000000  0.005914  0.000000 -0.005258 -0.000000  0.004137  0.000000 -0.002509
                                -0.000000  0.001310  0.000000 -0.000155 -0.000000  0.000026  0.000000  0.000259 -0.000000 -0.000385
                                -0.000000  0.000072  0.000000  0.000014 -0.000000 -0.000158  0.000000 -0.000000 -0.000009  0.000000
                                 0.000000  0.000036  0.000000  0.000000 -0.000001  0.000015 -0.000082  0.000190  0.000319  0.000228
                                 0.000052 -0.000336 -0.000317  0.000041  0.000000  0.000188 -0.000000

   8.1   2    -2.2971  -35.5332 -0.000002 -0.000005 -0.000015 -0.000035 -0.000077 -0.000160 -0.000332 -0.000699 -0.001511 -0.003327
                                -0.007266 -0.014874 -0.026278 -0.031739 -0.000311 -0.002836  0.094123  0.208885  0.064311  0.125541
                                -0.415183 -0.286683 -0.389015  0.116094 -0.219902  0.871126  0.531220  0.031869 -0.015511  0.010076
                                -0.000458 -0.000000 -0.000000 -0.000000 -0.000000 -0.000002 -0.000006 -0.000017 -0.000050 -0.000108
                                -0.000220 -0.000150 -0.000772  0.001310 -0.000815  0.005813 -0.011841  0.020511 -0.023395  0.020581
                                -0.010834 -0.001137 -0.006488  0.000578  0.000961  0.003045  0.000154  0.000000  0.000000  0.000002
                                 0.000000  0.000011  0.000000  0.000041  0.000000  0.000124  0.000000  0.000185 -0.000000  0.000109
                                 0.000000  0.000323  0.000000  0.000487  0.000000  0.000204 -0.000000 -0.000391  0.000000 -0.000750
                                -0.000000 -0.001472 -0.000000  0.001377  0.000000 -0.005138 -0.000000  0.002957  0.000000 -0.000275
                                -0.000000  0.000139  0.000000  0.001149  0.000000  0.000049 -0.000000 -0.000824 -0.000000 -0.001830
                                -0.000000  0.000435  0.000000  0.000418 -0.000000  0.000089 -0.000000  0.000000  0.000342 -0.000000
                                -0.000000  0.000180  0.000000  0.000000  0.000059  0.000406  0.001378  0.003814 -0.001016 -0.006339
                                -0.000359 -0.002098 -0.000155  0.000317 -0.000000  0.000739  0.000000

   9.1   2    -1.3569  -30.9991 -0.000000 -0.000000 -0.000000 -0.000000 -0.000000 -0.000001 -0.000002 -0.000004 -0.000010 -0.000021
                                -0.000047 -0.000095 -0.000172 -0.000188 -0.000070  0.000059  0.000545  0.001507 -0.000160  0.003727
                                -0.006385  0.005422 -0.011533  0.005500 -0.006460  0.016012 -0.006125 -0.007288 -0.000225 -0.001096
                                -0.000024  0.000002  0.000008  0.000030  0.000110  0.000404  0.001404  0.004439  0.012486  0.029083
                                 0.052341  0.058422 -0.002979 -0.004835 -0.126712 -0.243883  0.044826 -0.276492  0.233927 -0.143909
                                 0.475548  0.477745  0.209702  0.021154 -0.001644 -0.000046 -0.000137  0.000001  0.000000  0.000007
                                 0.000000  0.000040  0.000000  0.000156  0.000000  0.000477  0.000000  0.000889  0.000000  0.000144
                                 0.000000  0.001316  0.000000  0.001432  0.000000 -0.000723 -0.000000 -0.001295  0.000000 -0.004171
                                -0.000000 -0.006611  0.000000 -0.001998 -0.000000 -0.007227  0.000000  0.003058 -0.000000 -0.003784
                                 0.000000  0.001520 -0.000000 -0.000176  0.000000 -0.000020 -0.000000 -0.000660 -0.000000  0.000727
                                -0.000000 -0.000110  0.000000  0.000077  0.000000 -0.000116  0.000000 -0.000000 -0.000656  0.000000
                                 0.000000  0.000119 -0.000000  0.000000  0.000370  0.002551  0.009993  0.022529  0.013021  0.001198
                                -0.001675 -0.006025 -0.003590  0.000885  0.000000  0.000825 -0.000000

  10.1   2    -0.3846  -12.8340  0.000000  0.000001  0.000002  0.000005  0.000011  0.000023  0.000048  0.000100  0.000217  0.000476
                                 0.001042  0.002130  0.003779  0.004503  0.000277  0.000138 -0.013402 -0.030961 -0.006936 -0.032233
                                 0.079644  0.003673  0.120903 -0.079539  0.112876 -0.225779 -0.160285  0.135193  0.114767  0.059109
                                -0.003167 -0.000000 -0.000001 -0.000005 -0.000019 -0.000070 -0.000244 -0.000767 -0.002174 -0.005023
                                -0.009178 -0.009797 -0.003551  0.007693  0.015847  0.070604 -0.072723  0.162914 -0.177739  0.144512
                                -0.167205 -0.086222 -0.057019  0.072234  0.067502  0.023781 -0.001603 -0.000011  0.000000 -0.000098
                                 0.000000 -0.000586  0.000000 -0.002295  0.000000 -0.006837  0.000000 -0.013927 -0.000000 -0.000934
                                 0.000000 -0.020437 -0.000000 -0.020690  0.000000  0.001974 -0.000000  0.044461  0.000000  0.018683
                                -0.000000  0.050080  0.000000  0.076929 -0.000000  0.043336  0.000000  0.077405 -0.000000  0.019048
                                 0.000000  0.025799 -0.000000  0.012635 -0.000000 -0.001666  0.000000  0.005373  0.000000  0.018430
                                 0.000000  0.028786  0.000000  0.007087  0.000000  0.001508  0.000000 -0.000000  0.004091  0.000000
                                 0.000000  0.006261 -0.000000 -0.000000  0.004733  0.034926  0.138302  0.326692  0.292676 -0.014902
                                -0.003509 -0.028310 -0.027339  0.002025  0.000000  0.006167 -0.000000

  11.1   2    -0.2146  -12.3351  0.000000  0.000001  0.000004  0.000008  0.000018  0.000038  0.000079  0.000167  0.000360  0.000793
                                 0.001731  0.003545  0.006270  0.007568  0.000127  0.000615 -0.022616 -0.050872 -0.014893 -0.035623
                                 0.109623  0.071535  0.115586 -0.043643  0.071001 -0.303290 -0.344233  0.238878  0.570678  0.289351
                                -0.001047  0.000000  0.000001  0.000003  0.000011  0.000039  0.000136  0.000429  0.001210  0.002811
                                 0.005091  0.005590  0.000468 -0.001842 -0.011249 -0.029767  0.016981 -0.049489  0.049869 -0.034589
                                 0.064025  0.065134  0.048305 -0.088600 -0.195453 -0.055000  0.003869  0.000012 -0.000000  0.000105
                                -0.000000  0.000630 -0.000000  0.002466 -0.000000  0.007358 -0.000000  0.014908 -0.000000  0.001100
                                 0.000000  0.021898 -0.000000  0.022264 -0.000000 -0.003055 -0.000000 -0.047742  0.000000 -0.024767
                                -0.000000 -0.057406  0.000000 -0.072544 -0.000000 -0.075836  0.000000 -0.078613 -0.000000 -0.028756
                                 0.000000 -0.057928  0.000000 -0.011795 -0.000000  0.001778  0.000000 -0.000574  0.000000  0.000257
                                 0.000000 -0.004953  0.000000 -0.001082  0.000000  0.000482  0.000000 -0.000000 -0.000621  0.000000
                                 0.000000 -0.000370 -0.000000 -0.000000 -0.000883 -0.006417 -0.026987 -0.055171 -0.059673 -0.020041
                                 0.000910  0.001495  0.005052 -0.000440  0.000000 -0.000887  0.000000

  12.1   0     0.0145   -5.2153  0.000000  0.000000  0.000000  0.000001  0.000002  0.000005  0.000009  0.000020  0.000042  0.000099
                                 0.000200  0.000453  0.000663  0.001458 -0.002259  0.002689 -0.004798 -0.001596 -0.022911  0.104296
                                -0.121658  0.318125 -0.376270  0.317235 -0.340030  0.156885 -0.124310  0.266801 -0.019174  0.428015
                                -0.580279 -0.000000 -0.000000 -0.000002 -0.000006 -0.000024 -0.000079 -0.000263 -0.000698 -0.001752
                                -0.002789 -0.004357  0.011670 -0.018414  0.025352 -0.056688  0.165548 -0.268985  0.315036 -0.281271
                                 0.144347 -0.107298  0.039425  0.011590  0.438223 -0.421762  1.025850  0.000009 -0.000000  0.000073
                                -0.000000  0.000443 -0.000000  0.001704 -0.000000  0.005201 -0.000000  0.009465 -0.000000  0.002054
                                -0.000000  0.014490 -0.000000  0.016496 -0.000000 -0.004143  0.000000 -0.020235  0.000000 -0.059863
                                 0.000000  0.054127 -0.000000 -0.173167  0.000000  0.158234 -0.000000 -0.319992  0.000000  0.437627
                                -0.000000 -0.392402  0.000000  0.019424 -0.000000 -0.238429  0.000000 -0.000478  0.000000  0.001556
                                 0.000000  0.023792 -0.000000 -0.011622 -0.000000  0.000291  0.000000  0.000000  0.003921 -0.000000
                                 0.000000 -0.002112  0.000000  0.000000 -0.000103 -0.000606 -0.003597  0.004880 -0.289891  0.111534
                                 0.000396  0.011937  0.136978 -0.000279  0.000000 -0.013165  0.000000

  13.1   0     0.0208   -3.5745  0.000000  0.000000  0.000001  0.000002  0.000004  0.000008  0.000017  0.000036  0.000074  0.000172
                                 0.000353  0.000785  0.001193  0.002370 -0.003188  0.003826 -0.007699 -0.004342 -0.032823  0.144571
                                -0.165349  0.441863 -0.510551  0.421018 -0.435034  0.172597 -0.144723  0.446199 -1.278623 -1.069980
                                -2.921313  0.000000  0.000000  0.000001  0.000002  0.000007  0.000031  0.000076  0.000285  0.000451
                                 0.001435 -0.000515  0.019459 -0.031960  0.027960 -0.126624  0.288815 -0.496015  0.573018 -0.505000
                                 0.317493 -0.116339  0.175192 -0.281587 -0.478427 -2.031073 -0.395968 -0.000000  0.000000  0.000001
                                 0.000000 -0.000007  0.000000  0.000022  0.000000 -0.000132  0.000000  0.001531  0.000000 -0.002154
                                -0.000000  0.001273  0.000000 -0.001642  0.000000  0.003518  0.000000 -0.022466 -0.000000  0.071848
                                 0.000000 -0.155289 -0.000000  0.197211  0.000000 -0.298693 -0.000000  0.384836  0.000000 -0.850045
                                -0.000000  0.483166  0.000000 -0.868986 -0.000000  0.105322  0.000000 -0.000109 -0.000000  0.003079
                                 0.000000 -0.070255  0.000000 -0.180929  0.000000  0.000358 -0.000000  0.000000 -0.004285  0.000000
                                 0.000000 -0.036627 -0.000000  0.000000  0.000130  0.000591  0.005402 -0.003173  0.829289  4.521937
                                 0.001148 -0.017508 -0.237534 -0.000328 -0.000000  0.006730  0.000000

                                   1 2px     1 2px     1 2px     1 2px     1 2px     1 2px     1 2px     1 2px     1 2px     1 2px  
                                   1 2px     1 2px     1 2px     1 2px     1 2px     1 2px     1 2px     1 2px     1 2px     1 2px  
                                   1 2px     1 2px     1 2px     1 2px     1 2px     1 2px     1 3d1+    1 3d1+    1 3d1+    1 3d1+ 
                                   1 3d1+    1 3d1+    1 3d1+    1 3d1+    1 3d1+    1 3d1+    1 3d1+    1 3d1+    1 3d1+    1 3d1+ 
                                   1 3d1+    1 3d1+    1 3d1+    1 3d1+    1 3d1+    1 3d1+    1 4f1+    1 4f3+    1 4f1+    1 4f3+ 
                                   1 4f1+    1 4f3+    1 4f1+    1 4f3+    1 5g1+    1 5g3+    1 5g1+    1 5g3+    1 5g1+    1 5g3+ 
                                   2 2px     2 2px     2 2px     2 3d1+    2 3d1+ 

   1.2   2   -78.9760 -268.6778  0.000014  0.000053  0.000206  0.000769  0.002805  0.009658  0.030132  0.082171  0.183294  0.308904
                                 0.340245  0.185141  0.005605  0.036936  0.012740 -0.016320  0.018479 -0.013979  0.007145 -0.002715
                                 0.000354 -0.000125  0.000046 -0.000015  0.000006 -0.000002  0.000000  0.000000  0.000001  0.000004
                                 0.000017  0.000023 -0.000003  0.000008 -0.000000 -0.000001 -0.000001  0.000001 -0.000001  0.000001
                                -0.000001  0.000000 -0.000000 -0.000000 -0.000000  0.000000  0.000000 -0.000000  0.000001  0.000000
                                -0.000000 -0.000000  0.000000  0.000000  0.000000  0.000000 -0.000000  0.000000  0.000000  0.000000
                                 0.000000  0.000000  0.000000 -0.000000 -0.000000

   2.2   2   -12.0457  -87.7918 -0.000006 -0.000022 -0.000087 -0.000327 -0.001195 -0.004146 -0.013096 -0.036654 -0.084970 -0.151191
                                -0.169287 -0.004747 -0.000364  0.297190  0.469204 -0.000090  0.312973 -0.028212  0.075429 -0.009649
                                 0.003299 -0.000897  0.000311 -0.000137  0.000046 -0.000013  0.000000  0.000001  0.000008  0.000029
                                 0.000081  0.000189  0.000016  0.000343  0.000375  0.000199 -0.000016  0.000043 -0.000047  0.000028
                                -0.000022  0.000036 -0.000036  0.000007 -0.000001  0.000000 -0.000119 -0.000000  0.000048 -0.000000
                                -0.000024 -0.000000 -0.000000  0.000000 -0.000009  0.000000 -0.000004 -0.000000 -0.000007 -0.000000
                                 0.000002 -0.000012  0.000021  0.000002  0.000010

   3.2   2    -6.5438  -77.6476  0.000000  0.000000  0.000000  0.000000  0.000001  0.000004  0.000012  0.000034  0.000080  0.000142
                                 0.000158 -0.000012  0.000021 -0.000298 -0.000436 -0.000157 -0.000126 -0.000156  0.000156 -0.000135
                                 0.000010  0.000008  0.000002  0.000059 -0.000007  0.000002  0.000171  0.001504  0.008890  0.035003
                                 0.101938  0.219276 -0.000699  0.324361  0.332764  0.197743  0.047854  0.001255 -0.002782  0.005486
                                -0.004118  0.003179 -0.001865  0.000975 -0.000104  0.000026  0.000207  0.000000 -0.000225 -0.000000
                                 0.000076  0.000000  0.000002  0.000000 -0.000140 -0.000000  0.000032  0.000000  0.000016  0.000000
                                -0.000003  0.000000 -0.000082 -0.000001 -0.000016

   4.2   2    -1.3574  -31.0071  0.000002  0.000008  0.000030  0.000110  0.000404  0.001404  0.004439  0.012486  0.029079  0.052349
                                 0.058378 -0.002426 -0.005704 -0.125843 -0.247038  0.052864 -0.290263  0.249180 -0.157452  0.481418
                                 0.477276  0.211803  0.032035  0.002745 -0.000004  0.000042 -0.000000 -0.000000 -0.000003 -0.000009
                                -0.000028 -0.000035 -0.000046 -0.000091 -0.000171  0.000194  0.001541 -0.000040 -0.000486 -0.001852
                                -0.001877 -0.001198 -0.000988 -0.000656 -0.000035  0.000003 -0.001983 -0.000000 -0.003925 -0.000000
                                -0.002113  0.000000 -0.000093 -0.000000 -0.000406 -0.000000 -0.000811 -0.000000 -0.000153  0.000000
                                 0.000225  0.000701  0.001178 -0.000212 -0.000200

   5.2   0     0.0078   -5.6638 -0.000000 -0.000001 -0.000004 -0.000013 -0.000050 -0.000169 -0.000547 -0.001502 -0.003612 -0.006181
                                -0.008001  0.010591 -0.015943  0.031619 -0.032128  0.142732 -0.216028  0.258090 -0.235756  0.086262
                                -0.142857  0.016602 -0.013075  0.342277  0.012926  0.789880  0.000003  0.000022  0.000134  0.000514
                                 0.001571  0.002846  0.000639  0.004370  0.005007 -0.001227 -0.006025 -0.017680  0.014789 -0.045693
                                 0.032705 -0.087823  0.081261 -0.118634 -0.005841 -0.096083 -0.000242  0.000000 -0.001535  0.000000
                                -0.006273 -0.000000 -0.012231 -0.000000  0.000262  0.000000  0.000479 -0.000000 -0.002964  0.000000
                                 0.000435  0.002880  0.002139 -0.000002 -0.000254

   6.2   0     0.0319   -3.4325 -0.000000 -0.000000 -0.000000 -0.000002 -0.000005 -0.000020 -0.000052 -0.000179 -0.000317 -0.000866
                                 0.000034 -0.009183  0.015116 -0.012725  0.060463 -0.135671  0.232850 -0.267404  0.233337 -0.147176
                                 0.047412 -0.063975  0.078094 -0.083866  0.288771 -0.372695  0.000005  0.000032  0.000239  0.000756
                                 0.002991 -0.000585  0.008331  0.002749  0.013593 -0.014000  0.064346 -0.263296  0.519496 -0.688828
                                 0.950819 -1.359539  1.884373 -1.656870  0.894533 -1.405530 -0.000076 -0.000000  0.000537  0.000000
                                -0.001522 -0.000000  0.020968  0.000000  0.000271  0.000000 -0.000386 -0.000000  0.002335  0.000000
                                -0.000953 -0.001229  0.000293  0.000396 -0.001913

                                   1 2py     1 2py     1 2py     1 2py     1 2py     1 2py     1 2py     1 2py     1 2py     1 2py  
                                   1 2py     1 2py     1 2py     1 2py     1 2py     1 2py     1 2py     1 2py     1 2py     1 2py  
                                   1 2py     1 2py     1 2py     1 2py     1 2py     1 2py     1 3d1-    1 3d1-    1 3d1-    1 3d1- 
                                   1 3d1-    1 3d1-    1 3d1-    1 3d1-    1 3d1-    1 3d1-    1 3d1-    1 3d1-    1 3d1-    1 3d1- 
                                   1 3d1-    1 3d1-    1 3d1-    1 3d1-    1 3d1-    1 3d1-    1 4f1-    1 4f3-    1 4f1-    1 4f3- 
                                   1 4f1-    1 4f3-    1 4f1-    1 4f3-    1 5g1-    1 5g3-    1 5g1-    1 5g3-    1 5g1-    1 5g3- 
                                   2 2py     2 2py     2 2py     2 3d1-    2 3d1- 

   1.3   2   -78.9760 -268.6778  0.000014  0.000053  0.000206  0.000769  0.002805  0.009658  0.030132  0.082171  0.183294  0.308904
                                 0.340245  0.185141  0.005605  0.036936  0.012740 -0.016320  0.018479 -0.013979  0.007145 -0.002715
                                 0.000354 -0.000125  0.000046 -0.000015  0.000006 -0.000002  0.000000  0.000000  0.000001  0.000004
                                 0.000017  0.000023 -0.000003  0.000008 -0.000000 -0.000001 -0.000001  0.000001 -0.000001  0.000001
                                -0.000001  0.000000 -0.000000 -0.000000 -0.000000  0.000000  0.000000  0.000000  0.000001 -0.000000
                                -0.000000  0.000000  0.000000 -0.000000  0.000000  0.000000 -0.000000 -0.000000  0.000000  0.000000
                                 0.000000  0.000000  0.000000 -0.000000 -0.000000

   2.3   2   -12.0457  -87.7918 -0.000006 -0.000022 -0.000087 -0.000327 -0.001195 -0.004146 -0.013096 -0.036654 -0.084970 -0.151191
                                -0.169287 -0.004747 -0.000364  0.297190  0.469204 -0.000090  0.312973 -0.028212  0.075429 -0.009649
                                 0.003299 -0.000897  0.000311 -0.000137  0.000046 -0.000013  0.000000  0.000001  0.000008  0.000029
                                 0.000081  0.000189  0.000016  0.000343  0.000375  0.000199 -0.000016  0.000043 -0.000047  0.000028
                                -0.000022  0.000036 -0.000036  0.000007 -0.000001  0.000000 -0.000119 -0.000000  0.000048  0.000000
                                -0.000024 -0.000000 -0.000000 -0.000000 -0.000009 -0.000000 -0.000004 -0.000000 -0.000007 -0.000000
                                 0.000002 -0.000012  0.000021  0.000002  0.000010

   3.3   2    -6.5438  -77.6476  0.000000  0.000000  0.000000  0.000000  0.000001  0.000004  0.000012  0.000034  0.000080  0.000142
                                 0.000158 -0.000012  0.000021 -0.000298 -0.000436 -0.000157 -0.000126 -0.000156  0.000156 -0.000135
                                 0.000010  0.000008  0.000002  0.000059 -0.000007  0.000002  0.000171  0.001504  0.008890  0.035003
                                 0.101938  0.219276 -0.000699  0.324361  0.332764  0.197743  0.047854  0.001255 -0.002782  0.005486
                                -0.004118  0.003179 -0.001865  0.000975 -0.000104  0.000026  0.000207  0.000000 -0.000225 -0.000000
                                 0.000076  0.000000  0.000002 -0.000000 -0.000140  0.000000  0.000032  0.000000  0.000016 -0.000000
                                -0.000003  0.000000 -0.000082 -0.000001 -0.000016

   4.3   2    -1.3574  -31.0071  0.000002  0.000008  0.000030  0.000110  0.000404  0.001404  0.004439  0.012486  0.029079  0.052349
                                 0.058378 -0.002426 -0.005704 -0.125843 -0.247038  0.052864 -0.290263  0.249180 -0.157452  0.481418
                                 0.477276  0.211803  0.032035  0.002745 -0.000004  0.000042 -0.000000 -0.000000 -0.000003 -0.000009
                                -0.000028 -0.000035 -0.000046 -0.000091 -0.000171  0.000194  0.001541 -0.000040 -0.000486 -0.001852
                                -0.001877 -0.001198 -0.000988 -0.000656 -0.000035  0.000003 -0.001983 -0.000000 -0.003925 -0.000000
                                -0.002113  0.000000 -0.000093  0.000000 -0.000406 -0.000000 -0.000811 -0.000000 -0.000153  0.000000
                                 0.000225  0.000701  0.001178 -0.000212 -0.000200

   5.3   0     0.0078   -5.6638 -0.000000 -0.000001 -0.000004 -0.000013 -0.000050 -0.000169 -0.000547 -0.001502 -0.003612 -0.006181
                                -0.008001  0.010591 -0.015943  0.031619 -0.032128  0.142732 -0.216028  0.258090 -0.235756  0.086262
                                -0.142857  0.016602 -0.013075  0.342277  0.012926  0.789880  0.000003  0.000022  0.000134  0.000514
                                 0.001571  0.002846  0.000639  0.004370  0.005007 -0.001227 -0.006025 -0.017680  0.014789 -0.045693
                                 0.032705 -0.087823  0.081261 -0.118634 -0.005841 -0.096083 -0.000242 -0.000000 -0.001535  0.000000
                                -0.006273 -0.000000 -0.012231  0.000000  0.000262 -0.000000  0.000479  0.000000 -0.002964  0.000000
                                 0.000435  0.002880  0.002139 -0.000002 -0.000254

   6.3   0     0.0319   -3.4325 -0.000000 -0.000000 -0.000000 -0.000002 -0.000005 -0.000020 -0.000052 -0.000179 -0.000317 -0.000866
                                 0.000034 -0.009183  0.015116 -0.012725  0.060463 -0.135671  0.232850 -0.267404  0.233337 -0.147176
                                 0.047412 -0.063975  0.078094 -0.083866  0.288771 -0.372695  0.000005  0.000032  0.000239  0.000756
                                 0.002991 -0.000585  0.008331  0.002749  0.013593 -0.014000  0.064346 -0.263296  0.519496 -0.688828
                                 0.950819 -1.359539  1.884373 -1.656870  0.894533 -1.405530 -0.000076 -0.000000  0.000537 -0.000000
                                -0.001522  0.000000  0.020968 -0.000000  0.000271 -0.000000 -0.000386  0.000000  0.002335 -0.000000
                                -0.000953 -0.001229  0.000293  0.000396 -0.001913

                                   1 3d2-    1 3d2-    1 3d2-    1 3d2-    1 3d2-    1 3d2-    1 3d2-    1 3d2-    1 3d2-    1 3d2- 
                                   1 3d2-    1 3d2-    1 3d2-    1 3d2-    1 3d2-    1 3d2-    1 3d2-    1 3d2-    1 3d2-    1 3d2- 
                                   1 4f2-    1 4f2-    1 4f2-    1 4f2-    1 5g2-    1 5g4-    1 5g2-    1 5g4-    1 5g2-    1 5g4- 
                                   2 3d2-    2 3d2- 

   1.4   2    -6.5488  -77.6452  0.000171  0.001504  0.008888  0.034996  0.101919  0.219217 -0.000670  0.324285  0.332762  0.197875
                                 0.047848  0.001303 -0.002806  0.005544 -0.004118  0.003245 -0.001936  0.000973 -0.000104  0.000026
                                 0.000144 -0.000077  0.000023 -0.000007 -0.000092 -0.000000  0.000007  0.000000 -0.000002 -0.000000
                                 0.000000 -0.000008

   2.4   0     0.0305   -3.6220 -0.000006 -0.000041 -0.000293 -0.000970 -0.003617 -0.000793 -0.008294 -0.004715 -0.015416  0.013996
                                -0.058874  0.260753 -0.504002  0.681789 -0.922473  1.333420 -1.837586  1.626641 -0.863375  1.407077
                                 0.000060 -0.000848 -0.002479 -0.012193 -0.000209 -0.000000 -0.000587 -0.000000 -0.002421 -0.000000
                                 0.000140 -0.000464

   3.4   0     0.0577  -11.4808 -0.000022 -0.000198 -0.001142 -0.004645 -0.013119 -0.033242  0.005927 -0.045239 -0.035260 -0.008108
                                 0.169532 -0.215154  0.661984 -0.560353  1.153164 -1.227672  2.061634 -1.504338  1.324691 -0.920749
                                 0.000153 -0.002952 -0.011959 -0.024990 -0.000804 -0.000000 -0.002711 -0.000000 -0.005771 -0.000000
                                 0.000518 -0.001955

 HOMO     11.1    -0.214550 =      -5.8382eV
 LUMO      5.2     0.007820 =       0.2128eV
 LUMO-HOMO         0.222371 =       6.0510eV


 **********************************************************************************************************************************
 DATASETS  * FILE   NREC   LENGTH (MB)   RECORD NAMES
              1      22       21.69       500      610      700      900      950      970     1000      129      960     1700   
                                          VAR    BASINP    GEOM    SYMINP    ZMAT    AOBASIS   BASIS     P2S    ABASIS    OPER   
                                         1101     1401     1411     1412     1650     1100     1400     1410     1200     1210   
                                          SR      EKINR    POTR     PVPR    MOLCAS      S      EKIN      POT      H0       H01  
                                         1080     1600   
                                         AOSYM     SMH  

              2       4        3.32       700     1000      520     2100   
                                         GEOM     BASIS   MCVARS     RHF  

 PROGRAMS   *        TOTAL       RHF       INT
 CPU TIMES  *        50.24      1.51     48.53
 REAL TIME  *        53.20 SEC
 DISK USED  *         2.14 GB      
 SF USED    *         0.10 MB      
 GA USED    *         0.00 MB       (max)       0.00 MB       (current)
 **********************************************************************************************************************************
 SETTING SCF            =     -3383.55210856  AU                              
 SETTING _CC_NORM_MAX   =         2.00000000                                  


 PROGRAM * CCSD (Restricted open-shell coupled cluster)     Authors: C. Hampel, H.-J. Werner, 1991, M. Deegan, P.J. Knowles, 1992


 Convergence thresholds:  THRVAR = 1.00D-08  THRDEN = 1.00D-06

 CCSD(T)     terms to be evaluated (factor= 1.000)


 Number of closed-shell orbitals:  20 (  11   4   4   1 )
 Number of external orbitals:     269 ( 116  61  61  31 )

 Memory could be reduced to 175.39 Mwords without degradation in triples

 Number of N-1 electron functions:              40
 Number of N-2 electron functions:             780
 Number of singly external CSFs:              3590
 Number of doubly external CSFs:          11163162
 Total number of CSFs:                    11166752

 Molecular orbitals read from record     2100.2  Type=RHF/CANONICAL (state 1.1)

 Integral transformation finished. Total CPU:   5.05 sec, npass=  1  Memory used:  18.32 MW

 Starting RMP2 calculation

 Wavefunction is spin-projected

 ITER.      SQ.NORM     CORR.ENERGY   TOTAL ENERGY   ENERGY CHANGE        DEN1      VAR(S)    VAR(P)  DIIS     TIME
   1      1.12614090    -1.13960732 -3384.69171588    -1.13960732    -0.00191211  0.70D-10  0.16D-02  1  1     6.72
   2      1.13054097    -1.14167915 -3384.69378771    -0.00207182    -0.00004050  0.65D-11  0.55D-04  2  2    11.82
   3      1.13146657    -1.14193387 -3384.69404243    -0.00025473    -0.00000030  0.25D-12  0.38D-06  3  3    19.68
   4      1.13151729    -1.14194096 -3384.69404952    -0.00000709    -0.00000000  0.14D-13  0.36D-08  4  4    23.43
   5      1.13151836    -1.14194102 -3384.69404958    -0.00000006    -0.00000000  0.75D-15  0.34D-10  5  5    27.52

 Norm of t1 vector:      0.00003737      S-energy:    -0.00000000      T1 diagnostic:  0.00000418
 Norm of t2 vector:      0.36265460      P-energy:    -1.14194102
                                         Alpha-Beta:  -0.79496326
                                         Alpha-Alpha: -0.17348888
                                         Beta-Beta:   -0.17348888

 Spin contamination <S**2-Sz**2-Sz>     0.00000000
  Reference energy                  -3383.552108557652
  RHF-RMP2 correlation energy          -1.141941018300
 !RHF-RMP2 energy                   -3384.694049575952
 (NB above energy spin projected)

 Starting RCCSD calculation

 ITER.      SQ.NORM     CORR.ENERGY   TOTAL ENERGY   ENERGY CHANGE        DEN1      VAR(S)    VAR(P)  DIIS     TIME
   1      1.13169957    -1.09874331 -3384.65085187    -1.09874331    -0.01814220  0.28D-02  0.43D-02  0  0    41.05
   2      1.15050324    -1.11539539 -3384.66750395    -0.01665208    -0.00178355  0.54D-03  0.11D-02  1  1    56.85
   3      1.16053305    -1.11679972 -3384.66890828    -0.00140433    -0.00054817  0.30D-03  0.40D-03  2  2    70.04
   4      1.17454661    -1.11954698 -3384.67165554    -0.00274725    -0.00008345  0.68D-04  0.50D-04  3  3    84.38
   5      1.18115016    -1.12010182 -3384.67221038    -0.00055484    -0.00001738  0.22D-04  0.57D-05  4  4   100.95
   6      1.18403900    -1.12026046 -3384.67236902    -0.00015864    -0.00000663  0.85D-05  0.24D-05  5  5   116.70
   7      1.18540787    -1.12029157 -3384.67240013    -0.00003112    -0.00000214  0.20D-05  0.13D-05  6  6   129.24
   8      1.18597112    -1.12029352 -3384.67240208    -0.00000194    -0.00000071  0.40D-06  0.59D-06  6  1   144.90
   9      1.18606026    -1.12027460 -3384.67238316     0.00001892    -0.00000013  0.55D-07  0.12D-06  6  2   160.05
  10      1.18614564    -1.12027095 -3384.67237951     0.00000365    -0.00000002  0.87D-08  0.22D-07  6  3   178.04
  11      1.18616040    -1.12027097 -3384.67237953    -0.00000002    -0.00000000  0.14D-08  0.35D-08  6  4   191.26

 Norm of t1 vector:      0.13910433      S-energy:    -0.00000091      T1 diagnostic:  0.01555234
                                                                       D1 diagnostic:  0.09176278
 Norm of t2 vector:      0.40842427      P-energy:    -1.12027006
                                         Alpha-Beta:  -0.79974085
                                         Alpha-Alpha: -0.16026461
                                         Beta-Beta:   -0.16026461

 Doubles amplitudes (print threshold =  0.500E-01):

         I         J         SYM. A    SYM. B    A         B      T(IJ, AB) [Alpha-Beta]

        11        11         1         1         6         6     -0.05470426
        11        11         2         2         1         1     -0.05588772
        11        11         2         2         1         3      0.05112285
        11        11         2         2         3         1      0.05112285
        11        11         3         3         1         1     -0.05588772
        11        11         3         3         1         3      0.05112285
        11        11         3         3         3         1      0.05112285
        11        11         4         4         2         2     -0.05470426

 Spin contamination <S**2-Sz**2-Sz>     0.00000000

 Memory could be reduced to 189.96 Mwords without degradation in triples
 

  Correlated core orbitals:             1.1       2.1       3.1       4.1       5.1       6.1       7.1       8.1       9.1       1.2
                                        2.2       3.2       4.2       1.3       2.3       3.3       4.3       1.4
  Orbital energies:                  -629.7144  -88.9289  -78.9742  -15.3744  -12.0398   -6.5488   -6.5452   -2.2971   -1.3569  -78.9760
                                      -12.0457   -6.5438   -1.3574  -78.9760  -12.0457   -6.5438   -1.3574   -6.5488
 
  RCCSD core-core energy               -0.985958870818
  RCCSD core-valence energy            -0.066280584899
  RCCSD valence correlation energy     -0.068031514001
 

 RESULTS
 =======

  Reference energy                  -3383.552108557652
  RCCSD singles energy                 -0.000000905520
  RCCSD pair energy                    -1.120270064198
  RCCSD correlation energy             -1.120270969718
  Triples (T) contribution             -0.018528122439
  Total correlation energy             -1.138799092157
 
  RHF-RCCSD energy                  -3384.672379527370
  RHF-RCCSD[T] energy               -3384.691784139424
  RHF-RCCSD-T energy                -3384.690676092547
 !RHF-RCCSD(T) energy               -3384.690907649809

 Program statistics:

 Available memory in ccsd:               999996500
 Min. memory needed in ccsd:              30925709
 Max. memory used in ccsd:                45227249
 Max. memory used in cckext:              36133785 (11 integral passes)
 Max. memory used in cckint:              18318019 ( 1 integral passes)



 **********************************************************************************************************************************
 DATASETS  * FILE   NREC   LENGTH (MB)   RECORD NAMES
              1      22       21.69       500      610      700      900      950      970     1000      129      960     1700   
                                          VAR    BASINP    GEOM    SYMINP    ZMAT    AOBASIS   BASIS     P2S    ABASIS    OPER   
                                         1101     1401     1411     1412     1650     1100     1400     1410     1200     1210   
                                          SR      EKINR    POTR     PVPR    MOLCAS      S      EKIN      POT      H0       H01  
                                         1080     1600   
                                         AOSYM     SMH  

              2       4        3.32       700     1000      520     2100   
                                         GEOM     BASIS   MCVARS     RHF  

 PROGRAMS   *        TOTAL  RCCSD(T)       RHF       INT
 CPU TIMES  *       514.39    464.07      1.51     48.53
 REAL TIME  *       887.14 SEC
 DISK USED  *        17.71 GB      
 SF USED    *         3.58 GB      
 GA USED    *         0.00 MB       (max)       0.00 MB       (current)
 **********************************************************************************************************************************
 SETTING CCSD           =     -3384.69090765  AU                              
 SETTING BIND           =        -0.10890880  AU                              
 Output type csv         
                                                                                                                                                                                                                                                                

  2.00,SCF,CCSD,BIND
   2.0,   -3383.552109,   -3384.690908,   -0.10890880
                                                  

 RCCSD(T)/USERDEF energy=  -3384.690907649809

        RCCSD(T)        RHF-SCF 
  -3384.69090765  -3383.55210856
 **********************************************************************************************************************************
 Molpro calculation terminated
 Variable memory released
