<?xml version="1.0"?>
<molpro xmlns="http://www.molpro.net/schema/molpro-output"
  xmlns:xsd="http://www.w3.org/1999/XMLSchema"
  xmlns:cml="http://www.xml-cml.org/schema"
  xmlns:stm="http://www.xml-cml.org/schema"
  xmlns:xhtml="http://www.w3.org/1999/xhtml">
 <!--

 Nodes     nprocs
 nid01008    11
 Number of processes for MPI-2 version of Molpro:   nprocs(total)=   12   nprocs(compute)=   11   nprocs(helper)=    1

 Using customized tuning parameters: mindgm=7; mindgv=16; mindgc=1; mindgr=1; noblas=0; minvec=7
 default implementation of scratch files=sf

 --><job>
  <!--

 Variables initialized (889), CPU time= 0.01 sec
 Commands  initialized (702), CPU time= 0.01 sec, 572 directives.
 Default parameters read. Elapsed time= 0.49 sec

 Checking input...
 Passed
1


                                         ***  PROGRAM SYSTEM MOLPRO  ***
                                       Copyright, TTI GmbH Stuttgart, 2015
                                    Version 2015.1 linked Dec 29 2018 15:55:43


 **********************************************************************************************************************************
 LABEL *   Calculation for Lu atom, singlet and triplet
  64 bit mpp version                                                                     DATE: 04-Apr-23          TIME: 11:28:45
 **********************************************************************************************************************************

 SHA1:             19cd028119e0e09f93f0674bd8af7968d9b3eff6
 **********************************************************************************************************************************
  -->
  <!--

 THRESHOLDS:

 ZERO    =  1.00D-12  ONEINT  =  1.00D-12  TWOINT  =  1.00D-15  PREFAC  =  1.00D-14  LOCALI  =  1.00D-09  EORDER  =  1.00D-04
 ENERGY  =  0.00D+00  ETEST   =  0.00D+00  EDENS   =  0.00D+00  THRDEDEF=  1.00D-06  GRADIENT=  1.00D-02  STEP    =  1.00D-03
 ORBITAL =  1.00D-05  CIVEC   =  1.00D-05  COEFF   =  1.00D-04  PRINTCI =  5.00D-02  PUNCHCI =  9.90D+01  OPTGRAD =  3.00D-04
 OPTENERG=  1.00D-06  OPTSTEP =  3.00D-04  THRGRAD =  1.00D-10  COMPRESS=  1.00D-11  VARMIN  =  1.00D-07  VARMAX  =  1.00D-03
 THRDOUB =  0.00D+00  THRDIV  =  1.00D-05  THRRED  =  1.00D-07  THRPSP  =  1.00D+00  THRDC   =  1.00D-10  THRCS   =  1.00D-10
 THRNRM  =  1.00D-08  THREQ   =  0.00D+00  THRDE   =  1.00D+00  THRREF  =  1.00D-05  SPARFAC =  1.00D+00  THRDLP  =  1.00D-07
 THRDIA  =  1.00D-10  THRDLS  =  1.00D-07  THRGPS  =  0.00D+00  THRKEX  =  0.00D+00  THRDIS  =  2.00D-01  THRVAR  =  1.00D-10
 THRLOC  =  1.00D-06  THRGAP  =  1.00D-06  THRLOCT = -1.00D+00  THRGAPT = -1.00D+00  THRORB  =  1.00D-06  THRMLTP =  0.00D+00
 THRCPQCI=  1.00D-10  KEXTA   =  0.00D+00  THRCOARS=  0.00D+00  SYMTOL  =  1.00D-06  GRADTOL =  1.00D-06  THROVL  =  1.00D-08
 THRORTH =  1.00D-08  GRID    =  1.00D-06  GRIDMAX =  1.00D-03  DTMAX   =  0.00D+00  THROCCDE=  1.00D-01  THROCCDE=  1.00D-01



 THRESHOLDS:

 ZERO    =  1.00D-12  ONEINT  =  1.00D-15  TWOINT  =  1.00D-15  PREFAC  =  1.00D-14  LOCALI  =  1.00D-09  EORDER  =  1.00D-04
 ENERGY  =  0.00D+00  ETEST   =  0.00D+00  EDENS   =  0.00D+00  THRDEDEF=  1.00D-06  GRADIENT=  1.00D-02  STEP    =  1.00D-03
 ORBITAL =  1.00D-05  CIVEC   =  1.00D-05  COEFF   =  1.00D-04  PRINTCI =  5.00D-02  PUNCHCI =  9.90D+01  OPTGRAD =  3.00D-04
 OPTENERG=  1.00D-06  OPTSTEP =  3.00D-04  THRGRAD =  1.00D-10  COMPRESS=  1.00D-11  VARMIN  =  1.00D-07  VARMAX  =  1.00D-03
 THRDOUB =  0.00D+00  THRDIV  =  1.00D-05  THRRED  =  1.00D-07  THRPSP  =  1.00D+00  THRDC   =  1.00D-10  THRCS   =  1.00D-10
 THRNRM  =  1.00D-08  THREQ   =  0.00D+00  THRDE   =  1.00D+00  THRREF  =  1.00D-05  SPARFAC =  1.00D+00  THRDLP  =  1.00D-07
 THRDIA  =  1.00D-10  THRDLS  =  1.00D-07  THRGPS  =  0.00D+00  THRKEX  =  0.00D+00  THRDIS  =  2.00D-01  THRVAR  =  1.00D-10
 THRLOC  =  1.00D-06  THRGAP  =  1.00D-06  THRLOCT = -1.00D+00  THRGAPT = -1.00D+00  THRORB  =  1.00D-06  THRMLTP =  0.00D+00
 THRCPQCI=  1.00D-10  KEXTA   =  0.00D+00  THRCOARS=  0.00D+00  SYMTOL  =  1.00D-06  GRADTOL =  1.00D-06  THROVL  =  1.00D-08
 THRORTH =  1.00D-08  GRID    =  1.00D-06  GRIDMAX =  1.00D-03  DTMAX   =  0.00D+00  THROCCDE=  1.00D-01  THROCCDE=  1.00D-01



Geometry recognized as XYZ


 Variable memory set to 1000000000 words,  buffer space   230000 words

 SETTING BASIS          =    USERDEF

 DO I                   =         1.00000000

 Running procedure=ID1S2
  --><jobstep command="RHF-SCF" commandset="SCFPRO">
   <!--


 Recomputing integrals since basis changed


 Using spherical harmonics



 PROGRAM * SEWARD (Integral evaluation for generally contracted gaussian basis sets)     Author: Roland Lindh, 1990

 Geometry written to block  1 of record 700

 Orientation using atomic masses
 Molecule type: Atom
 Symmetry elements: X,Y,Z
 Rotational constants:       0.0000000      0.0000000      0.0000000 GHz  (calculated with average atomic masses)

 Point group  D2h


   --><cml:molecule>
    <cml:symmetry pointGroup="D2h"/>
    <cml:atomArray>
     <cml:atom id="a1" elementType="Lu" x3="0.0" y3="0.0" z3="0.0"/>
    </cml:atomArray>
    <cml:bondArray>
    </cml:bondArray>
   </cml:molecule><!--

 ATOMIC COORDINATES

 NR  ATOM    CHARGE       X              Y              Z

   1  LU     11.00    0.000000000    0.000000000    0.000000000

 NUCLEAR CHARGE:                   11
 NUMBER OF PRIMITIVE AOS:         581
 NUMBER OF SYMMETRY AOS:          442
 NUMBER OF CONTRACTIONS:          442   ( 103Ag  +  70B3u +  70B2u +  36B1g +  70B1u +  36B2g +  36B3g +  21Au  )
 NUMBER OF CORE ORBITALS:           0   (   0Ag  +   0B3u +   0B2u +   0B1g +   0B1u +   0B2g +   0B3g +   0Au  )
 NUMBER OF VALENCE ORBITALS:       10   (   4Ag  +   1B3u +   1B2u +   1B1g +   1B1u +   1B2g +   1B3g +   0Au  )


 NUCLEAR REPULSION ENERGY    0.00000000

 EXTRA SYMMETRY OF AOS IN SYMMETRY 1:   1 1 1 1 1 1 1 1 1 1   1 1 1 1 1 1 1 1 1 1   1 1 1 1 1 1 1 1 1 1   1 1 1 1 1 1 1 1 2 3
                                        2 3 2 3 2 3 2 3 2 3   2 3 2 3 2 3 2 3 2 3   2 3 2 3 2 3 2 3 2 3   2 3 2 3 2 3 2 3 2 3
                                        2 3 4 5 6 4 5 6 4 5   6 4 5 6 4 5 6 4 5 6   4 5 6
 EXTRA SYMMETRY OF AOS IN SYMMETRY 2:   1 1 1 1 1 1 1 1 1 1   1 1 1 1 1 1 1 1 1 1   1 1 1 1 1 1 1 1 1 1   1 2 3 2 3 2 3 2 3 2
                                        3 2 3 2 3 2 3 2 3 2   3 2 3 2 3 2 3 2 3 2   3 4 5 6 4 5 6 4 5 6
 EXTRA SYMMETRY OF AOS IN SYMMETRY 3:   1 1 1 1 1 1 1 1 1 1   1 1 1 1 1 1 1 1 1 1   1 1 1 1 1 1 1 1 1 1   1 2 3 2 3 2 3 2 3 2
                                        3 2 3 2 3 2 3 2 3 2   3 2 3 2 3 2 3 2 3 2   3 4 5 6 4 5 6 4 5 6
 EXTRA SYMMETRY OF AOS IN SYMMETRY 4:   1 1 1 1 1 1 1 1 1 1   1 1 1 1 1 1 1 1 1 1   1 1 2 3 2 3 2 3 2 3   2 3 2 3 2 3
 EXTRA SYMMETRY OF AOS IN SYMMETRY 5:   1 1 1 1 1 1 1 1 1 1   1 1 1 1 1 1 1 1 1 1   1 1 1 1 1 1 1 1 1 1   1 2 3 2 3 2 3 2 3 2
                                        3 2 3 2 3 2 3 2 3 2   3 2 3 2 3 2 3 2 3 2   3 4 5 6 4 5 6 4 5 6
 EXTRA SYMMETRY OF AOS IN SYMMETRY 6:   1 1 1 1 1 1 1 1 1 1   1 1 1 1 1 1 1 1 1 1   1 1 2 3 2 3 2 3 2 3   2 3 2 3 2 3
 EXTRA SYMMETRY OF AOS IN SYMMETRY 7:   1 1 1 1 1 1 1 1 1 1   1 1 1 1 1 1 1 1 1 1   1 1 2 3 2 3 2 3 2 3   2 3 2 3 2 3
 EXTRA SYMMETRY OF AOS IN SYMMETRY 8:   1 1 1 1 1 1 1 1 1 1   1 1 1 1 1 2 3 2 3 2   3

 Eigenvalues of metric

         1 0.333E-06 0.964E-06 0.340E-05 0.186E-04 0.475E-04 0.703E-04 0.799E-04 0.799E-04
         2 0.960E-06 0.179E-05 0.251E-04 0.110E-03 0.525E-03 0.525E-03 0.534E-03 0.156E-02
         3 0.960E-06 0.179E-05 0.251E-04 0.110E-03 0.525E-03 0.525E-03 0.534E-03 0.156E-02
         4 0.799E-04 0.144E-03 0.223E-02 0.632E-02 0.897E-02 0.238E-01 0.240E-01 0.240E-01
         5 0.960E-06 0.179E-05 0.251E-04 0.110E-03 0.525E-03 0.525E-03 0.534E-03 0.156E-02
         6 0.799E-04 0.144E-03 0.223E-02 0.632E-02 0.897E-02 0.238E-01 0.240E-01 0.240E-01
         7 0.799E-04 0.144E-03 0.223E-02 0.632E-02 0.897E-02 0.238E-01 0.240E-01 0.240E-01
         8 0.525E-03 0.142E-01 0.219E-01 0.528E-01 0.103E+00 0.167E+00 0.268E+00 0.268E+00


 Contracted 2-electron integrals neglected if value below      1.0D-15
 AO integral compression algorithm  1   Integral accuracy      1.0D-15

     3531.604 MB (compressed) written to integral file ( 42.0%)

     Node minimum: 175.112 MB, node maximum: 464.781 MB


 NUMBER OF SORTED TWO-ELECTRON INTEGRALS:   55728421.     BUFFER LENGTH:  32768
 NUMBER OF SEGMENTS:   2  SEGMENT LENGTH:   31998247      RECORD LENGTH: 524288

 Memory used in sort:      32.56 MW

 SORT1 READ  1050599776. AND WROTE    31861494. INTEGRALS IN     93 RECORDS. CPU TIME:    26.73 SEC, REAL TIME:    30.93 SEC
 SORT2 READ   352987961. AND WROTE   613618504. INTEGRALS IN  16456 RECORDS. CPU TIME:     2.39 SEC, REAL TIME:     4.45 SEC

 Node minimum:    55639389.  Node maximum:    55868715. integrals

 OPERATOR DM      FOR CENTER  0  COORDINATES:    0.000000    0.000000    0.000000


 **********************************************************************************************************************************
 DATASETS  * FILE   NREC   LENGTH (MB)   RECORD NAMES
              1      19       21.26       500      610      700      900      950      970     1000      129      960     1100
                                          VAR    BASINP    GEOM    SYMINP    ZMAT    AOBASIS   BASIS     P2S    ABASIS      S
                                         1400     1410     1420     1200     1210     1080     1600     1650     1700
                                           T        V       ECP      H0       H01     AOSYM     SMH    MOLCAS    OPER

 PROGRAMS   *        TOTAL       INT
 CPU TIMES  *       162.57    160.55
 REAL TIME  *       171.33 SEC
 DISK USED  *         7.78 GB
 GA USED    *         0.00 MB       (max)       0.00 MB       (current)
 **********************************************************************************************************************************


 PROGRAM * RHF-SCF (OPEN SHELL)       Authors: W. Meyer, H.-J. Werner


 NUMBER OF ELECTRONS:       6+    5-    SPACE SYMMETRY=1    SPIN SYMMETRY: Doublet
 CONVERGENCE THRESHOLDS:    1.00E-05 (Density)    1.00E-07 (Energy)
 MAX. NUMBER OF ITERATIONS:       60
 INTERPOLATION TYPE:            DIIS
 INTERPOLATION STEPS:              2 (START)      1 (STEP)
 LEVEL SHIFTS:                 -0.60 (CLOSED) -0.30 (OPEN)

 Number of closed-shell orbitals:    5 (   2   1   1   0   1   0   0   0 )
 Number of open-shell orbitals:      1 (   1   0   0   0   0   0   0   0 )



 Extra symmetries of mos in symmetry 1:   1   1   3   2
 Orbital guess generated from atomic densities. Full valence occupancy:    4   1   1   1   1   1   1   0


 Molecular orbital dump at record        4202.2

 ITERATION    DDIFF          GRAD             ENERGY        2-EL.EN.            DIPOLE MOMENTS         DIIS   ORB.
    1      0.000D+00      0.000D+00       -37.72555397     42.247928    0.00000    0.00000    0.00000    0    start
    2      0.000D+00      0.987D-02       -37.75825069     43.137959    0.00000    0.00000    0.00000    1    diag,B
    3      0.948D-02      0.225D-02       -37.77535452     43.825396    0.00000    0.00000    0.00000    2    diag,B
    4      0.859D-02      0.143D-02       -37.81335912     45.170504    0.00000    0.00000    0.00000    3    diag,B
    5      0.101D-01      0.213D-02       -37.78383410     44.234330    0.00000    0.00000    0.00000    4    diag,B
    6      0.489D-02      0.150D-02       -37.76915046     43.954560    0.00000    0.00000    0.00000    5    diag,B
    7      0.836D-02      0.854D-03       -37.77094333     43.930913    0.00000    0.00000    0.00000    6    fixocc
    8      0.451D-02      0.509D-03       -37.77061314     43.744925    0.00000    0.00000    0.00000    7    diag,B
    9      0.497D-02      0.839D-03       -37.77127774     43.833086    0.00000    0.00000    0.00000    8    diag,B
   10      0.165D-02      0.543D-03       -37.77273144     43.923917    0.00000    0.00000    0.00000    9    orth
   11      0.367D-02      0.410D-03       -37.77660534     44.031963    0.00000    0.00000    0.00000    9    diag,B
   12      0.858D-02      0.666D-03       -37.78024532     44.312447    0.00000    0.00000    0.00000    9    diag,B
   13      0.540D-02      0.353D-03       -37.78140761     44.432413    0.00000    0.00000    0.00000    9    diag,B
   14      0.176D-02      0.326D-03       -37.78345246     44.646657    0.00000    0.00000    0.00000    9    diag,B
   15      0.387D-02      0.211D-03       -37.78308658     44.610433    0.00000    0.00000    0.00000    9    diag,B
   16      0.533D-03      0.194D-03       -37.78358935     44.654578    0.00000    0.00000    0.00000    9    diag,B
   17      0.134D-02      0.157D-03       -37.78426246     44.732131    0.00000    0.00000    0.00000    9    diag,B
   18      0.190D-02      0.110D-03       -37.78469235     44.821744    0.00000    0.00000    0.00000    9    diag,B
   19      0.157D-02      0.907D-04       -37.78481959     44.858874    0.00000    0.00000    0.00000    9    diag,B
   20      0.155D-02      0.902D-04       -37.78480755     44.857720    0.00000    0.00000    0.00000    9    orth
   21      0.151D-03      0.889D-04       -37.78480916     44.861276    0.00000    0.00000    0.00000    9    diag,B
   22      0.320D-03      0.874D-04       -37.78481561     44.863203    0.00000    0.00000    0.00000    9    diag,B
   23      0.200D-03      0.880D-04       -37.78479826     44.860234    0.00000    0.00000    0.00000    9    diag,B
   24      0.695D-03      0.854D-04       -37.78481645     44.869313    0.00000    0.00000    0.00000    9    diag,B
   25      0.263D-03      0.875D-04       -37.78478334     44.873944    0.00000    0.00000    0.00000    9    diag,B
   26      0.219D-02      0.742D-04       -37.78474502     44.914374    0.00000    0.00000    0.00000    9    diag,B
   27      0.718D-03      0.328D-04       -37.78473879     44.935628    0.00000    0.00000    0.00000    9    diag,B
   28      0.223D-02      0.175D-04       -37.78473695     44.940557    0.00000    0.00000    0.00000    9    diag,B
   29      0.918D-03      0.146D-04       -37.78473786     44.941048    0.00000    0.00000    0.00000    9    diag,B
   30      0.452D-03      0.111D-04       -37.78473880     44.938895    0.00000    0.00000    0.00000    9    orth
   31      0.423D-03      0.984D-05       -37.78473907     44.937886    0.00000    0.00000    0.00000    9    diag,B
   32      0.103D-03      0.879D-05       -37.78473917     44.938170    0.00000    0.00000    0.00000    9    diag,B
   33      0.500D-03      0.638D-05       -37.78474011     44.935029    0.00000    0.00000    0.00000    9    diag,B
   34      0.275D-03      0.504D-05       -37.78474073     44.932975    0.00000    0.00000    0.00000    9    diag,B
   35      0.132D-03      0.478D-05       -37.78474077     44.932726    0.00000    0.00000    0.00000    9    diag,B
   36      0.256D-04      0.487D-05       -37.78474073     44.932876    0.00000    0.00000    0.00000    9    diag,B
   37      0.761D-04      0.465D-05       -37.78474072     44.933008    0.00000    0.00000    0.00000    9    diag,B
   38      0.343D-04      0.468D-05       -37.78474076     44.932378    0.00000    0.00000    0.00000    9    diag,B
   39      0.721D-04      0.447D-05       -37.78474081     44.931910    0.00000    0.00000    0.00000    9    diag,B
   40      0.441D-04      0.450D-05       -37.78474074     44.931880    0.00000    0.00000    0.00000    9    orth
   41      0.315D-04      0.421D-05       -37.78474038     44.931857    0.00000    0.00000    0.00000    9    diag,B
   42      0.302D-04      0.325D-05       -37.78474009     44.931136    0.00000    0.00000    0.00000    9    diag,B
   43      0.835D-04      0.164D-05       -37.78474011     44.930561    0.00000    0.00000    0.00000    9    diag,B
   44      0.709D-04      0.137D-05       -37.78474013     44.930273    0.00000    0.00000    0.00000    9    diag,B
   45      0.518D-05      0.149D-05       -37.78474016     44.929945    0.00000    0.00000    0.00000    0    orth

 Final alpha occupancy:   3   1   1   0   1   0   0   0
 Final beta  occupancy:   2   1   1   0   1   0   0   0

 !RHF STATE 1.1 Energy                -37.784740156465
   --><property name="Energy" method="RHF" principal="true" stateSymmetry="1" stateNumber="1"
     value="-37.784740156465"/><!--
 Nuclear energy                         0.00000000
 One-electron energy                  -60.24971267
 Two-electron energy                   22.46497251
 Virial quotient                       -2.98884807
 !RHF STATE 1.1 Dipole moment           0.00000000     0.00000000     0.00000000
 Dipole moment /Debye                   0.00000000     0.00000000     0.00000000
   --><property name="Dipole moment" method="RHF" principal="true" stateSymmetry="1"
     stateNumber="1" value="0.0 0.0 0.0"/><!--

 ELECTRON ORBITALS
 =================


   Orb  Occ    Energy  Couls-En    Coefficients

                                   1 1s      1 1s      1 1s      1 1s      1 1s      1 1s      1 1s      1 1s      1 1s      1 1s
                                   1 1s      1 1s      1 1s      1 1s      1 1s      1 1s      1 1s      1 1s      1 1s      1 1s
                                   1 1s      1 1s      1 1s      1 1s      1 1s      1 1s      1 1s      1 1s      1 1s      1 1s
                                   1 1s      1 1s      1 1s      1 1s      1 1s      1 1s      1 1s      1 1s      1 3d0     1 3d2+
                                   1 3d0     1 3d2+    1 3d0     1 3d2+    1 3d0     1 3d2+    1 3d0     1 3d2+    1 3d0     1 3d2+
                                   1 3d0     1 3d2+    1 3d0     1 3d2+    1 3d0     1 3d2+    1 3d0     1 3d2+    1 3d0     1 3d2+
                                   1 3d0     1 3d2+    1 3d0     1 3d2+    1 3d0     1 3d2+    1 3d0     1 3d2+    1 3d0     1 3d2+
                                   1 3d0     1 3d2+    1 3d0     1 3d2+    1 3d0     1 3d2+    1 3d0     1 3d2+    1 3d0     1 3d2+
                                   1 3d0     1 3d2+    1 5g0     1 5g4+    1 5g2+    1 5g0     1 5g4+    1 5g2+    1 5g0     1 5g4+
                                   1 5g2+    1 5g0     1 5g4+    1 5g2+    1 5g0     1 5g4+    1 5g2+    1 5g0     1 5g4+    1 5g2+
                                   1 5g0     1 5g4+    1 5g2+

   1.1   2    -2.3254   -9.4024 -0.000000  0.000000 -0.000000  0.000000 -0.000000  0.000000 -0.000000  0.000000 -0.000000  0.000000
                                -0.000001  0.000003 -0.000008  0.000028 -0.000166 -0.000618  0.000553 -0.001219  0.004361  0.000550
                                -0.031483  0.524789 -0.962360  0.888875 -0.322322 -0.596922 -0.088345  0.761534  0.563351  0.025056
                                 0.028828 -0.036334  0.052230 -0.038144  0.014655 -0.005582  0.001430 -0.000254 -0.000000 -0.000000
                                 0.000000  0.000000 -0.000000 -0.000000  0.000000  0.000000 -0.000000 -0.000000  0.000001  0.000000
                                -0.000003 -0.000001  0.000011  0.000002 -0.000055 -0.000011  0.000141  0.000027 -0.000128 -0.000025
                                 0.000005  0.000000 -0.000018 -0.000003  0.000545  0.000110  0.000551  0.000108 -0.000211 -0.000040
                                 0.000659  0.000127 -0.000946 -0.000183  0.000483  0.000092 -0.000095 -0.000023  0.000035  0.000002
                                -0.000010 -0.000003  0.000000  0.000000  0.000000 -0.000000 -0.000000 -0.000000  0.000003  0.000013
                                 0.000002  0.000017  0.000065  0.000009 -0.000019 -0.000079 -0.000011  0.000005  0.000017  0.000003
                                -0.000004 -0.000019 -0.000003

   2.1   2    -0.3186   -3.2824 -0.000000  0.000000 -0.000000  0.000000 -0.000000  0.000000 -0.000000  0.000000 -0.000000  0.000000
                                -0.000000  0.000000 -0.000000 -0.000000  0.000005  0.000038 -0.000062  0.000212 -0.001038 -0.000025
                                 0.009138 -0.165914  0.309102 -0.292417  0.107067  0.210358  0.049836 -0.317580 -0.490380 -0.183206
                                 0.530106  0.830251 -0.177792  0.258835 -0.071885  0.029465 -0.007343  0.001333  0.000000  0.000000
                                -0.000000 -0.000000  0.000000  0.000000 -0.000000 -0.000000  0.000000  0.000000 -0.000001 -0.000000
                                 0.000003  0.000001 -0.000012 -0.000002  0.000105  0.000021 -0.000382 -0.000076  0.000257  0.000051
                                 0.001525  0.000302 -0.001620 -0.000321 -0.008935 -0.001771 -0.014650 -0.002890 -0.008835 -0.001717
