<?xml version="1.0"?>
<molpro xmlns="http://www.molpro.net/schema/molpro-output"
  xmlns:xsd="http://www.w3.org/1999/XMLSchema"
  xmlns:cml="http://www.xml-cml.org/schema"
  xmlns:stm="http://www.xml-cml.org/schema"
  xmlns:xhtml="http://www.w3.org/1999/xhtml">
 <!--

 Nodes     nprocs
 nid02095    11
 Number of processes for MPI-2 version of Molpro:   nprocs(total)=   12   nprocs(compute)=   11   nprocs(helper)=    1

 Using customized tuning parameters: mindgm=7; mindgv=16; mindgc=1; mindgr=1; noblas=0; minvec=7
 default implementation of scratch files=sf

 --><job>
  <!--

 Variables initialized (889), CPU time= 0.03 sec
 Commands  initialized (702), CPU time= 0.02 sec, 572 directives.
 Default parameters read. Elapsed time= 0.12 sec

 Checking input...
 Passed
1


                                         ***  PROGRAM SYSTEM MOLPRO  ***
                                       Copyright, TTI GmbH Stuttgart, 2015
                                    Version 2015.1 linked Dec 29 2018 15:55:43


 **********************************************************************************************************************************
 LABEL *   Calculation for Y atom, singlet and triplet
  64 bit mpp version                                                                     DATE: 06-May-23          TIME: 09:46:24
 **********************************************************************************************************************************

 SHA1:             19cd028119e0e09f93f0674bd8af7968d9b3eff6
 **********************************************************************************************************************************
  -->
  <!--

 THRESHOLDS:

 ZERO    =  1.00D-12  ONEINT  =  1.00D-12  TWOINT  =  1.00D-15  PREFAC  =  1.00D-14  LOCALI  =  1.00D-09  EORDER  =  1.00D-04
 ENERGY  =  0.00D+00  ETEST   =  0.00D+00  EDENS   =  0.00D+00  THRDEDEF=  1.00D-06  GRADIENT=  1.00D-02  STEP    =  1.00D-03
 ORBITAL =  1.00D-05  CIVEC   =  1.00D-05  COEFF   =  1.00D-04  PRINTCI =  5.00D-02  PUNCHCI =  9.90D+01  OPTGRAD =  3.00D-04
 OPTENERG=  1.00D-06  OPTSTEP =  3.00D-04  THRGRAD =  1.00D-10  COMPRESS=  1.00D-11  VARMIN  =  1.00D-07  VARMAX  =  1.00D-03
 THRDOUB =  0.00D+00  THRDIV  =  1.00D-05  THRRED  =  1.00D-07  THRPSP  =  1.00D+00  THRDC   =  1.00D-10  THRCS   =  1.00D-10
 THRNRM  =  1.00D-08  THREQ   =  0.00D+00  THRDE   =  1.00D+00  THRREF  =  1.00D-05  SPARFAC =  1.00D+00  THRDLP  =  1.00D-07
 THRDIA  =  1.00D-10  THRDLS  =  1.00D-07  THRGPS  =  0.00D+00  THRKEX  =  0.00D+00  THRDIS  =  2.00D-01  THRVAR  =  1.00D-10
 THRLOC  =  1.00D-06  THRGAP  =  1.00D-06  THRLOCT = -1.00D+00  THRGAPT = -1.00D+00  THRORB  =  1.00D-06  THRMLTP =  0.00D+00
 THRCPQCI=  1.00D-10  KEXTA   =  0.00D+00  THRCOARS=  0.00D+00  SYMTOL  =  1.00D-06  GRADTOL =  1.00D-06  THROVL  =  1.00D-08
 THRORTH =  1.00D-08  GRID    =  1.00D-06  GRIDMAX =  1.00D-03  DTMAX   =  0.00D+00  THROCCDE=  1.00D-01  THROCCDE=  1.00D-01



 THRESHOLDS:

 ZERO    =  1.00D-12  ONEINT  =  1.00D-12  TWOINT  =  1.00D-15  PREFAC  =  1.00D-14  LOCALI  =  1.00D-09  EORDER  =  1.00D-04
 ENERGY  =  0.00D+00  ETEST   =  0.00D+00  EDENS   =  0.00D+00  THRDEDEF=  1.00D-06  GRADIENT=  1.00D-02  STEP    =  1.00D-03
 ORBITAL =  1.00D-05  CIVEC   =  1.00D-05  COEFF   =  1.00D-04  PRINTCI =  5.00D-02  PUNCHCI =  9.90D+01  OPTGRAD =  3.00D-04
 OPTENERG=  1.00D-06  OPTSTEP =  3.00D-04  THRGRAD =  1.00D-10  COMPRESS=  1.00D-11  VARMIN  =  1.00D-07  VARMAX  =  1.00D-03
 THRDOUB =  0.00D+00  THRDIV  =  1.00D-05  THRRED  =  1.00D-07  THRPSP  =  1.00D+00  THRDC   =  1.00D-10  THRCS   =  1.00D-10
 THRNRM  =  1.00D-08  THREQ   =  0.00D+00  THRDE   =  1.00D+00  THRREF  =  1.00D-05  SPARFAC =  1.00D+00  THRDLP  =  1.00D-07
 THRDIA  =  1.00D-10  THRDLS  =  1.00D-07  THRGPS  =  0.00D+00  THRKEX  =  0.00D+00  THRDIS  =  2.00D-01  THRVAR  =  1.00D-10
 THRLOC  =  1.00D-06  THRGAP  =  1.00D-06  THRLOCT = -1.00D+00  THRGAPT = -1.00D+00  THRORB  =  1.00D-06  THRMLTP =  0.00D+00
 THRCPQCI=  1.00D-10  KEXTA   =  0.00D+00  THRCOARS=  0.00D+00  SYMTOL  =  1.00D-06  GRADTOL =  1.00D-06  THROVL  =  1.00D-15
 THRORTH =  1.00D-08  GRID    =  1.00D-06  GRIDMAX =  1.00D-03  DTMAX   =  0.00D+00  THROCCDE=  1.00D-01  THROCCDE=  1.00D-01



 Variable memory set to 1000000000 words,  buffer space   230000 words

 SETTING BASIS          =    USERDEF
 SETTING LU_CCSD        =       -40.32241007
 SETTING O_CCSD         =       -15.86622096
 SETTING NE             =        17.00000000
 SETTING SYMM           =         1.00000000
 SETTING SS             =         1.00000000
 SETTING A1             =         5.00000000
 SETTING B1             =         2.00000000
 SETTING B2             =         2.00000000
 SETTING A2             =     0.00000000D+00

Geometry recognized as XYZ

  --><jobstep command="RHF-SCF" commandset="SCFPRO">
   <!--


 Recomputing integrals since basis changed


 Using spherical harmonics



 PROGRAM * SEWARD (Integral evaluation for generally contracted gaussian basis sets)     Author: Roland Lindh, 1990

 Geometry written to block  1 of record 700


 Point group  C2v


   --><cml:molecule>
    <cml:symmetry pointGroup="C2v"/>
    <cml:atomArray>
     <cml:atom id="a1" elementType="Lu" x3="0.0" y3="0.0" z3="0.0"/>
     <cml:atom id="a2" elementType="O" x3="0.0" y3="0.0" z3="2.3"/>
    </cml:atomArray>
    <cml:bondArray>
     <cml:bond atomRefs2="a1 a2"/>
    </cml:bondArray>
   </cml:molecule><!--

 ATOMIC COORDINATES

 NR  ATOM    CHARGE       X              Y              Z

   1  LU     11.00    0.000000000    0.000000000    0.000000000
   2  O       6.00    0.000000000    0.000000000    4.346370086

 Bond lengths in Bohr (Angstrom)

 1-2  4.346370086
     ( 2.300000000)

 NUCLEAR CHARGE:                   17
 NUMBER OF PRIMITIVE AOS:         584
 NUMBER OF SYMMETRY AOS:          451
 NUMBER OF CONTRACTIONS:          451   ( 180A1  + 108B1  + 108B2  +  55A2  )
 NUMBER OF CORE ORBITALS:           0   (   0A1  +   0B1  +   0B2  +   0A2  )
 NUMBER OF VALENCE ORBITALS:       14   (   7A1  +   3B1  +   3B2  +   1A2  )


 NUCLEAR REPULSION ENERGY   15.18508518

 EXTRA SYMMETRY OF AOS IN SYMMETRY 1:   1 1 1 1 1 1 1 1 1 1   1 1 1 1 1 1 1 1 1 1   1 1 1 1 1 1 1 1 1 1   1 1 1 1 1 1 1 1 1 1
                                        1 1 1 1 1 1 1 1 1 1   1 1 1 1 1 1 1 1 1 2   1 2 1 2 1 2 1 2 1 2   1 2 1 2 1 2 1 2 1 2
                                        1 2 1 2 1 2 1 2 1 2   1 2 1 2 1 2 1 2 1 2   1 2 1 2 1 2 1 2 1 2   1 2 1 2 1 2 1 2 1 2
                                        1 3 2 1 3 2 1 3 2 1   3 2 1 3 2 1 3 2 2 3   1 2 3 1 2 3 1 1 1 1   1 1 1 1 1 1 1 1 1 1
                                        1 1 1 1 1 1 1 1 1 2   1 2 1 2 1 2 1 2 1 2
 EXTRA SYMMETRY OF AOS IN SYMMETRY 2:   1 1 1 1 1 1 1 1 1 1   1 1 1 1 1 1 1 1 1 1   1 1 1 1 1 1 1 1 1 1   1 1 1 1 1 1 1 1 1 1
                                        1 1 1 1 1 1 2 1 2 1   2 1 2 1 2 1 2 1 2 1   2 1 2 1 2 1 2 1 2 1   2 1 2 1 2 1 2 1 2 1
                                        2 1 2 1 2 3 1 2 3 1   2 3 1 1 1 1 1 1 1 1   1 1 1 1 1 2 1 2
 EXTRA SYMMETRY OF AOS IN SYMMETRY 3:   1 1 1 1 1 1 1 1 1 1   1 1 1 1 1 1 1 1 1 1   1 1 1 1 1 1 1 1 1 1   1 1 1 1 1 1 1 1 1 1
                                        1 1 1 1 1 1 2 1 2 1   2 1 2 1 2 1 2 1 2 1   2 1 2 1 2 1 2 1 2 1   2 1 2 1 2 1 2 1 2 1
                                        2 1 2 1 2 3 1 2 3 1   2 3 1 1 1 1 1 1 1 1   1 1 1 1 1 2 1 2
 EXTRA SYMMETRY OF AOS IN SYMMETRY 4:   1 1 1 1 1 1 1 1 1 1   1 1 1 1 1 1 1 1 1 1   1 1 1 1 1 1 1 1 1 1   1 1 2 1 2 1 2 1 2 1
                                        2 1 2 2 1 2 1 2 1 1   1 1 1 1 1

 Eigenvalues of metric

         1 0.863E-05 0.121E-04 0.369E-04 0.478E-04 0.678E-04 0.747E-04 0.105E-03 0.186E-03
         2 0.122E-04 0.175E-04 0.105E-03 0.490E-03 0.644E-03 0.156E-02 0.220E-02 0.335E-02
         3 0.122E-04 0.175E-04 0.105E-03 0.490E-03 0.644E-03 0.156E-02 0.220E-02 0.335E-02
         4 0.701E-03 0.220E-02 0.838E-02 0.144E-01 0.215E-01 0.328E-01 0.344E-01 0.520E-01


 Contracted 2-electron integrals neglected if value below      1.0D-15
 AO integral compression algorithm  1   Integral accuracy      1.0D-15

     3558.867 MB (compressed) written to integral file ( 32.4%)

     Node minimum: 240.124 MB, node maximum: 433.848 MB


 NUMBER OF SORTED TWO-ELECTRON INTEGRALS:  120343258.     BUFFER LENGTH:  32768
 NUMBER OF SEGMENTS:   4  SEGMENT LENGTH:   31991158      RECORD LENGTH: 524288

 Memory used in sort:      32.55 MW

 SORT1 READ  1374547738. AND WROTE    40493543. INTEGRALS IN    117 RECORDS. CPU TIME:    29.29 SEC, REAL TIME:    42.58 SEC
 SORT2 READ   446856432. AND WROTE  1323827515. INTEGRALS IN  10538 RECORDS. CPU TIME:     5.44 SEC, REAL TIME:    12.98 SEC

 Node minimum:   120327112.  Node maximum:   120451591. integrals

 OPERATOR DM      FOR CENTER  0  COORDINATES:    0.000000    0.000000    0.000000


 **********************************************************************************************************************************
 DATASETS  * FILE   NREC   LENGTH (MB)   RECORD NAMES
              1      19       22.40       500      610      700      900      950      970     1000      129      960     1100
                                          VAR    BASINP    GEOM    SYMINP    ZMAT    AOBASIS   BASIS     P2S    ABASIS      S
                                         1400     1410     1420     1200     1210     1080     1600     1650     1700
                                           T        V       ECP      H0       H01     AOSYM     SMH    MOLCAS    OPER

 PROGRAMS   *        TOTAL       INT
 CPU TIMES  *        95.78     95.17
 REAL TIME  *       118.70 SEC
 DISK USED  *         8.88 GB
 GA USED    *         0.00 MB       (max)       0.00 MB       (current)
 **********************************************************************************************************************************


 PROGRAM * RHF-SCF (CLOSED SHELL)       Authors: W. Meyer, H.-J. Werner


 NUMBER OF ELECTRONS:       8+    8-    SPACE SYMMETRY=1    SPIN SYMMETRY: Singlet
 CONVERGENCE THRESHOLDS:    1.00E-05 (Density)    1.00E-07 (Energy)
 MAX. NUMBER OF ITERATIONS:      200
 INTERPOLATION TYPE:            DIIS
 INTERPOLATION STEPS:              2 (START)      1 (STEP)
 LEVEL SHIFTS:                  0.00 (CLOSED)  0.00 (OPEN)

 Number of closed-shell orbitals:    8 (   4   2   2   0 )


 Orbital guess generated from atomic densities. Full valence occupancy:    7   3   3   1

 Molecular orbital dump at record        2202.2

 ITERATION    DDIFF          GRAD             ENERGY        2-EL.EN.            DIPOLE MOMENTS         DIIS   ORB.
    1      0.000D+00      0.000D+00       -55.03368586    101.591354    0.00000    0.00000   -7.79686    0    start
    2      0.000D+00      0.154D-01       -48.98457252     94.184634    0.00000    0.00000   22.89324    1    diag
    3      0.176D-01      0.496D-01       -55.34213416     98.961779    0.00000    0.00000   -5.88865    2    diag
    4      0.158D-01      0.503D-02       -55.38588308     98.376366    0.00000    0.00000   -4.62726    3    diag
    5      0.259D-02      0.192D-02       -55.39232282     98.006745    0.00000    0.00000   -4.08432    4    diag
    6      0.981D-03      0.413D-03       -55.39357516     97.891868    0.00000    0.00000   -3.91433    5    diag
    7      0.577D-03      0.432D-03       -55.39454716     97.837955    0.00000    0.00000   -3.82223    6    diag
    8      0.466D-03      0.435D-03       -55.39758345     97.599930    0.00000    0.00000   -3.41803    7    diag
    9      0.172D-02      0.394D-03       -55.39895285     97.401509    0.00000    0.00000   -3.05730    8    diag
   10      0.129D-02      0.254D-03       -55.39900128     97.473803    0.00000    0.00000   -3.17837    9    orth
   11      0.409D-03      0.166D-03       -55.39919667     97.344653    0.00000    0.00000   -2.96191    9    diag
   12      0.645D-03      0.347D-04       -55.39919852     97.361799    0.00000    0.00000   -2.99798    9    diag
   13      0.718D-04      0.196D-04       -55.39920372     97.341843    0.00000    0.00000   -2.96905    9    diag
   14      0.898D-04      0.392D-05       -55.39920393     97.338661    0.00000    0.00000   -2.96490    9    diag
   15      0.166D-04      0.117D-05       -55.39920393     97.337511    0.00000    0.00000   -2.96297    9    diag
   16      0.518D-05      0.125D-05       -55.39920393     97.338385    0.00000    0.00000   -2.96386    0    orth

 Final occupancy:   4   2   2   0

 !RHF STATE 1.1 Energy                -55.399203931899
   --><property name="Energy" method="RHF" principal="true" stateSymmetry="1" stateNumber="1"
     value="-55.3992039318994"/><!--
 Nuclear energy                        15.18508518
 One-electron energy                 -119.25348172
 Two-electron energy                   48.66919261
 Virial quotient                       -2.27310349
 !RHF STATE 1.1 Dipole moment           0.00000000     0.00000000    -2.96386000
 Dipole moment /Debye                   0.00000000     0.00000000    -7.53288729
   --><property name="Dipole moment" method="RHF" principal="true" stateSymmetry="1"
     stateNumber="1" value="0.0 0.0 -2.96385999675502"/><!--

 ELECTRON ORBITALS
 =================


   Orb  Occ    Energy  Couls-En    Coefficients

                                   1 1s      1 1s      1 1s      1 1s      1 1s      1 1s      1 1s      1 1s      1 1s      1 1s
                                   1 1s      1 1s      1 1s      1 1s      1 1s      1 1s      1 1s      1 1s      1 1s      1 1s
                                   1 1s      1 1s      1 1s      1 1s      1 1s      1 1s      1 1s      1 1s      1 1s      1 1s
                                   1 1s      1 2pz     1 2pz     1 2pz     1 2pz     1 2pz     1 2pz     1 2pz     1 2pz     1 2pz
                                   1 2pz     1 2pz     1 2pz     1 2pz     1 2pz     1 2pz     1 2pz     1 2pz     1 2pz     1 2pz
                                   1 2pz     1 2pz     1 2pz     1 2pz     1 2pz     1 2pz     1 2pz     1 2pz     1 3d0     1 3d2+
                                   1 3d0     1 3d2+    1 3d0     1 3d2+    1 3d0     1 3d2+    1 3d0     1 3d2+    1 3d0     1 3d2+
                                   1 3d0     1 3d2+    1 3d0     1 3d2+    1 3d0     1 3d2+    1 3d0     1 3d2+    1 3d0     1 3d2+
                                   1 3d0     1 3d2+    1 3d0     1 3d2+    1 3d0     1 3d2+    1 3d0     1 3d2+    1 3d0     1 3d2+
                                   1 3d0     1 3d2+    1 3d0     1 3d2+    1 4f0     1 4f2+    1 4f0     1 4f2+    1 4f0     1 4f2+
                                   1 4f0     1 4f2+    1 4f0     1 4f2+    1 4f0     1 4f2+    1 4f0     1 4f2+    1 4f0     1 4f2+
                                   1 4f0     1 4f2+    1 4f0     1 4f2+    1 4f0     1 4f2+    1 4f0     1 4f2+    1 4f0     1 4f2+
                                   1 5g0     1 5g4+    1 5g2+    1 5g0     1 5g4+    1 5g2+    1 5g0     1 5g4+    1 5g2+    1 5g0
                                   1 5g4+    1 5g2+    1 5g0     1 5g4+    1 5g2+    1 5g0     1 5g4+    1 5g2+    1 6h2+    1 6h4+
                                   1 6h0     1 6h2+    1 6h4+    1 6h0     1 6h2+    1 6h4+    1 6h0     2 1s      2 1s      2 1s
                                   2 1s      2 1s      2 1s      2 1s      2 1s      2 1s      2 1s      2 1s      2 1s      2 1s
                                   2 2pz     2 2pz     2 2pz     2 2pz     2 2pz     2 2pz     2 2pz     2 2pz     2 3d0     2 3d2+
                                   2 3d0     2 3d2+    2 3d0     2 3d2+    2 3d0     2 3d2+    2 4f0     2 4f2+    2 4f0     2 4f2+


   1.1   2    -2.8991  -12.3045 -0.000000  0.000000 -0.000000  0.000000 -0.000000  0.000000 -0.000001  0.000003 -0.000007  0.000018
                                -0.000044  0.000107 -0.000249  0.000558 -0.001197  0.002461 -0.004620  0.007225 -0.007592 -0.001056
                                 0.189388 -0.376743 -0.255481  0.159183  0.778269  0.310041  0.046009 -0.024813  0.024187 -0.017329
                                 0.005489 -0.000000  0.000000 -0.000000  0.000000 -0.000000  0.000000 -0.000000  0.000000 -0.000000
                                 0.000000 -0.000001  0.000002 -0.000005  0.000012 -0.000024  0.000080 -0.000653  0.001313  0.000848
                                -0.000512 -0.004909 -0.002261 -0.010200  0.003126 -0.002445  0.002513 -0.003153 -0.000000 -0.000000
                                 0.000000  0.000000 -0.000000 -0.000000  0.000001  0.000000 -0.000003 -0.000000  0.000009  0.000000
                                -0.000023 -0.000000  0.000052  0.000000 -0.000113 -0.000000  0.000222  0.000000 -0.000001 -0.000000
                                 0.000187  0.000000 -0.005607 -0.000000 -0.004438 -0.000000  0.001655  0.000000 -0.002030 -0.000000
                                 0.003760  0.000000 -0.001494 -0.000000  0.000000 -0.000000 -0.000000  0.000000  0.000000 -0.000000
                                -0.000001  0.000000  0.000004 -0.000000 -0.000008  0.000000 -0.000011 -0.000000 -0.000081 -0.000000
                                -0.000370 -0.000000 -0.000119 -0.000000  0.000206  0.000000  0.000389 -0.000000 -0.000108  0.000000
                                 0.000001  0.000000  0.000000 -0.000005 -0.000000 -0.000000  0.000040  0.000000  0.000000  0.000268
                                 0.000000  0.000000  0.000102 -0.000000 -0.000000  0.000001  0.000000  0.000000  0.000000  0.000000
                                 0.000003 -0.000000  0.000000 -0.000026  0.000000 -0.000000  0.000104 -0.000000  0.000000 -0.000000
                                 0.000001 -0.000007  0.000227 -0.000253  0.000752  0.001413  0.001393 -0.002404 -0.000325 -0.000377
                                -0.000026 -0.000212 -0.000661 -0.001077 -0.001217  0.000732 -0.000013  0.000007  0.000056  0.000000
                                 0.000384 -0.000000  0.000587 -0.000000  0.000008 -0.000000 -0.000003 -0.000000 -0.000362  0.000000

   2.1   2    -1.6753   -9.7669 -0.000000  0.000000 -0.000000  0.000000 -0.000000  0.000000 -0.000000  0.000000 -0.000000  0.000001
                                -0.000001  0.000003 -0.000007  0.000016 -0.000035  0.000073 -0.000136  0.000214 -0.000226  0.000089
                                 0.004493 -0.009278 -0.007990  0.006937  0.031366 -0.002893 -0.016094  0.000417 -0.016788 -0.006282
                                 0.004332 -0.000000  0.000000 -0.000000  0.000000 -0.000000  0.000000 -0.000000  0.000001 -0.000002
                                 0.000007 -0.000020  0.000055 -0.000149  0.000476 -0.002627  0.021646  0.001562 -0.069395 -0.105633
                                 0.177236  0.529454 -0.024618  0.400633 -0.010291  0.067854 -0.016600  0.011033 -0.000000 -0.000000
                                 0.000000  0.000000 -0.000000 -0.000000  0.000001  0.000000 -0.000004 -0.000000  0.000011  0.000000
                                -0.000028 -0.000000  0.000066  0.000000 -0.000146 -0.000000  0.000284  0.000000  0.000249  0.000000
                                -0.000345 -0.000000 -0.007563 -0.000000 -0.013608 -0.000000 -0.005259  0.000000 -0.002968 -0.000000
                                -0.004881  0.000000  0.003189 -0.000000  0.000000 -0.000000 -0.000000  0.000000  0.000000 -0.000000
                                -0.000000  0.000000  0.000004 -0.000000 -0.000006  0.000000 -0.000107  0.000000  0.000002  0.000000
                                -0.003074  0.000000 -0.001698  0.000000 -0.000814  0.000000 -0.002059 -0.000000  0.000740  0.000000
                                -0.000001  0.000000 -0.000000  0.000007  0.000000  0.000000 -0.000022 -0.000000  0.000000  0.000289
                                 0.000000  0.000000 -0.000999 -0.000000  0.000000  0.000385  0.000000  0.000000 -0.000000  0.000000
                                 0.000008 -0.000000 -0.000000 -0.000144  0.000000  0.000000  0.000426 -0.000000  0.000000 -0.000002
                                 0.000014 -0.000127  0.004949 -0.009854  0.016749  0.048717  0.036112  0.022591 -0.004407 -0.007950
                                -0.000322 -0.002729 -0.008306 -0.014454 -0.014930 -0.007070 -0.000100  0.000086  0.000475  0.000000
                                 0.003103  0.000000  0.003203  0.000000  0.000027 -0.000000 -0.000330  0.000000 -0.001252 -0.000000

   3.1   2    -1.3177   -8.6578  0.000000 -0.000000  0.000000 -0.000000  0.000000 -0.000000  0.000000 -0.000000  0.000000 -0.000001
                                 0.000002 -0.000004  0.000010 -0.000023  0.000050 -0.000103  0.000194 -0.000305  0.000323  0.000084
                                -0.008999  0.018550  0.011566 -0.007354 -0.051370 -0.027780  0.046446 -0.004238 -0.026312  0.001804
                                 0.005034  0.000000 -0.000000  0.000000 -0.000000  0.000000 -0.000000  0.000000 -0.000000  0.000001
                                -0.000002  0.000005 -0.000012  0.000034 -0.000103  0.000496 -0.003881  0.000848  0.009747  0.016873
                                -0.029693 -0.072163 -0.024347 -0.036276  0.059468 -0.011722 -0.025689 -0.052539 -0.000000 -0.000000
                                 0.000000  0.000000 -0.000000 -0.000000  0.000000  0.000000 -0.000001 -0.000000  0.000004  0.000000
                                -0.000011 -0.000000  0.000023  0.000000 -0.000026 -0.000000  0.000036  0.000000 -0.001511 -0.000000
                                 0.002475  0.000000  0.010296 -0.000000  0.023215  0.000000 -0.001195 -0.000000 -0.022989  0.000000
                                 0.018393 -0.000000 -0.000813  0.000000  0.000000 -0.000000 -0.000001  0.000000  0.000003 -0.000000
                                -0.000010 -0.000000  0.000023  0.000000 -0.000066  0.000000  0.000390 -0.000000  0.000249 -0.000000
                                 0.002747  0.000000  0.004155  0.000000 -0.008557 -0.000000  0.001784 -0.000000  0.002021  0.000000
                                 0.000008 -0.000000  0.000000 -0.000038 -0.000000 -0.000000  0.000330 -0.000000  0.000000  0.000986
                                -0.000000  0.000000 -0.004218  0.000000 -0.000000  0.003101 -0.000000 -0.000000  0.000000 -0.000000
                                 0.000018 -0.000000  0.000000 -0.000119  0.000000 -0.000000  0.000750 -0.000000  0.000004 -0.000026
                                 0.000165 -0.001427  0.054235 -0.101032  0.188982  0.546730  0.407434  0.044678 -0.053120 -0.088094
                                -0.000159 -0.001076 -0.004943 -0.007738 -0.041720 -0.016280 -0.000330  0.000040 -0.000533 -0.000000
                                 0.002427 -0.000000  0.009681 -0.000000 -0.000278 -0.000000  0.000060 -0.000000 -0.002493  0.000000

   4.1   2    -0.5091   -6.3615 -0.000000  0.000000 -0.000000  0.000000 -0.000000  0.000000 -0.000000  0.000001 -0.000002  0.000005
                                -0.000012  0.000029 -0.000069  0.000154 -0.000331  0.000681 -0.001283  0.002019 -0.002146 -0.000037
                                 0.054548 -0.113748 -0.078651  0.058004  0.331333  0.264181 -0.087460 -0.480731 -0.268931  0.111524
                                -0.061899 -0.000000  0.000000 -0.000000  0.000000 -0.000000  0.000000 -0.000000  0.000000 -0.000000
                                 0.000000 -0.000000  0.000001 -0.000002  0.000009 -0.000098  0.001023  0.000539 -0.004595 -0.006301
                                 0.012619  0.028576  0.026465 -0.001447  0.419161 -0.021221  0.079923 -0.409438  0.000000 -0.000000
                                -0.000000  0.000000  0.000000 -0.000000 -0.000001  0.000000  0.000003 -0.000000 -0.000010  0.000000
                                 0.000025 -0.000000 -0.000046  0.000000 -0.000041 -0.000000  0.000178  0.000000  0.008527  0.000000
                                -0.014550 -0.000000 -0.068721 -0.000000 -0.133398 -0.000000 -0.087924 -0.000000  0.069959 -0.000000
                                -0.038856  0.000000  0.000470 -0.000000 -0.000000 -0.000000  0.000001  0.000000 -0.000003 -0.000000
                                 0.000010  0.000000 -0.000019 -0.000000  0.000061  0.000000 -0.000545 -0.000000 -0.000723  0.000000
                                -0.003207 -0.000000 -0.011410  0.000000  0.003818  0.000000  0.012708  0.000000 -0.005181 -0.000000
                                -0.000006 -0.000000  0.000000  0.000025  0.000000 -0.000000 -0.000329  0.000000 -0.000000 -0.004174
                                 0.000000  0.000000  0.006040 -0.000000 -0.000000 -0.002306  0.000000  0.000000  0.000000  0.000000
                                -0.000034 -0.000000 -0.000000  0.000296  0.000000  0.000000 -0.001771 -0.000000  0.000001 -0.000004
                                 0.000027 -0.000233  0.008964 -0.015980  0.033680  0.104169  0.103695 -0.046456 -0.009566 -0.014798
                                 0.006246  0.053403  0.173993  0.282364  0.239243  0.064682  0.003383 -0.001647 -0.002987 -0.000000
                                -0.012067 -0.000000 -0.016582 -0.000000 -0.000309 -0.000000  0.002419  0.000000  0.004429  0.000000

   5.1   0    -0.2523   -5.0350  0.000000 -0.000000  0.000000 -0.000000  0.000000 -0.000000  0.000000 -0.000001  0.000001 -0.000004
                                 0.000009 -0.000021  0.000050 -0.000112  0.000241 -0.000495  0.000932 -0.001465  0.001556 -0.000260
                                -0.035923  0.074757  0.056932 -0.045752 -0.211354 -0.169416 -0.058942  0.306448  0.433913  0.061923
                                 0.119119  0.000000 -0.000000  0.000000 -0.000000  0.000000 -0.000000  0.000000 -0.000000  0.000001
                                -0.000002  0.000005 -0.000014  0.000035 -0.000087  0.000045  0.001162  0.005554 -0.017745 -0.017340
                                 0.032974  0.129790 -0.025970  0.129095 -0.099443 -0.104268 -0.273308  0.039653  0.000000  0.000000
                                -0.000000 -0.000000  0.000000  0.000000 -0.000002 -0.000000  0.000006  0.000000 -0.000017 -0.000000
                                 0.000044  0.000000 -0.000089 -0.000000  0.000040  0.000000  0.000022 -0.000000  0.009321  0.000000
                                -0.015987 -0.000000 -0.070003  0.000000 -0.139982  0.000000 -0.143130 -0.000000  0.018132 -0.000000
                                -0.070291  0.000000  0.019876 -0.000000 -0.000000 -0.000000  0.000001  0.000000 -0.000005 -0.000000
                                 0.000016  0.000000 -0.000037 -0.000000  0.000103  0.000000 -0.000584 -0.000000 -0.000354 -0.000000
                                -0.003863 -0.000000 -0.007313 -0.000000  0.010515 -0.000000  0.000048  0.000000  0.001179  0.000000
                                -0.000004 -0.000000  0.000000  0.000014  0.000000 -0.000000 -0.000196 -0.000000 -0.000000 -0.001035
                                 0.000000  0.000000  0.003489  0.000000  0.000000 -0.002495  0.000000 -0.000000 -0.000000  0.000000
                                -0.000023 -0.000000 -0.000000  0.000178  0.000000  0.000000 -0.001272 -0.000000  0.000000 -0.000000
                                 0.000002 -0.000018  0.000913 -0.002307  0.003923  0.016343  0.018954  0.047822 -0.000637 -0.001477
                                 0.004815  0.041160  0.135102  0.218302  0.197871  0.056167  0.002721 -0.001268 -0.001576 -0.000000
                                -0.006409 -0.000000 -0.010305 -0.000000 -0.000152 -0.000000  0.001741  0.000000  0.003693 -0.000000

   6.1   0    -0.1647   -5.1807 -0.000000  0.000000 -0.000000  0.000000 -0.000000  0.000000 -0.000000  0.000000 -0.000000  0.000000
                                -0.000000  0.000000 -0.000000  0.000000 -0.000000  0.000000 -0.000000  0.000000 -0.000000 -0.000000
                                 0.000000 -0.000001 -0.000001  0.000000  0.000002  0.000001  0.000001 -0.000007  0.000005 -0.000012
                                 0.000010  0.000000  0.000000 -0.000000  0.000000 -0.000000  0.000000 -0.000000  0.000000 -0.000000
                                 0.000000 -0.000000  0.000000 -0.000000  0.000000 -0.000000  0.000000  0.000000 -0.000000 -0.000001
                                 0.000001  0.000003 -0.000000  0.000003  0.000042 -0.000003 -0.000008 -0.000048 -0.000000  0.000000
                                 0.000000 -0.000000 -0.000000  0.000000  0.000000 -0.000001 -0.000000  0.000002  0.000000 -0.000006
                                -0.000000  0.000012  0.000000  0.000004  0.000000 -0.000401 -0.000000  0.001053 -0.000000  0.024003
                                 0.000001 -0.041067  0.000003 -0.204485  0.000006 -0.376229  0.000007 -0.414921  0.000006 -0.125809
                                -0.000003 -0.058346  0.000005 -0.098821  0.000000 -0.000000 -0.000000  0.000001  0.000000 -0.000004
                                -0.000000  0.000014  0.000000 -0.000048 -0.000000  0.000097 -0.000000  0.000235 -0.000000  0.001465
                                -0.000000  0.002373 -0.000000  0.016980 -0.000001  0.038860  0.000000  0.016136 -0.000000  0.016884
                                -0.000000  0.000000  0.000018  0.000000 -0.000000 -0.000087 -0.000000 -0.000000  0.000572 -0.000000
                                 0.000000  0.009114 -0.000000  0.000000  0.007251 -0.000000  0.000000  0.000409 -0.000005 -0.000000
                                -0.000000  0.000034  0.000000  0.000000  0.000026 -0.000000 -0.000000 -0.000000  0.000000 -0.000000
                                 0.000000 -0.000000  0.000000 -0.000000  0.000000  0.000000  0.000000 -0.000001  0.000000 -0.000000
                                 0.000000  0.000000  0.000001  0.000001  0.000001  0.000001  0.000000 -0.000000  0.000000 -0.000524
                                 0.000000 -0.002392  0.000000 -0.002968  0.000000 -0.000046 -0.000000  0.000190 -0.000000  0.001081

                                   1 2px     1 2px     1 2px     1 2px     1 2px     1 2px     1 2px     1 2px     1 2px     1 2px
                                   1 2px     1 2px     1 2px     1 2px     1 2px     1 2px     1 2px     1 2px     1 2px     1 2px
                                   1 2px     1 2px     1 2px     1 2px     1 2px     1 2px     1 2px     1 3d1+    1 3d1+    1 3d1+
                                   1 3d1+    1 3d1+    1 3d1+    1 3d1+    1 3d1+    1 3d1+    1 3d1+    1 3d1+    1 3d1+    1 3d1+
                                   1 3d1+    1 3d1+    1 3d1+    1 3d1+    1 3d1+    1 4f1+    1 4f3+    1 4f1+    1 4f3+    1 4f1+
                                   1 4f3+    1 4f1+    1 4f3+    1 4f1+    1 4f3+    1 4f1+    1 4f3+    1 4f1+    1 4f3+    1 4f1+
                                   1 4f3+    1 4f1+    1 4f3+    1 4f1+    1 4f3+    1 4f1+    1 4f3+    1 4f1+    1 4f3+    1 4f1+
                                   1 4f3+    1 5g1+    1 5g3+    1 5g1+    1 5g3+    1 5g1+    1 5g3+    1 5g1+    1 5g3+    1 5g1+
                                   1 5g3+    1 5g1+    1 5g3+    1 6h1+    1 6h3+    1 6h5+    1 6h1+    1 6h3+    1 6h5+    1 6h1+
                                   1 6h3+    1 6h5+    2 2px     2 2px     2 2px     2 2px     2 2px     2 2px     2 2px     2 2px
                                   2 3d1+    2 3d1+    2 3d1+    2 3d1+    2 4f1+    2 4f3+    2 4f1+    2 4f3+

   1.2   2    -1.6877   -9.7011 -0.000000  0.000000 -0.000000  0.000000 -0.000000  0.000000 -0.000000  0.000001 -0.000002  0.000006
                                -0.000019  0.000051 -0.000140  0.000451 -0.002569  0.021401  0.002600 -0.071223 -0.106500  0.178698
                                 0.535208 -0.016299  0.404161  0.052964  0.061567 -0.006213 -0.050792 -0.000000  0.000000 -0.000000
                                 0.000001 -0.000002  0.000006 -0.000016  0.000037 -0.000084  0.000165  0.000318 -0.000460 -0.005441
                                -0.012396 -0.002456  0.000867 -0.001064  0.000125 -0.000000 -0.000000  0.000000  0.000000 -0.000001
                                -0.000000  0.000005  0.000000 -0.000009 -0.000000  0.000028  0.000000 -0.000246 -0.000000 -0.000094
                                 0.000000 -0.003509 -0.000000 -0.002602 -0.000000  0.000335  0.000000 -0.000527 -0.000000  0.000027
                                 0.000000 -0.000003 -0.000000  0.000016  0.000000 -0.000087  0.000000 -0.000116 -0.000000 -0.000103
                                 0.000000 -0.000089 -0.000000  0.000002 -0.000000 -0.000000 -0.000077 -0.000000  0.000000  0.000146
                                 0.000000  0.000000  0.000085  0.000739  0.002208  0.003675  0.002690  0.000682  0.000010 -0.000023
                                -0.000149 -0.000945 -0.000831 -0.000018  0.000096 -0.000000  0.000526  0.000000

   2.2   2    -0.5904   -7.0457  0.000000 -0.000000  0.000000 -0.000000  0.000000 -0.000000  0.000000 -0.000000  0.000000 -0.000000
                                 0.000001 -0.000002  0.000004 -0.000015  0.000112 -0.001051 -0.000336  0.004136  0.005823 -0.010935
                                -0.031994 -0.000351 -0.031980 -0.050480  0.033352  0.037530  0.044774 -0.000000  0.000000 -0.000000
                                 0.000001 -0.000004  0.000012 -0.000032  0.000067 -0.000069  0.000083 -0.004571  0.007716  0.032835
                                 0.065917  0.073684 -0.039222  0.071222 -0.030715 -0.000000 -0.000000  0.000001  0.000000 -0.000006
                                 0.000000  0.000022 -0.000000 -0.000073  0.000000  0.000156 -0.000000  0.000121  0.000000  0.001864
                                 0.000000  0.001632  0.000000  0.016494  0.000000  0.006554 -0.000000  0.004473  0.000000 -0.001760
                                -0.000000  0.000008  0.000000 -0.000034 -0.000000  0.000435  0.000000  0.006338 -0.000000 -0.005308
                                -0.000000  0.003521  0.000000  0.000073 -0.000000  0.000000 -0.000612  0.000000 -0.000000  0.002293
                                -0.000000  0.000000  0.009816  0.084512  0.277194  0.433544  0.357852  0.046447  0.005275 -0.002585
                                -0.002678 -0.011456 -0.024886 -0.000276  0.002500  0.000000  0.007308 -0.000000

   3.2   0    -0.1694   -4.0494 -0.000000  0.000000 -0.000000  0.000000 -0.000000  0.000000 -0.000000  0.000000 -0.000000  0.000000
                                -0.000001  0.000003 -0.000007  0.000008  0.000224 -0.002857 -0.003399  0.017610  0.020908 -0.039387
                                -0.142053  0.031754 -0.153307 -0.017539  0.102841  0.454173  0.308971  0.000000 -0.000000  0.000000
                                -0.000000  0.000001 -0.000003  0.000005  0.000007 -0.000250  0.000649  0.014398 -0.024624 -0.123365
                                -0.220482 -0.255449 -0.174366  0.040559 -0.141026 -0.000000  0.000000  0.000000 -0.000000 -0.000002
                                 0.000000  0.000006 -0.000000 -0.000028  0.000000  0.000047 -0.000000  0.000354  0.000000  0.001176
                                -0.000000  0.003775  0.000000  0.014183  0.000000  0.018336 -0.000000  0.003873 -0.000000  0.006977
                                -0.000000  0.000016  0.000000 -0.000079 -0.000000  0.000517 -0.000000  0.008222  0.000000  0.005814
                                 0.000000  0.000313  0.000000  0.000002 -0.000000 -0.000000 -0.000002  0.000000 -0.000000  0.000122
                                -0.000000 -0.000000  0.000620  0.005319  0.017995  0.027596  0.027281  0.020990  0.000417 -0.000162
                                 0.000295  0.002422 -0.000936  0.000038 -0.000091  0.000000 -0.000918 -0.000000

   4.2   0    -0.1086   -4.5604  0.000000 -0.000000  0.000000 -0.000000  0.000000 -0.000000  0.000000 -0.000000  0.000001 -0.000004
                                 0.000010 -0.000028  0.000075 -0.000216  0.000785 -0.005225  0.005374  0.002742  0.014074 -0.026532
                                -0.032256 -0.049678 -0.022563 -4.823911 -0.013156  0.323053  5.266883 -0.000000  0.000000 -0.000000
                                 0.000000 -0.000000  0.000001  0.000001 -0.000030  0.000387 -0.000982 -0.019738  0.033950  0.171226
                                 0.313360  0.329656 -0.060096  0.241641 -0.093312  0.000000  0.000000 -0.000002 -0.000000  0.000008
                                 0.000000 -0.000028 -0.000000  0.000093  0.000000 -0.000193 -0.000000 -0.000323  0.000000 -0.002625
                                -0.000000 -0.003167  0.000000 -0.026781  0.000000 -0.075163 -0.000000 -0.046002 -0.000000 -0.064006
                                -0.000000 -0.000023 -0.000000  0.000110  0.000000 -0.000762  0.000000 -0.012511 -0.000000 -0.011139
                                -0.000000 -0.002130  0.000000 -0.000003  0.000000  0.000000  0.000034 -0.000000 -0.000000 -0.000307
                                 0.000000 -0.000000 -0.002776 -0.023893 -0.080376 -0.123811 -0.119643 -0.059284 -0.001767  0.000727
                                -0.001160 -0.006575 -0.003177 -0.000102 -0.000186 -0.000000  0.000849  0.000000

                                   1 2py     1 2py     1 2py     1 2py     1 2py     1 2py     1 2py     1 2py     1 2py     1 2py
                                   1 2py     1 2py     1 2py     1 2py     1 2py     1 2py     1 2py     1 2py     1 2py     1 2py
                                   1 2py     1 2py     1 2py     1 2py     1 2py     1 2py     1 2py     1 3d1-    1 3d1-    1 3d1-
                                   1 3d1-    1 3d1-    1 3d1-    1 3d1-    1 3d1-    1 3d1-    1 3d1-    1 3d1-    1 3d1-    1 3d1-
                                   1 3d1-    1 3d1-    1 3d1-    1 3d1-    1 3d1-    1 4f1-    1 4f3-    1 4f1-    1 4f3-    1 4f1-
                                   1 4f3-    1 4f1-    1 4f3-    1 4f1-    1 4f3-    1 4f1-    1 4f3-    1 4f1-    1 4f3-    1 4f1-
                                   1 4f3-    1 4f1-    1 4f3-    1 4f1-    1 4f3-    1 4f1-    1 4f3-    1 4f1-    1 4f3-    1 4f1-
                                   1 4f3-    1 5g1-    1 5g3-    1 5g1-    1 5g3-    1 5g1-    1 5g3-    1 5g1-    1 5g3-    1 5g1-
                                   1 5g3-    1 5g1-    1 5g3-    1 6h1-    1 6h3-    1 6h5-    1 6h1-    1 6h3-    1 6h5-    1 6h1-
                                   1 6h3-    1 6h5-    2 2py     2 2py     2 2py     2 2py     2 2py     2 2py     2 2py     2 2py
                                   2 3d1-    2 3d1-    2 3d1-    2 3d1-    2 4f1-    2 4f3-    2 4f1-    2 4f3-

   1.3   2    -1.6877   -9.7011 -0.000000  0.000000 -0.000000  0.000000 -0.000000  0.000000 -0.000000  0.000001 -0.000002  0.000006
                                -0.000019  0.000051 -0.000140  0.000451 -0.002569  0.021401  0.002600 -0.071223 -0.106500  0.178698
                                 0.535208 -0.016299  0.404161  0.052964  0.061567 -0.006213 -0.050792 -0.000000  0.000000 -0.000000
                                 0.000001 -0.000002  0.000006 -0.000016  0.000037 -0.000084  0.000165  0.000318 -0.000460 -0.005441
                                -0.012396 -0.002456  0.000867 -0.001064  0.000125 -0.000000 -0.000000  0.000000  0.000000 -0.000001
                                -0.000000  0.000005  0.000000 -0.000009 -0.000000  0.000028  0.000000 -0.000246 -0.000000 -0.000094
                                 0.000000 -0.003509 -0.000000 -0.002602 -0.000000  0.000335  0.000000 -0.000527 -0.000000  0.000027
                                 0.000000 -0.000003 -0.000000  0.000016  0.000000 -0.000087  0.000000 -0.000116 -0.000000 -0.000103
                                 0.000000 -0.000089 -0.000000  0.000002 -0.000000 -0.000000 -0.000077 -0.000000  0.000000  0.000146
                                 0.000000  0.000000  0.000085  0.000739  0.002208  0.003675  0.002690  0.000682  0.000010 -0.000023
                                -0.000149 -0.000945 -0.000831 -0.000018  0.000096 -0.000000  0.000526  0.000000

   2.3   2    -0.5904   -7.0457  0.000000 -0.000000  0.000000 -0.000000  0.000000 -0.000000  0.000000 -0.000000  0.000000 -0.000000
                                 0.000001 -0.000002  0.000004 -0.000015  0.000112 -0.001051 -0.000336  0.004136  0.005823 -0.010935
                                -0.031994 -0.000351 -0.031980 -0.050480  0.033352  0.037530  0.044774 -0.000000  0.000000 -0.000000
                                 0.000001 -0.000004  0.000012 -0.000032  0.000067 -0.000069  0.000083 -0.004571  0.007716  0.032835
                                 0.065917  0.073684 -0.039222  0.071222 -0.030715 -0.000000 -0.000000  0.000001  0.000000 -0.000006
                                 0.000000  0.000022 -0.000000 -0.000073  0.000000  0.000156 -0.000000  0.000121  0.000000  0.001864
                                 0.000000  0.001632  0.000000  0.016494  0.000000  0.006554 -0.000000  0.004473 -0.000000 -0.001760
                                 0.000000  0.000008  0.000000 -0.000034 -0.000000  0.000435  0.000000  0.006338 -0.000000 -0.005308
                                -0.000000  0.003521  0.000000  0.000073 -0.000000  0.000000 -0.000612  0.000000 -0.000000  0.002293
                                -0.000000  0.000000  0.009816  0.084512  0.277194  0.433544  0.357852  0.046447  0.005275 -0.002585
                                -0.002678 -0.011456 -0.024886 -0.000276  0.002500  0.000000  0.007308 -0.000000

   3.3   0    -0.1694   -4.0494 -0.000000  0.000000 -0.000000  0.000000 -0.000000  0.000000 -0.000000  0.000000 -0.000000  0.000000
                                -0.000001  0.000003 -0.000007  0.000008  0.000224 -0.002857 -0.003399  0.017610  0.020908 -0.039387
                                -0.142053  0.031754 -0.153307 -0.017539  0.102841  0.454173  0.308971  0.000000 -0.000000  0.000000
                                -0.000000  0.000001 -0.000003  0.000005  0.000007 -0.000250  0.000649  0.014398 -0.024624 -0.123365
                                -0.220482 -0.255449 -0.174366  0.040559 -0.141026 -0.000000  0.000000  0.000000 -0.000000 -0.000002
                                 0.000000  0.000006 -0.000000 -0.000028  0.000000  0.000047 -0.000000  0.000354  0.000000  0.001176
                                -0.000000  0.003775  0.000000  0.014183  0.000000  0.018336 -0.000000  0.003873 -0.000000  0.006977
                                -0.000000  0.000016  0.000000 -0.000079 -0.000000  0.000517 -0.000000  0.008222  0.000000  0.005814
                                 0.000000  0.000313  0.000000  0.000002 -0.000000 -0.000000 -0.000002  0.000000 -0.000000  0.000122
                                -0.000000 -0.000000  0.000620  0.005319  0.017995  0.027596  0.027281  0.020990  0.000417 -0.000162
                                 0.000295  0.002422 -0.000936  0.000038 -0.000091  0.000000 -0.000918 -0.000000

   4.3   0    -0.1086   -4.5604  0.000000 -0.000000  0.000000 -0.000000  0.000000 -0.000000  0.000000 -0.000000  0.000001 -0.000004
                                 0.000010 -0.000028  0.000075 -0.000216  0.000785 -0.005225  0.005374  0.002742  0.014074 -0.026532
                                -0.032257 -0.049678 -0.022563 -4.823909 -0.013156  0.323053  5.266881 -0.000000  0.000000 -0.000000
                                 0.000000 -0.000000  0.000001  0.000001 -0.000030  0.000387 -0.000982 -0.019738  0.033950  0.171226
                                 0.313360  0.329656 -0.060095  0.241641 -0.093312  0.000000  0.000000 -0.000002 -0.000000  0.000008
                                 0.000000 -0.000028 -0.000000  0.000093  0.000000 -0.000193 -0.000000 -0.000323  0.000000 -0.002625
                                -0.000000 -0.003167  0.000000 -0.026781  0.000000 -0.075163 -0.000000 -0.046002 -0.000000 -0.064006
                                -0.000000 -0.000023 -0.000000  0.000110  0.000000 -0.000762  0.000000 -0.012511 -0.000000 -0.011139
                                -0.000000 -0.002130  0.000000 -0.000003  0.000000  0.000000  0.000034 -0.000000 -0.000000 -0.000307
                                 0.000000 -0.000000 -0.002776 -0.023893 -0.080376 -0.123811 -0.119643 -0.059284 -0.001767  0.000727
                                -0.001160 -0.006575 -0.003177 -0.000102 -0.000186 -0.000000  0.000849  0.000000

                                   1 3d2-    1 3d2-    1 3d2-    1 3d2-    1 3d2-    1 3d2-    1 3d2-    1 3d2-    1 3d2-    1 3d2-
                                   1 3d2-    1 3d2-    1 3d2-    1 3d2-    1 3d2-    1 3d2-    1 3d2-    1 3d2-    1 4f2-    1 4f2-
                                   1 4f2-    1 4f2-    1 4f2-    1 4f2-    1 4f2-    1 4f2-    1 4f2-    1 4f2-    1 4f2-    1 4f2-
                                   1 4f2-    1 5g2-    1 5g4-    1 5g2-    1 5g4-    1 5g2-    1 5g4-    1 5g2-    1 5g4-    1 5g2-
                                   1 5g4-    1 5g2-    1 5g4-    1 6h4-    1 6h2-    1 6h4-    1 6h2-    1 6h4-    1 6h2-    2 3d2-
                                   2 3d2-    2 3d2-    2 3d2-    2 4f2-    2 4f2-

   1.4   0    -0.1647   -5.1807  0.000000 -0.000000  0.000000 -0.000001  0.000002 -0.000006  0.000012  0.000004 -0.000401  0.001053
                                 0.024003 -0.041067 -0.204485 -0.376229 -0.414921 -0.125809 -0.058346 -0.098821 -0.000000  0.000001
                                -0.000004  0.000014 -0.000048  0.000097  0.000235  0.001465  0.002373  0.016980  0.038860  0.016136
                                 0.016884  0.000018  0.000000 -0.000087 -0.000000  0.000572 -0.000000  0.009114  0.000000  0.007251
                                 0.000000  0.000409  0.000000 -0.000000 -0.000005  0.000000  0.000034 -0.000000  0.000026 -0.000524
                                -0.002392 -0.002968 -0.000046  0.000190  0.001081

   2.4   0    -0.0444   -2.2125 -0.000000  0.000000 -0.000002  0.000008 -0.000027  0.000080 -0.000210  0.000496 -0.001173  0.002332
                                 0.006813 -0.011770 -0.099443 -0.129160 -0.378777  2.284622 -4.644724  3.455012 -0.000000  0.000003
                                -0.000011  0.000038 -0.000106  0.000253 -0.000488  0.001364 -0.002233  0.011652 -0.033771  0.063525
                                -0.303236  0.000008  0.000000 -0.000040 -0.000000  0.000268 -0.000000  0.004173  0.000000 -0.002103
                                -0.000000  0.004442 -0.000000 -0.000000  0.000002 -0.000000 -0.000025 -0.000000  0.000135 -0.000065
                                -0.000085 -0.000294 -0.000002  0.000174 -0.000309

 HOMO      4.1    -0.509147 =     -13.8546eV
 LUMO      5.1    -0.252292 =      -6.8652eV
 LUMO-HOMO         0.256855 =       6.9894eV


 **********************************************************************************************************************************
 DATASETS  * FILE   NREC   LENGTH (MB)   RECORD NAMES
              1      19       22.47       500      610      700      900      950      970     1000      129      960     1100
                                          VAR    BASINP    GEOM    SYMINP    ZMAT    AOBASIS   BASIS     P2S    ABASIS      S
                                         1400     1410     1420     1200     1210     1080     1600     1650     1700
                                           T        V       ECP      H0       H01     AOSYM     SMH    MOLCAS    OPER

              2       4        4.02       700     1000      520     2202
                                         GEOM     BASIS   MCVARS     RHF

 PROGRAMS   *        TOTAL       RHF       INT
 CPU TIMES  *       107.03     11.10     95.17
 REAL TIME  *       132.49 SEC
 DISK USED  *         9.22 GB
 SF USED    *         0.24 MB
 GA USED    *         0.00 MB       (max)       0.00 MB       (current)
 **********************************************************************************************************************************
   -->
   <time start="09:46:25" end="09:48:37" cpu="107.03" system="15.02" real="132.49"/>
   <storage units="megabyte" memory="8001.84" sf="0.24" df="339.45" eaf="8878.8" ga="0.0"/>
  </jobstep><!--
  --><jobstep command="RHF-SCF" commandset="SCFPRO">
   <!--


 PROGRAM * RHF-SCF (OPEN SHELL)       Authors: W. Meyer, H.-J. Werner


 NUMBER OF ELECTRONS:       9+    8-    SPACE SYMMETRY=1    SPIN SYMMETRY: Doublet
 CONVERGENCE THRESHOLDS:    1.00E-05 (Density)    1.00E-07 (Energy)
 MAX. NUMBER OF ITERATIONS:      200
 INTERPOLATION TYPE:            DIIS
 INTERPOLATION STEPS:              2 (START)      1 (STEP)
 LEVEL SHIFTS:                 -0.60 (CLOSED) -0.30 (OPEN)

 Number of closed-shell orbitals:    8 (   4   2   2   0 )
 Number of open-shell orbitals:      1 (   1   0   0   0 )


 Molecular orbitals read from record     2202.2  Type=RHF/CANONICAL (state 1.1)

 Molecular orbital dump at record        3202.2

 ITERATION    DDIFF          GRAD             ENERGY        2-EL.EN.            DIPOLE MOMENTS         DIIS   ORB.
    1      0.000D+00      0.000D+00       -55.65149589    106.399220    0.00000    0.00000   -3.17850    0    start
    2      0.000D+00      0.255D-02       -55.66345427    105.274963    0.00000    0.00000   -3.01187    1    diag,B
    3      0.153D-02      0.124D-02       -55.66736032    105.264093    0.00000    0.00000   -3.10051    2    diag,B
    4      0.712D-03      0.731D-03       -55.67241598    104.940980    0.00000    0.00000   -3.01445    3    diag,B
    5      0.917D-03      0.556D-03       -55.67736087    104.718395    0.00000    0.00000   -2.84863    4    diag,B
    6      0.105D-02      0.544D-03       -55.67775835    104.703518    0.00000    0.00000   -2.83111    5    diag,B
    7      0.801D-04      0.550D-03       -55.66844405    105.070694    0.00000    0.00000   -3.39097    6    diag,B
    8      0.127D-02      0.525D-03       -55.66821656    105.094147    0.00000    0.00000   -3.42547    7    orth
    9      0.183D-03      0.496D-03       -55.66673119    105.277187    0.00000    0.00000   -3.76048    8    diag,B
   10      0.232D-02      0.323D-03       -55.66625456    105.380383    0.00000    0.00000   -3.93303    9    diag,B
   11      0.863D-03      0.324D-03       -55.66598397    105.404884    0.00000    0.00000   -3.99613    9    diag,B
   12      0.617D-03      0.376D-03       -55.66686602    105.328168    0.00000    0.00000   -3.83596    9    diag,B
   13      0.874D-03      0.209D-03       -55.66713370    105.260371    0.00000    0.00000   -3.74816    9    diag,B
   14      0.143D-02      0.325D-03       -55.66740892    105.214103    0.00000    0.00000   -3.68473    9    diag,B
   15      0.204D-03      0.367D-03       -55.66688549    105.341263    0.00000    0.00000   -3.88015    9    diag,B
   16      0.535D-03      0.197D-03       -55.66688780    105.350557    0.00000    0.00000   -3.89645    9    diag,B
   17      0.662D-03      0.156D-03       -55.66687194    105.351020    0.00000    0.00000   -3.90126    9    diag,B
   18      0.996D-03      0.139D-03       -55.66682260    105.361128    0.00000    0.00000   -3.91466    9    orth
   19      0.546D-03      0.112D-03       -55.66677990    105.370723    0.00000    0.00000   -3.92749    9    diag,B
   20      0.117D-03      0.978D-04       -55.66650209    105.412124    0.00000    0.00000   -4.00984    9    diag,B
   21      0.101D-02      0.788D-04       -55.66669068    105.394778    0.00000    0.00000   -3.95508    9    diag,B
   22      0.375D-03      0.436D-04       -55.66694463    105.350789    0.00000    0.00000   -3.88299    9    diag,B
   23      0.664D-03      0.549D-04       -55.66656192    105.419519    0.00000    0.00000   -4.01032    9    diag,B
   24      0.429D-03      0.497D-04       -55.66594309    105.427108    0.00000    0.00000   -4.08240    9    diag,B
   25      0.462D-03      0.197D-03       -55.66681161    105.366536    0.00000    0.00000   -3.93207    9    diag,B
   26      0.814D-03      0.845D-04       -55.66701277    105.326271    0.00000    0.00000   -3.86844    9    diag,B
   27      0.427D-03      0.117D-03       -55.66693611    105.338979    0.00000    0.00000   -3.89055    9    diag,B
   28      0.169D-03      0.115D-03       -55.66689993    105.345529    0.00000    0.00000   -3.90175    9    orth
   29      0.109D-03      0.111D-03       -55.66694101    105.337206    0.00000    0.00000   -3.88841    9    diag,B
   30      0.157D-03      0.114D-03       -55.66687928    105.351454    0.00000    0.00000   -3.91027    9    diag,B
   31      0.292D-03      0.109D-03       -55.66686373    105.356828    0.00000    0.00000   -3.91849    9    diag,B
   32      0.852D-04      0.105D-03       -55.66693084    105.345252    0.00000    0.00000   -3.89766    9    diag,B
   33      0.151D-03      0.108D-03       -55.66688462    105.351481    0.00000    0.00000   -3.91118    9    diag,B
   34      0.253D-03      0.102D-03       -55.66685782    105.357484    0.00000    0.00000   -3.91942    9    diag,B
   35      0.352D-03      0.103D-03       -55.66694289    105.343039    0.00000    0.00000   -3.89410    9    diag,B
   36      0.206D-03      0.108D-03       -55.66687148    105.353556    0.00000    0.00000   -3.91280    9    diag,B
   37      0.151D-03      0.104D-03       -55.66696635    105.333596    0.00000    0.00000   -3.88140    9    diag,B
   38      0.214D-03      0.112D-03       -55.66679494    105.369548    0.00000    0.00000   -3.94277    9    orth
   39      0.268D-03      0.104D-03       -55.66677514    105.375581    0.00000    0.00000   -3.95202    9    diag,B
   40      0.220D-04      0.101D-03       -55.66675654    105.383768    0.00000    0.00000   -3.96331    9    diag,B
   41      0.636D-04      0.980D-04       -55.66675135    105.384188    0.00000    0.00000   -3.96419    9    diag,B
   42      0.238D-04      0.981D-04       -55.66682947    105.370808    0.00000    0.00000   -3.93992    9    diag,B
   43      0.603D-03      0.937D-04       -55.66681201    105.373813    0.00000    0.00000   -3.94501    9    diag,B
   44      0.542D-03      0.975D-04       -55.66671428    105.390180    0.00000    0.00000   -3.97529    9    diag,B
   45      0.168D-03      0.956D-04       -55.66678593    105.377170    0.00000    0.00000   -3.95070    9    diag,B
   46      0.103D-03      0.951D-04       -55.66668503    105.397955    0.00000    0.00000   -3.99197    9    diag,B
   47      0.119D-03      0.931D-04       -55.66665103    105.401027    0.00000    0.00000   -3.99889    9    diag,B
   48      0.722D-04      0.919D-04       -55.66676909    105.383076    0.00000    0.00000   -3.96353    9    orth
   49      0.157D-03      0.946D-04       -55.66676569    105.383555    0.00000    0.00000   -3.96660    9    diag,B
   50      0.277D-03      0.926D-04       -55.66672602    105.390789    0.00000    0.00000   -3.97877    9    diag,B
   51      0.161D-03      0.940D-04       -55.66676799    105.385134    0.00000    0.00000   -3.96447    9    diag,B
   52      0.163D-03      0.935D-04       -55.66675212    105.386132    0.00000    0.00000   -3.96936    9    diag,B
   53      0.176D-03      0.957D-04       -55.66684478    105.366820    0.00000    0.00000   -3.93551    9    diag,B
   54      0.239D-03      0.978D-04       -55.66665584    105.404214    0.00000    0.00000   -4.00288    9    diag,B
   55      0.375D-03      0.967D-04       -55.66662148    105.410269    0.00000    0.00000   -4.01461    9    diag,B
   56      0.150D-03      0.935D-04       -55.66681865    105.373927    0.00000    0.00000   -3.94566    9    diag,B
   57      0.284D-03      0.964D-04       -55.66683835    105.368096    0.00000    0.00000   -3.93855    9    fixocc
   58      0.201D-03      0.903D-04       -55.66673696    105.388789    0.00000    0.00000   -3.97470    9    orth
   59      0.448D-03      0.947D-04       -55.66673351    105.389021    0.00000    0.00000   -3.97588    9    diag,B
   60      0.232D-04      0.944D-04       -55.66674877    105.386077    0.00000    0.00000   -3.96946    9    diag,B
   61      0.343D-04      0.943D-04       -55.66674322    105.387137    0.00000    0.00000   -3.97202    9    diag,B
   62      0.334D-04      0.939D-04       -55.66676168    105.383793    0.00000    0.00000   -3.96523    9    diag,B
   63      0.270D-04      0.942D-04       -55.66673458    105.388479    0.00000    0.00000   -3.97396    9    diag,B
   64      0.769D-04      0.941D-04       -55.66673995    105.387794    0.00000    0.00000   -3.97065    9    diag,B
   65      0.309D-04      0.932D-04       -55.66670992    105.391898    0.00000    0.00000   -3.97975    9    diag,B
   66      0.420D-04      0.926D-04       -55.66668100    105.396684    0.00000    0.00000   -3.98707    9    diag,B
   67      0.621D-04      0.913D-04       -55.66669489    105.392319    0.00000    0.00000   -3.98184    9    diag,B
   68      0.101D-03      0.900D-04       -55.66666211    105.397574    0.00000    0.00000   -3.99110    9    orth
   69      0.447D-04      0.888D-04       -55.66675685    105.382316    0.00000    0.00000   -3.96042    9    diag,B
   70      0.227D-03      0.891D-04       -55.66676979    105.376758    0.00000    0.00000   -3.95388    9    diag,B
   71      0.160D-03      0.872D-04       -55.66665439    105.400831    0.00000    0.00000   -3.99627    9    diag,B
   72      0.180D-03      0.951D-04       -55.66669434    105.394838    0.00000    0.00000   -3.98481    9    diag,B
   73      0.813D-04      0.925D-04       -55.66671179    105.393093    0.00000    0.00000   -3.97968    9    diag,B
   74      0.158D-03      0.916D-04       -55.66674557    105.385958    0.00000    0.00000   -3.96852    9    diag,B
   75      0.921D-04      0.916D-04       -55.66679836    105.376342    0.00000    0.00000   -3.95035    9    diag,B
   76      0.186D-03      0.911D-04       -55.66673551    105.386801    0.00000    0.00000   -3.97066    9    diag,B
   77      0.260D-03      0.922D-04       -55.66675873    105.381975    0.00000    0.00000   -3.96184    9    diag,B
   78      0.338D-04      0.921D-04       -55.66654163    105.417861    0.00000    0.00000   -4.03334    9    orth
   79      0.284D-03      0.108D-03       -55.66661793    105.409574    0.00000    0.00000   -4.01283    9    diag,B
   80      0.204D-03      0.950D-04       -55.66662107    105.408810    0.00000    0.00000   -4.01149    9    diag,B
   81      0.216D-04      0.949D-04       -55.66670300    105.394904    0.00000    0.00000   -3.98457    9    diag,B
   82      0.955D-04      0.917D-04       -55.66673371    105.390539    0.00000    0.00000   -3.97527    9    diag,B
   83      0.192D-03      0.894D-04       -55.66673753    105.387955    0.00000    0.00000   -3.97175    9    diag,B
   84      0.179D-03      0.915D-04       -55.66680604    105.374006    0.00000    0.00000   -3.94662    9    diag,B
   85      0.980D-04      0.929D-04       -55.66654726    105.416118    0.00000    0.00000   -4.03051    9    diag,B
   86      0.341D-03      0.108D-03       -55.66657505    105.413237    0.00000    0.00000   -4.02249    9    diag,B
   87      0.142D-03      0.100D-03       -55.66665430    105.402032    0.00000    0.00000   -3.99889    9    diag,B
   88      0.135D-03      0.934D-04       -55.66687331    105.361687    0.00000    0.00000   -3.92545    9    orth
   89      0.255D-03      0.100D-03       -55.66655619    105.415480    0.00000    0.00000   -4.02833    9    diag,B
   90      0.418D-03      0.105D-03       -55.66665513    105.402339    0.00000    0.00000   -3.99879    9    diag,B
   91      0.163D-03      0.907D-04       -55.66661471    105.407293    0.00000    0.00000   -4.00983    9    diag,B
   92      0.134D-03      0.949D-04       -55.66662161    105.405750    0.00000    0.00000   -4.00674    9    diag,B
   93      0.455D-04      0.935D-04       -55.66670874    105.395157    0.00000    0.00000   -3.98442    9    diag,B
   94      0.395D-03      0.921D-04       -55.66680835    105.376688    0.00000    0.00000   -3.95003    9    diag,B
   95      0.142D-03      0.931D-04       -55.66664474    105.404459    0.00000    0.00000   -4.00399    9    diag,B
   96      0.200D-03      0.966D-04       -55.66664384    105.404703    0.00000    0.00000   -4.00406    9    diag,B
   97      0.180D-03      0.952D-04       -55.66672094    105.392942    0.00000    0.00000   -3.97999    9    diag,B
   98      0.201D-03      0.918D-04       -55.66672775    105.392043    0.00000    0.00000   -3.97789    9    orth
   99      0.303D-03      0.901D-04       -55.66678973    105.379697    0.00000    0.00000   -3.95533    9    diag,B
  100      0.376D-03      0.926D-04       -55.66678964    105.378880    0.00000    0.00000   -3.95389    9    diag,B
  101      0.351D-03      0.895D-04       -55.66680964    105.373805    0.00000    0.00000   -3.94507    9    diag,B
  102      0.449D-03      0.928D-04       -55.66681544    105.370823    0.00000    0.00000   -3.94015    9    diag,B
  103      0.181D-03      0.906D-04       -55.66668863    105.395090    0.00000    0.00000   -3.98568    9    diag,B
  104      0.244D-03      0.929D-04       -55.66668808    105.395627    0.00000    0.00000   -3.98658    9    diag,B
  105      0.986D-04      0.934D-04       -55.66675639    105.385298    0.00000    0.00000   -3.96560    9    diag,B
  106      0.131D-03      0.923D-04       -55.66671324    105.392060    0.00000    0.00000   -3.97910    9    diag,B
  107      0.529D-04      0.925D-04       -55.66671470    105.391730    0.00000    0.00000   -3.97855    9    diag,B
  108      0.195D-03      0.917D-04       -55.66678121    105.380761    0.00000    0.00000   -3.95700    9    orth
  109      0.196D-03      0.926D-04       -55.66675462    105.384711    0.00000    0.00000   -3.96495    9    diag,B
  110      0.350D-03      0.894D-04       -55.66682156    105.372018    0.00000    0.00000   -3.94123    9    diag,B
  111      0.313D-03      0.923D-04       -55.66672335    105.387701    0.00000    0.00000   -3.97211    9    diag,B
  112      0.346D-03      0.870D-04       -55.66677006    105.378697    0.00000    0.00000   -3.95465    9    diag,B
  113      0.300D-03      0.875D-04       -55.66662110    105.401181    0.00000    0.00000   -4.00143    9    diag,B
  114      0.197D-03      0.929D-04       -55.66674322    105.381177    0.00000    0.00000   -3.96207    9    diag,B
  115      0.180D-03      0.862D-04       -55.66665341    105.402119    0.00000    0.00000   -3.99704    9    diag,B
  116      0.249D-03      0.927D-04       -55.66669795    105.394820    0.00000    0.00000   -3.98222    9    diag,B
  117      0.572D-04      0.900D-04       -55.66668545    105.397310    0.00000    0.00000   -3.98905    9    diag,B
  118      0.436D-04      0.921D-04       -55.66680637    105.376046    0.00000    0.00000   -3.95054    9    orth
  119      0.148D-03      0.938D-04       -55.66666396    105.401493    0.00000    0.00000   -3.99561    9    diag,B
  120      0.185D-03      0.933D-04       -55.66681198    105.375079    0.00000    0.00000   -3.94636    9    diag,B
  121      0.194D-03      0.917D-04       -55.66662705    105.405546    0.00000    0.00000   -4.00465    9    diag,B
  122      0.225D-03      0.966D-04       -55.66666058    105.400519    0.00000    0.00000   -3.99364    9    diag,B
  123      0.654D-04      0.930D-04       -55.66673259    105.389638    0.00000    0.00000   -3.97481    9    diag,B
  124      0.202D-03      0.907D-04       -55.66685316    105.366833    0.00000    0.00000   -3.93364    9    diag,B
  125      0.138D-03      0.951D-04       -55.66667046    105.399097    0.00000    0.00000   -3.99382    9    diag,B
  126      0.219D-03      0.955D-04       -55.66667722    105.398121    0.00000    0.00000   -3.99058    9    diag,B
  127      0.911D-04      0.943D-04       -55.66678472    105.380094    0.00000    0.00000   -3.95782    9    diag,B
  128      0.192D-03      0.918D-04       -55.66673254    105.389814    0.00000    0.00000   -3.97260    9    orth
  129      0.251D-03      0.912D-04       -55.66687755    105.361185    0.00000    0.00000   -3.92391    9    diag,B
  130      0.210D-03      0.965D-04       -55.66664444    105.402733    0.00000    0.00000   -3.99778    9    diag,B
  131      0.404D-03      0.967D-04       -55.66670331    105.393184    0.00000    0.00000   -3.97868    9    diag,B
  132      0.779D-04      0.913D-04       -55.66673526    105.388299    0.00000    0.00000   -3.97172    9    diag,B
  133      0.270D-03      0.914D-04       -55.66686331    105.363834    0.00000    0.00000   -3.92861    9    diag,B
  134      0.160D-03      0.963D-04       -55.66664136    105.403114    0.00000    0.00000   -4.00039    9    diag,B
  135      0.300D-03      0.983D-04       -55.66665878    105.401101    0.00000    0.00000   -3.99449    9    diag,B
  136      0.123D-03      0.948D-04       -55.66677197    105.381407    0.00000    0.00000   -3.95917    9    diag,B
  137      0.276D-03      0.922D-04       -55.66680626    105.375677    0.00000    0.00000   -3.94696    9    diag,B
  138      0.159D-03      0.919D-04       -55.66683258    105.368275    0.00000    0.00000   -3.93727    9    orth
  139      0.246D-03      0.956D-04       -55.66690056    105.354208    0.00000    0.00000   -3.91266    9    diag,B
  140      0.110D-03      0.994D-04       -55.66662351    105.404209    0.00000    0.00000   -4.00557    9    diag,B
  141      0.325D-03      0.102D-03       -55.66659319    105.409218    0.00000    0.00000   -4.01409    9    diag,B
  142      0.150D-03      0.103D-03       -55.66676255    105.383107    0.00000    0.00000   -3.96244    9    diag,B
  143      0.286D-03      0.929D-04       -55.66671944    105.392417    0.00000    0.00000   -3.97717    9    diag,B
  144      0.204D-03      0.913D-04       -55.66687669    105.360681    0.00000    0.00000   -3.92279    9    diag,B
  145      0.265D-03      0.979D-04       -55.66663924    105.404652    0.00000    0.00000   -4.00139    9    diag,B
  146      0.439D-03      0.959D-04       -55.66673833    105.387716    0.00000    0.00000   -3.96878    9    diag,B
  147      0.142D-03      0.896D-04       -55.66665658    105.401450    0.00000    0.00000   -3.99623    9    diag,B
  148      0.123D-03      0.945D-04       -55.66673659    105.388456    0.00000    0.00000   -3.97094    9    orth
  149      0.131D-03      0.915D-04       -55.66668549    105.398252    0.00000    0.00000   -3.98804    9    diag,B
  150      0.154D-03      0.918D-04       -55.66682993    105.370782    0.00000    0.00000   -3.93881    9    diag,B
  151      0.207D-03      0.932D-04       -55.66667449    105.398893    0.00000    0.00000   -3.99026    9    diag,B
  152      0.226D-03      0.925D-04       -55.66676317    105.382680    0.00000    0.00000   -3.96008    9    diag,B
  153      0.123D-03      0.899D-04       -55.66661209    105.407633    0.00000    0.00000   -4.00943    9    diag,B
  154      0.181D-03      0.988D-04       -55.66669076    105.396602    0.00000    0.00000   -3.98610    9    diag,B
  155      0.103D-03      0.918D-04       -55.66669157    105.397308    0.00000    0.00000   -3.98629    9    diag,B
  156      0.668D-04      0.911D-04       -55.66679008    105.378765    0.00000    0.00000   -3.95272    9    diag,B
  157      0.146D-03      0.911D-04       -55.66674143    105.387923    0.00000    0.00000   -3.96894    9    diag,B
  158      0.103D-03      0.898D-04       -55.66684160    105.367206    0.00000    0.00000   -3.93314    9    orth
  159      0.147D-03      0.932D-04       -55.66663855    105.402799    0.00000    0.00000   -4.00054    9    diag,B
  160      0.241D-03      0.970D-04       -55.66668528    105.395352    0.00000    0.00000   -3.98550    9    diag,B
  161      0.707D-04      0.929D-04       -55.66668507    105.398673    0.00000    0.00000   -3.98897    9    diag,B
  162      0.141D-03      0.900D-04       -55.66677134    105.381133    0.00000    0.00000   -3.95737    9    diag,B
  163      0.171D-03      0.909D-04       -55.66661198    105.410990    0.00000    0.00000   -4.01425    9    diag,B
  164      0.251D-03      0.938D-04       -55.66678659    105.379474    0.00000    0.00000   -3.95424    9    diag,B
  165      0.248D-03      0.891D-04       -55.66635278    105.428985    0.00000    0.00000   -4.06722    9    diag,B
  166      0.488D-03      0.144D-03       -55.66673034    105.389075    0.00000    0.00000   -3.97217    9    diag,B
  167      0.428D-03      0.897D-04       -55.66679157    105.378367    0.00000    0.00000   -3.95200    9    diag,B
  168      0.704D-04      0.901D-04       -55.66667664    105.398100    0.00000    0.00000   -3.98954    9    orth
  169      0.143D-03      0.935D-04       -55.66672548    105.389314    0.00000    0.00000   -3.97272    9    diag,B
  170      0.597D-04      0.912D-04       -55.66663694    105.405580    0.00000    0.00000   -4.00416    9    diag,B
  171      0.112D-03      0.943D-04       -55.66675188    105.386925    0.00000    0.00000   -3.96704    9    diag,B
  172      0.134D-03      0.891D-04       -55.66664049    105.404562    0.00000    0.00000   -4.00240    9    diag,B
  173      0.134D-03      0.943D-04       -55.66667080    105.399716    0.00000    0.00000   -3.99251    9    diag,B
  174      0.368D-04      0.923D-04       -55.66659762    105.412265    0.00000    0.00000   -4.01795    9    diag,B
  175      0.993D-04      0.962D-04       -55.66675322    105.386672    0.00000    0.00000   -3.96664    9    diag,B
  176      0.175D-03      0.891D-04       -55.66661869    105.408743    0.00000    0.00000   -4.01130    9    diag,B
  177      0.157D-03      0.940D-04       -55.66670766    105.394397    0.00000    0.00000   -3.98253    9    diag,B
  178      0.109D-03      0.886D-04       -55.66661408    105.409886    0.00000    0.00000   -4.01257    9    orth
  179      0.150D-03      0.947D-04       -55.66675319    105.386723    0.00000    0.00000   -3.96681    9    diag,B
  180      0.160D-03      0.885D-04       -55.66659430    105.411468    0.00000    0.00000   -4.01718    9    diag,B
  181      0.186D-03      0.979D-04       -55.66664327    105.404595    0.00000    0.00000   -4.00240    9    diag,B
  182      0.568D-04      0.932D-04       -55.66670837    105.395212    0.00000    0.00000   -3.98265    9    diag,B
  183      0.878D-04      0.888D-04       -55.66669344    105.396567    0.00000    0.00000   -3.98614    9    diag,B
  184      0.560D-04      0.906D-04       -55.66679113    105.378249    0.00000    0.00000   -3.95210    9    diag,B
  185      0.115D-03      0.908D-04       -55.66660714    105.408935    0.00000    0.00000   -4.01267    9    diag,B
  186      0.215D-03      0.986D-04       -55.66666975    105.400209    0.00000    0.00000   -3.99374    9    diag,B
  187      0.764D-04      0.921D-04       -55.66670158    105.395831    0.00000    0.00000   -3.98426    9    diag,B
  188      0.438D-04      0.900D-04       -55.66677357    105.382273    0.00000    0.00000   -3.95909    9    orth
  189      0.910D-04      0.899D-04       -55.66674562    105.387127    0.00000    0.00000   -3.96834    9    diag,B
  190      0.377D-04      0.898D-04       -55.66683630    105.368431    0.00000    0.00000   -3.93527    9    diag,B
  191      0.114D-03      0.929D-04       -55.66662494    105.404960    0.00000    0.00000   -4.00590    9    diag,B
  192      0.251D-03      0.988D-04       -55.66666445    105.399327    0.00000    0.00000   -3.99355    9    diag,B
  193      0.467D-04      0.945D-04       -55.66675379    105.385618    0.00000    0.00000   -3.96535    9    diag,B
  194      0.103D-03      0.914D-04       -55.66669374    105.395202    0.00000    0.00000   -3.98458    9    diag,B
  195      0.742D-04      0.922D-04       -55.66672057    105.390547    0.00000    0.00000   -3.97556    9    diag,B
  196      0.327D-04      0.910D-04       -55.66671144    105.393097    0.00000    0.00000   -3.97962    9    diag,B
  197      0.590D-04      0.920D-04       -55.66679877    105.377568    0.00000    0.00000   -3.95034    9    diag,B
  198      0.103D-03      0.916D-04       -55.66670741    105.392921    0.00000    0.00000   -3.97998    9    orth
  199      0.114D-03      0.929D-04       -55.66673443    105.392079    0.00000    0.00000   -3.97399    9    orth
  200      0.310D-04      0.828D-04       -55.66676663    105.404626    0.00000    0.00000   -3.97361    0    orth

 Final alpha occupancy:   5   2   2   0
 Final beta  occupancy:   4   2   2   0

 !RHF STATE 1.1 Energy                -55.666766632227
   --><property name="Energy" method="RHF" principal="true" stateSymmetry="1" stateNumber="1"
     value="-55.6667666322273"/><!--
 Nuclear energy                        15.18508518
 One-electron energy                 -123.55416471
 Two-electron energy                   52.70231290
 Virial quotient                       -2.25890191
 !RHF STATE 1.1 Dipole moment           0.00000000     0.00000000    -3.97361331
 Dipole moment /Debye                   0.00000000     0.00000000   -10.09925612
   --><property name="Dipole moment" method="RHF" principal="true" stateSymmetry="1"
     stateNumber="1" value="0.0 0.0 -3.97361331292856"/><!--

 ELECTRON ORBITALS
 =================


   Orb  Occ    Energy  Couls-En    Coefficients

                                   1 1s      1 1s      1 1s      1 1s      1 1s      1 1s      1 1s      1 1s      1 1s      1 1s
                                   1 1s      1 1s      1 1s      1 1s      1 1s      1 1s      1 1s      1 1s      1 1s      1 1s
                                   1 1s      1 1s      1 1s      1 1s      1 1s      1 1s      1 1s      1 1s      1 1s      1 1s
                                   1 1s      1 2pz     1 2pz     1 2pz     1 2pz     1 2pz     1 2pz     1 2pz     1 2pz     1 2pz
                                   1 2pz     1 2pz     1 2pz     1 2pz     1 2pz     1 2pz     1 2pz     1 2pz     1 2pz     1 2pz
                                   1 2pz     1 2pz     1 2pz     1 2pz     1 2pz     1 2pz     1 2pz     1 2pz     1 3d0     1 3d2+
                                   1 3d0     1 3d2+    1 3d0     1 3d2+    1 3d0     1 3d2+    1 3d0     1 3d2+    1 3d0     1 3d2+
                                   1 3d0     1 3d2+    1 3d0     1 3d2+    1 3d0     1 3d2+    1 3d0     1 3d2+    1 3d0     1 3d2+
                                   1 3d0     1 3d2+    1 3d0     1 3d2+    1 3d0     1 3d2+    1 3d0     1 3d2+    1 3d0     1 3d2+
                                   1 3d0     1 3d2+    1 3d0     1 3d2+    1 4f0     1 4f2+    1 4f0     1 4f2+    1 4f0     1 4f2+
                                   1 4f0     1 4f2+    1 4f0     1 4f2+    1 4f0     1 4f2+    1 4f0     1 4f2+    1 4f0     1 4f2+
                                   1 4f0     1 4f2+    1 4f0     1 4f2+    1 4f0     1 4f2+    1 4f0     1 4f2+    1 4f0     1 4f2+
                                   1 5g0     1 5g4+    1 5g2+    1 5g0     1 5g4+    1 5g2+    1 5g0     1 5g4+    1 5g2+    1 5g0
                                   1 5g4+    1 5g2+    1 5g0     1 5g4+    1 5g2+    1 5g0     1 5g4+    1 5g2+    1 6h2+    1 6h4+
                                   1 6h0     1 6h2+    1 6h4+    1 6h0     1 6h2+    1 6h4+    1 6h0     2 1s      2 1s      2 1s
                                   2 1s      2 1s      2 1s      2 1s      2 1s      2 1s      2 1s      2 1s      2 1s      2 1s
                                   2 2pz     2 2pz     2 2pz     2 2pz     2 2pz     2 2pz     2 2pz     2 2pz     2 3d0     2 3d2+
                                   2 3d0     2 3d2+    2 3d0     2 3d2+    2 3d0     2 3d2+    2 4f0     2 4f2+    2 4f0     2 4f2+


   1.1   2    -2.6440  -12.0468 -0.000000  0.000000 -0.000000  0.000000 -0.000000  0.000000 -0.000001  0.000003 -0.000007  0.000018
                                -0.000044  0.000106 -0.000248  0.000557 -0.001194  0.002455 -0.004609  0.007208 -0.007574 -0.001075
                                 0.189142 -0.376220 -0.254753  0.158223  0.776394  0.309215  0.049551 -0.025842  0.026274 -0.018444
                                 0.005909 -0.000000  0.000000 -0.000000  0.000000 -0.000000  0.000000 -0.000000  0.000000 -0.000000
                                 0.000000 -0.000000  0.000001 -0.000003  0.000007 -0.000011  0.000008 -0.000462  0.001080  0.000692
                                -0.000009 -0.003297 -0.004200 -0.009476  0.002928 -0.002782  0.002228 -0.003091 -0.000000  0.000000
                                 0.000000 -0.000000 -0.000000  0.000000  0.000001 -0.000000 -0.000002  0.000000  0.000006 -0.000000
                                -0.000017  0.000000  0.000039 -0.000000 -0.000084  0.000000  0.000158 -0.000000  0.000049  0.000000
                                 0.000077 -0.000000 -0.004127  0.000001 -0.004612  0.000000  0.000577 -0.000001 -0.000803  0.000001
                                 0.002430 -0.000001 -0.001142  0.000000 -0.000000 -0.000000  0.000000  0.000000 -0.000000 -0.000000
                                 0.000000  0.000000  0.000001 -0.000000 -0.000001  0.000000 -0.000060 -0.000000 -0.000084 -0.000000
                                -0.000949 -0.000001 -0.000328 -0.000000  0.000215  0.000000  0.000390 -0.000000 -0.000140  0.000000
                                -0.000000  0.000000  0.000000  0.000002 -0.000000 -0.000000 -0.000006  0.000000  0.000000  0.000171
                                 0.000000  0.000001  0.000119 -0.000000 -0.000000 -0.000027  0.000000  0.000000  0.000000  0.000000
                                 0.000003 -0.000000 -0.000000 -0.000027  0.000000 -0.000000  0.000081 -0.000000  0.000000 -0.000000
                                 0.000001 -0.000007  0.000231 -0.000300  0.000741  0.001570  0.001659 -0.002286 -0.000301 -0.000381
                                -0.000027 -0.000224 -0.000690 -0.001166 -0.001242  0.000888 -0.000013  0.000007  0.000076  0.000000
                                 0.000397  0.000000  0.000512  0.000000  0.000009  0.000000 -0.000015 -0.000000 -0.000282 -0.000000

   2.1   2    -1.4234   -9.5137 -0.000000  0.000000 -0.000000  0.000000 -0.000000  0.000000 -0.000000  0.000000 -0.000000  0.000001
                                -0.000001  0.000003 -0.000007  0.000016 -0.000035  0.000071 -0.000134  0.000209 -0.000221  0.000082
                                 0.004433 -0.009050 -0.008072  0.006258  0.032762 -0.004065 -0.014113 -0.003502 -0.013940 -0.007931
                                 0.004496 -0.000000  0.000000 -0.000000  0.000000 -0.000000  0.000000 -0.000000  0.000001 -0.000002
                                 0.000007 -0.000019  0.000054 -0.000146  0.000468 -0.002605  0.021526  0.001850 -0.069766 -0.105561
                                 0.177447  0.530090 -0.022090  0.397348 -0.007828  0.065611 -0.014046  0.008750 -0.000000 -0.000000
                                 0.000000  0.000000 -0.000000 -0.000000  0.000001  0.000000 -0.000004 -0.000000  0.000013  0.000000
                                -0.000034 -0.000000  0.000080  0.000000 -0.000175 -0.000000  0.000344  0.000000  0.000185  0.000000
                                -0.000172 -0.000000 -0.008085 -0.000003 -0.016925 -0.000003 -0.006520  0.000002 -0.001335 -0.000001
                                -0.005611  0.000002  0.003230 -0.000001 -0.000000 -0.000000  0.000000  0.000000 -0.000000 -0.000000
                                 0.000000  0.000000  0.000003 -0.000000  0.000002  0.000000 -0.000189  0.000000 -0.000336  0.000000
                                -0.003168  0.000001 -0.002998  0.000003 -0.001451  0.000002 -0.001391 -0.000000  0.000561  0.000000
                                -0.000007 -0.000000 -0.000000  0.000035  0.000000  0.000000 -0.000119 -0.000000 -0.000000 -0.000414
                                -0.000000  0.000000 -0.000650  0.000000  0.000000  0.000276  0.000000 -0.000000 -0.000000 -0.000000
                                 0.000005 -0.000000 -0.000000 -0.000120  0.000000 -0.000000  0.000250 -0.000000  0.000000 -0.000002
                                 0.000014 -0.000126  0.004858 -0.009507  0.016385  0.046803  0.036997  0.022144 -0.004416 -0.007816
[...]
                                -0.000000 -0.000010  0.010600 -0.000000 -0.000012  0.022868 -0.000000 -0.000001 -0.000000 -0.000000
                                 0.000007  0.000000  0.000000 -0.000059 -0.000000 -0.000000  0.000266 -0.000000  0.000000 -0.000003
                                 0.000017 -0.000102  0.001371  0.007295  0.005397 -0.014784  0.025701 -0.332333 -0.007271 -0.003023
                                -0.000582 -0.004940 -0.017368 -0.026145 -0.038492  0.025223 -0.000513  0.000151  0.000053  0.000001
                                -0.003937  0.000003  0.007340  0.000006 -0.000057  0.000000 -0.000109 -0.000000  0.001976 -0.000002

                                   1 2px     1 2px     1 2px     1 2px     1 2px     1 2px     1 2px     1 2px     1 2px     1 2px
                                   1 2px     1 2px     1 2px     1 2px     1 2px     1 2px     1 2px     1 2px     1 2px     1 2px
                                   1 2px     1 2px     1 2px     1 2px     1 2px     1 2px     1 2px     1 3d1+    1 3d1+    1 3d1+
                                   1 3d1+    1 3d1+    1 3d1+    1 3d1+    1 3d1+    1 3d1+    1 3d1+    1 3d1+    1 3d1+    1 3d1+
                                   1 3d1+    1 3d1+    1 3d1+    1 3d1+    1 3d1+    1 4f1+    1 4f3+    1 4f1+    1 4f3+    1 4f1+
                                   1 4f3+    1 4f1+    1 4f3+    1 4f1+    1 4f3+    1 4f1+    1 4f3+    1 4f1+    1 4f3+    1 4f1+
                                   1 4f3+    1 4f1+    1 4f3+    1 4f1+    1 4f3+    1 4f1+    1 4f3+    1 4f1+    1 4f3+    1 4f1+
                                   1 4f3+    1 5g1+    1 5g3+    1 5g1+    1 5g3+    1 5g1+    1 5g3+    1 5g1+    1 5g3+    1 5g1+
                                   1 5g3+    1 5g1+    1 5g3+    1 6h1+    1 6h3+    1 6h5+    1 6h1+    1 6h3+    1 6h5+    1 6h1+
                                   1 6h3+    1 6h5+    2 2px     2 2px     2 2px     2 2px     2 2px     2 2px     2 2px     2 2px
                                   2 3d1+    2 3d1+    2 3d1+    2 3d1+    2 4f1+    2 4f3+    2 4f1+    2 4f3+

   1.2   2    -1.4356   -9.4387 -0.000000  0.000000 -0.000000  0.000000 -0.000000  0.000000 -0.000000  0.000001 -0.000002  0.000006
                                -0.000018  0.000051 -0.000138  0.000447 -0.002548  0.021240  0.002677 -0.070902 -0.105905  0.177397
                                 0.532528 -0.018720  0.404736  0.051893  0.068430 -0.004654 -0.049781 -0.000000  0.000000 -0.000000
                                 0.000001 -0.000002  0.000006 -0.000016  0.000036 -0.000081  0.000157  0.000138 -0.000031 -0.003835
                                -0.012540 -0.004717  0.002200 -0.002694  0.000601 -0.000000  0.000000  0.000000 -0.000000 -0.000001
                                 0.000000  0.000004 -0.000000 -0.000007  0.000000  0.000028 -0.000000 -0.000282 -0.000000 -0.000365
                                -0.000000 -0.003325 -0.000000 -0.003578 -0.000000 -0.000232 -0.000000 -0.000178  0.000000 -0.000072
                                -0.000000 -0.000007 -0.000000  0.000037  0.000000 -0.000166 -0.000000 -0.000626 -0.000000  0.000124
                                 0.000000 -0.000172 -0.000000  0.000000 -0.000000 -0.000000 -0.000063 -0.000000 -0.000000  0.000026
                                -0.000000 -0.000000  0.000086  0.000746  0.002270  0.003752  0.003286  0.000866  0.000019 -0.000023
                                -0.000146 -0.000905 -0.001065 -0.000017  0.000077  0.000000  0.000508  0.000000

   2.2   2    -0.3084   -6.5718  0.000000 -0.000000  0.000000 -0.000000  0.000000 -0.000000  0.000000 -0.000000  0.000000 -0.000000
                                 0.000001 -0.000002  0.000005 -0.000017  0.000130 -0.001233 -0.000448  0.004994  0.006926 -0.013032
                                -0.038929  0.001006 -0.038684 -0.103092  0.030142  0.066248  0.102260 -0.000000  0.000000 -0.000000
                                 0.000001 -0.000003  0.000010 -0.000026  0.000052 -0.000020 -0.000024 -0.005618  0.009488  0.042955
                                 0.082914  0.092956 -0.003778  0.048601 -0.022304 -0.000000 -0.000000  0.000001  0.000000 -0.000005
                                -0.000000  0.000018  0.000000 -0.000062 -0.000000  0.000129  0.000000  0.000209 -0.000000  0.001827
                                 0.000000  0.002201 -0.000000  0.015227  0.000000  0.011255  0.000001  0.007562  0.000001 -0.004405
                                 0.000000  0.000007  0.000000 -0.000031 -0.000000  0.000364  0.000000  0.005466  0.000001 -0.001539
                                 0.000001  0.001416  0.000000  0.000064 -0.000000 -0.000000 -0.000521  0.000000  0.000000  0.001983
                                -0.000000 -0.000000  0.009017  0.077405  0.254865  0.399094  0.351638  0.096948  0.005117 -0.002372
                                -0.002552 -0.011022 -0.020417 -0.000268  0.000668  0.000002  0.005306  0.000001

   3.2   0    -0.0167   -3.0214  0.000000 -0.000000  0.000000 -0.000000  0.000000 -0.000000  0.000000 -0.000001  0.000002 -0.000006
                                 0.000016 -0.000045  0.000120 -0.000346  0.001290 -0.008751  0.008098  0.006815  0.025389 -0.047208
                                -0.070587 -0.075250 -0.052227 -9.962818  0.009948  0.515023 10.409136  0.000000 -0.000000  0.000000
                                -0.000001  0.000005 -0.000015  0.000038 -0.000078  0.000055 -0.000027  0.006923 -0.011784 -0.052130
                                -0.096915 -0.106669 -0.476192  0.671196 -0.596766  0.000000  0.000000 -0.000000 -0.000000  0.000001
                                 0.000000 -0.000003 -0.000000  0.000006  0.000000 -0.000018 -0.000000  0.000123 -0.000000  0.000044
                                -0.000000  0.001094 -0.000001  0.002233 -0.000005  0.004486 -0.000010 -0.008583 -0.000002  0.009434
                                -0.000004  0.000009  0.000000 -0.000044 -0.000000  0.000331  0.000000  0.004722  0.000001  0.003474
                                 0.000000 -0.000692 -0.000001  0.000004  0.000000  0.000000 -0.000034 -0.000000 -0.000000  0.000195
                                 0.000000  0.000000 -0.000167 -0.001439 -0.004676 -0.007408 -0.005106  0.025232 -0.000081  0.000044
                                 0.000090  0.001377 -0.001129  0.000025 -0.000058 -0.000000 -0.000901  0.000000

   4.2   0     0.0522   -2.1255 -0.000000  0.000000 -0.000000  0.000000 -0.000000  0.000000 -0.000001  0.000004 -0.000014  0.000042
                                -0.000122  0.000332 -0.000880  0.002445 -0.007417  0.041382 -0.079016  0.071214 -0.035030  0.063822
                                -0.462543  0.746299 -0.678889 69.451676  0.522068 -0.897149-69.007926 -0.000000  0.000000 -0.000001
                                 0.000003 -0.000010  0.000030 -0.000079  0.000193 -0.000517  0.001063  0.006488 -0.011070 -0.070837
                                -0.102967 -0.223654  0.657821 -1.442912  0.931118 -0.000000  0.000000  0.000001 -0.000000 -0.000003
                                 0.000000  0.000009 -0.000000 -0.000031  0.000000  0.000064 -0.000000  0.000102 -0.000000  0.000825
                                -0.000000  0.001223 -0.000001  0.009355 -0.000002  0.015554 -0.000006  0.048356  0.000002  0.162433
                                -0.000010  0.000012  0.000000 -0.000055 -0.000000  0.000426  0.000000  0.005793  0.000001  0.006096
                                -0.000001  0.053048  0.000005  0.000006  0.000000  0.000000 -0.000058 -0.000000 -0.000000  0.000336
                                 0.000000  0.000000  0.000721  0.005925  0.024042  0.032216  0.049518 -0.240207  0.001222 -0.000179
                                 0.000282  0.000275  0.004015 -0.000003 -0.000066  0.000000 -0.000645  0.000000

                                   1 2py     1 2py     1 2py     1 2py     1 2py     1 2py     1 2py     1 2py     1 2py     1 2py
                                   1 2py     1 2py     1 2py     1 2py     1 2py     1 2py     1 2py     1 2py     1 2py     1 2py
                                   1 2py     1 2py     1 2py     1 2py     1 2py     1 2py     1 2py     1 3d1-    1 3d1-    1 3d1-
                                   1 3d1-    1 3d1-    1 3d1-    1 3d1-    1 3d1-    1 3d1-    1 3d1-    1 3d1-    1 3d1-    1 3d1-
                                   1 3d1-    1 3d1-    1 3d1-    1 3d1-    1 3d1-    1 4f1-    1 4f3-    1 4f1-    1 4f3-    1 4f1-
                                   1 4f3-    1 4f1-    1 4f3-    1 4f1-    1 4f3-    1 4f1-    1 4f3-    1 4f1-    1 4f3-    1 4f1-
                                   1 4f3-    1 4f1-    1 4f3-    1 4f1-    1 4f3-    1 4f1-    1 4f3-    1 4f1-    1 4f3-    1 4f1-
                                   1 4f3-    1 5g1-    1 5g3-    1 5g1-    1 5g3-    1 5g1-    1 5g3-    1 5g1-    1 5g3-    1 5g1-
                                   1 5g3-    1 5g1-    1 5g3-    1 6h1-    1 6h3-    1 6h5-    1 6h1-    1 6h3-    1 6h5-    1 6h1-
                                   1 6h3-    1 6h5-    2 2py     2 2py     2 2py     2 2py     2 2py     2 2py     2 2py     2 2py
                                   2 3d1-    2 3d1-    2 3d1-    2 3d1-    2 4f1-    2 4f3-    2 4f1-    2 4f3-

   1.3   2    -1.4356   -9.4387 -0.000000  0.000000 -0.000000  0.000000 -0.000000  0.000000 -0.000000  0.000001 -0.000002  0.000006
                                -0.000018  0.000051 -0.000138  0.000447 -0.002548  0.021240  0.002677 -0.070902 -0.105904  0.177397
                                 0.532527 -0.018722  0.404736  0.051893  0.068434 -0.004652 -0.049781 -0.000000  0.000000 -0.000000
                                 0.000001 -0.000002  0.000006 -0.000016  0.000036 -0.000081  0.000157  0.000138 -0.000030 -0.003830
                                -0.012535 -0.004722  0.002203 -0.002698  0.000602 -0.000000  0.000000  0.000000 -0.000000 -0.000001
                                 0.000000  0.000004 -0.000000 -0.000007  0.000000  0.000028 -0.000000 -0.000282 -0.000000 -0.000366
                                -0.000000 -0.003327 -0.000000 -0.003582 -0.000000 -0.000235 -0.000000 -0.000177  0.000000 -0.000073
                                -0.000000 -0.000007 -0.000000  0.000037  0.000000 -0.000166 -0.000000 -0.000628 -0.000000  0.000125
                                 0.000000 -0.000172 -0.000000  0.000000 -0.000000 -0.000000 -0.000063 -0.000000 -0.000000  0.000026
                                -0.000000 -0.000000  0.000086  0.000746  0.002268  0.003748  0.003283  0.000866  0.000018 -0.000023
                                -0.000146 -0.000904 -0.001065 -0.000017  0.000077  0.000000  0.000508  0.000000

   2.3   2    -0.3086   -6.5728  0.000000 -0.000000  0.000000 -0.000000  0.000000 -0.000000  0.000000 -0.000000  0.000000 -0.000000
                                 0.000001 -0.000002  0.000005 -0.000017  0.000130 -0.001233 -0.000447  0.004988  0.006920 -0.013019
                                -0.038882  0.000994 -0.038633 -0.103290  0.030106  0.066078  0.102367 -0.000000  0.000000 -0.000000
                                 0.000001 -0.000003  0.000010 -0.000026  0.000052 -0.000020 -0.000023 -0.005605  0.009466  0.042843
                                 0.082711  0.092737 -0.003859  0.048578 -0.022351 -0.000000 -0.000000  0.000001  0.000000 -0.000005
                                -0.000000  0.000018  0.000000 -0.000062 -0.000000  0.000129  0.000000  0.000209 -0.000000  0.001827
                                 0.000000  0.002199 -0.000000  0.015224  0.000000  0.011246  0.000001  0.007555  0.000001 -0.004411
                                 0.000000  0.000007  0.000000 -0.000031 -0.000000  0.000365  0.000000  0.005469  0.000001 -0.001541
                                 0.000001  0.001417  0.000000  0.000064 -0.000000 -0.000000 -0.000521  0.000000  0.000000  0.001984
                                -0.000000 -0.000000  0.009021  0.077438  0.254976  0.399250  0.351733  0.096929  0.005119 -0.002373
                                -0.002551 -0.011013 -0.020412 -0.000268  0.000669  0.000002  0.005306  0.000001

   3.3   0    -0.0167   -3.0216  0.000000 -0.000000  0.000000 -0.000000  0.000000 -0.000000  0.000000 -0.000001  0.000002 -0.000006
                                 0.000016 -0.000045  0.000120 -0.000346  0.001290 -0.008748  0.008092  0.006823  0.025390 -0.047209
                                -0.070643 -0.075190 -0.052301 -9.958012  0.010017  0.515042 10.404311  0.000000 -0.000000  0.000000
                                -0.000001  0.000005 -0.000015  0.000038 -0.000078  0.000055 -0.000027  0.006921 -0.011782 -0.052120
                                -0.096894 -0.106677 -0.476071  0.670930 -0.596564  0.000000  0.000000 -0.000000 -0.000000  0.000001
                                 0.000000 -0.000003 -0.000000  0.000006  0.000000 -0.000019 -0.000000  0.000123 -0.000000  0.000043
                                -0.000000  0.001092 -0.000001  0.002228 -0.000005  0.004471 -0.000010 -0.008583 -0.000002  0.009422
                                -0.000004  0.000009  0.000000 -0.000044 -0.000000  0.000331  0.000000  0.004723  0.000001  0.003472
                                 0.000000 -0.000692 -0.000001  0.000004  0.000000  0.000000 -0.000034 -0.000000 -0.000000  0.000195
                                 0.000000  0.000000 -0.000167 -0.001442 -0.004684 -0.007422 -0.005116  0.025220 -0.000081  0.000044
                                 0.000090  0.001376 -0.001129  0.000025 -0.000058 -0.000000 -0.000900  0.000000

   4.3   0     0.0522   -2.1253 -0.000000  0.000000 -0.000000  0.000000 -0.000000  0.000000 -0.000001  0.000004 -0.000014  0.000042
                                -0.000122  0.000332 -0.000880  0.002445 -0.007417  0.041382 -0.079016  0.071212 -0.035032  0.063825
                                -0.462530  0.746291 -0.678874 69.451175  0.522069 -0.897142-69.007522 -0.000000  0.000000 -0.000001
                                 0.000003 -0.000010  0.000030 -0.000079  0.000193 -0.000517  0.001063  0.006488 -0.011070 -0.070830
                                -0.102959 -0.223644  0.657715 -1.442705  0.930991 -0.000000  0.000000  0.000001 -0.000000 -0.000003
                                 0.000000  0.000009 -0.000000 -0.000031  0.000000  0.000064 -0.000000  0.000102 -0.000000  0.000825
                                -0.000000  0.001222 -0.000001  0.009348 -0.000002  0.015540 -0.000006  0.048356  0.000002  0.162413
                                -0.000010  0.000012  0.000000 -0.000055 -0.000000  0.000426  0.000000  0.005792  0.000001  0.006093
                                -0.000001  0.053052  0.000005  0.000006  0.000000  0.000000 -0.000058 -0.000000 -0.000000  0.000336
                                 0.000000  0.000000  0.000719  0.005912  0.023999  0.032147  0.049455 -0.240229  0.001221 -0.000178
                                 0.000282  0.000276  0.004015 -0.000003 -0.000066  0.000000 -0.000645  0.000000

                                   1 3d2-    1 3d2-    1 3d2-    1 3d2-    1 3d2-    1 3d2-    1 3d2-    1 3d2-    1 3d2-    1 3d2-
                                   1 3d2-    1 3d2-    1 3d2-    1 3d2-    1 3d2-    1 3d2-    1 3d2-    1 3d2-    1 4f2-    1 4f2-
                                   1 4f2-    1 4f2-    1 4f2-    1 4f2-    1 4f2-    1 4f2-    1 4f2-    1 4f2-    1 4f2-    1 4f2-
                                   1 4f2-    1 5g2-    1 5g4-    1 5g2-    1 5g4-    1 5g2-    1 5g4-    1 5g2-    1 5g4-    1 5g2-
                                   1 5g4-    1 5g2-    1 5g4-    1 6h4-    1 6h2-    1 6h4-    1 6h2-    1 6h4-    1 6h2-    2 3d2-
                                   2 3d2-    2 3d2-    2 3d2-    2 4f2-    2 4f2-

   1.4   0     0.0321   -3.6188  0.000000 -0.000000  0.000001 -0.000005  0.000017 -0.000049  0.000124 -0.000263  0.000277 -0.000327
                                 0.017594 -0.030004 -0.127252 -0.261674 -0.189664 -1.263339  2.215215 -1.725872  0.000000 -0.000000
                                 0.000002 -0.000006  0.000009 -0.000035  0.000385  0.000501  0.002409  0.009666  0.060988 -0.021769
                                 0.157045  0.000014  0.000000 -0.000066 -0.000000  0.000525  0.000000  0.007558  0.000003  0.008302
                                 0.000002  0.002502  0.000000  0.000000  0.000001 -0.000000 -0.000023  0.000000  0.000199 -0.000426
                                -0.002059 -0.002714 -0.000039  0.000086  0.001026

   2.4   0     0.0794   -2.7064 -0.000000  0.000001 -0.000003  0.000013 -0.000045  0.000133 -0.000348  0.000820 -0.001903  0.003746
                                 0.009190 -0.015616 -0.145029 -0.172798 -0.601026  3.515368 -7.282659  4.600052 -0.000001  0.000006
                                -0.000025  0.000085 -0.000240  0.000569 -0.001037  0.003162 -0.004822  0.025851 -0.050779  0.220969
                                -0.384046  0.000012  0.000000 -0.000058 -0.000000  0.000478  0.000000  0.007539  0.000002  0.004007
                                 0.000000  0.010616  0.000003  0.000000  0.000003 -0.000000 -0.000040  0.000000  0.000262 -0.000388
                                -0.000829 -0.003743 -0.000017  0.000320 -0.000457

 HOMO      5.1    -0.285595 =      -7.7714eV
 LUMO      3.3    -0.016683 =      -0.4540eV
 LUMO-HOMO         0.268913 =       7.3175eV

 No convergence



 **********************************************************************************************************************************
 DATASETS  * FILE   NREC   LENGTH (MB)   RECORD NAMES
              1      19       22.47       500      610      700      900      950      970     1000      129      960     1100
                                          VAR    BASINP    GEOM    SYMINP    ZMAT    AOBASIS   BASIS     P2S    ABASIS      S
                                         1400     1410     1420     1200     1210     1080     1600     1650     1700
                                           T        V       ECP      H0       H01     AOSYM     SMH    MOLCAS    OPER

              2       5        9.36       700     1000      520     2202     3202
                                         GEOM     BASIS   MCVARS     RHF      RHF

 PROGRAMS   *        TOTAL       RHF       RHF       INT
 CPU TIMES  *       214.44    107.39     11.10     95.17
 REAL TIME  *       247.16 SEC
 DISK USED  *         9.32 GB
 SF USED    *         0.24 MB
 GA USED    *         0.00 MB       (max)       0.00 MB       (current)
 **********************************************************************************************************************************
   -->
   <time start="09:48:37" end="09:50:31" cpu="107.41" system="6.99" real="114.67"/>
   <storage units="megabyte" memory="8001.84" sf="0.24" df="445.09" eaf="8878.8" ga="0.0"/>
  </jobstep><!--
 SETTING SCF            =       -55.66676663  AU
 SETTING _CC_NORM_MAX   =         2.00000000
  --><jobstep command="RCCSD(T)" commandset="CCSD">
   <!--


 PROGRAM * CCSD (Restricted open-shell coupled cluster)     Authors: C. Hampel, H.-J. Werner, 1991, M. Deegan, P.J. Knowles, 1992


 Convergence thresholds:  THRVAR = 1.00D-08  THRDEN = 1.00D-06

 CCSD(T)     terms to be evaluated (factor= 1.000)


 Number of closed-shell orbitals:   8 (   4   2   2   0 )
 Number of active  orbitals:        1 (   1   0   0   0 )
 Number of external orbitals:     442 ( 175 106 106  55 )

 Memory could be reduced to 357.68 Mwords without degradation in triples

 Number of N-1 electron functions:              17
 Number of N-2 electron functions:             136
 Number of singly external CSFs:              2432
 Number of doubly external CSFs:           5288016
 Total number of CSFs:                     5290448

 Molecular orbitals read from record     3202.2  Type=RHF/CANONICAL (state 1.1)

 ?Error: RHF not converged. This error exit can be avoided using the IGNORE_ERROR option on the ORBITAL directive
