<?xml version="1.0"?>
<molpro xmlns="http://www.molpro.net/schema/molpro-output"
  xmlns:xsd="http://www.w3.org/1999/XMLSchema"
  xmlns:cml="http://www.xml-cml.org/schema"
  xmlns:stm="http://www.xml-cml.org/schema"
  xmlns:xhtml="http://www.w3.org/1999/xhtml">
 <!--

 Nodes     nprocs
 nid02095    11
 Number of processes for MPI-2 version of Molpro:   nprocs(total)=   12   nprocs(compute)=   11   nprocs(helper)=    1

 Using customized tuning parameters: mindgm=7; mindgv=16; mindgc=1; mindgr=1; noblas=0; minvec=7
 default implementation of scratch files=sf

 --><job>
  <!--

 Variables initialized (889), CPU time= 0.03 sec
 Commands  initialized (702), CPU time= 0.01 sec, 572 directives.
 Default parameters read. Elapsed time= 0.12 sec

 Checking input...
 Passed
1


                                         ***  PROGRAM SYSTEM MOLPRO  ***
                                       Copyright, TTI GmbH Stuttgart, 2015
                                    Version 2015.1 linked Dec 29 2018 15:55:43


 **********************************************************************************************************************************
 LABEL *   Calculation for Y atom, singlet and triplet
  64 bit mpp version                                                                     DATE: 06-May-23          TIME: 09:46:24
 **********************************************************************************************************************************

 SHA1:             19cd028119e0e09f93f0674bd8af7968d9b3eff6
 **********************************************************************************************************************************
  -->
  <!--

 THRESHOLDS:

 ZERO    =  1.00D-12  ONEINT  =  1.00D-12  TWOINT  =  1.00D-15  PREFAC  =  1.00D-14  LOCALI  =  1.00D-09  EORDER  =  1.00D-04
 ENERGY  =  0.00D+00  ETEST   =  0.00D+00  EDENS   =  0.00D+00  THRDEDEF=  1.00D-06  GRADIENT=  1.00D-02  STEP    =  1.00D-03
 ORBITAL =  1.00D-05  CIVEC   =  1.00D-05  COEFF   =  1.00D-04  PRINTCI =  5.00D-02  PUNCHCI =  9.90D+01  OPTGRAD =  3.00D-04
 OPTENERG=  1.00D-06  OPTSTEP =  3.00D-04  THRGRAD =  1.00D-10  COMPRESS=  1.00D-11  VARMIN  =  1.00D-07  VARMAX  =  1.00D-03
 THRDOUB =  0.00D+00  THRDIV  =  1.00D-05  THRRED  =  1.00D-07  THRPSP  =  1.00D+00  THRDC   =  1.00D-10  THRCS   =  1.00D-10
 THRNRM  =  1.00D-08  THREQ   =  0.00D+00  THRDE   =  1.00D+00  THRREF  =  1.00D-05  SPARFAC =  1.00D+00  THRDLP  =  1.00D-07
 THRDIA  =  1.00D-10  THRDLS  =  1.00D-07  THRGPS  =  0.00D+00  THRKEX  =  0.00D+00  THRDIS  =  2.00D-01  THRVAR  =  1.00D-10
 THRLOC  =  1.00D-06  THRGAP  =  1.00D-06  THRLOCT = -1.00D+00  THRGAPT = -1.00D+00  THRORB  =  1.00D-06  THRMLTP =  0.00D+00
 THRCPQCI=  1.00D-10  KEXTA   =  0.00D+00  THRCOARS=  0.00D+00  SYMTOL  =  1.00D-06  GRADTOL =  1.00D-06  THROVL  =  1.00D-08
 THRORTH =  1.00D-08  GRID    =  1.00D-06  GRIDMAX =  1.00D-03  DTMAX   =  0.00D+00  THROCCDE=  1.00D-01  THROCCDE=  1.00D-01



 THRESHOLDS:

 ZERO    =  1.00D-12  ONEINT  =  1.00D-12  TWOINT  =  1.00D-15  PREFAC  =  1.00D-14  LOCALI  =  1.00D-09  EORDER  =  1.00D-04
 ENERGY  =  0.00D+00  ETEST   =  0.00D+00  EDENS   =  0.00D+00  THRDEDEF=  1.00D-06  GRADIENT=  1.00D-02  STEP    =  1.00D-03
 ORBITAL =  1.00D-05  CIVEC   =  1.00D-05  COEFF   =  1.00D-04  PRINTCI =  5.00D-02  PUNCHCI =  9.90D+01  OPTGRAD =  3.00D-04
 OPTENERG=  1.00D-06  OPTSTEP =  3.00D-04  THRGRAD =  1.00D-10  COMPRESS=  1.00D-11  VARMIN  =  1.00D-07  VARMAX  =  1.00D-03
 THRDOUB =  0.00D+00  THRDIV  =  1.00D-05  THRRED  =  1.00D-07  THRPSP  =  1.00D+00  THRDC   =  1.00D-10  THRCS   =  1.00D-10
 THRNRM  =  1.00D-08  THREQ   =  0.00D+00  THRDE   =  1.00D+00  THRREF  =  1.00D-05  SPARFAC =  1.00D+00  THRDLP  =  1.00D-07
 THRDIA  =  1.00D-10  THRDLS  =  1.00D-07  THRGPS  =  0.00D+00  THRKEX  =  0.00D+00  THRDIS  =  2.00D-01  THRVAR  =  1.00D-10
 THRLOC  =  1.00D-06  THRGAP  =  1.00D-06  THRLOCT = -1.00D+00  THRGAPT = -1.00D+00  THRORB  =  1.00D-06  THRMLTP =  0.00D+00
 THRCPQCI=  1.00D-10  KEXTA   =  0.00D+00  THRCOARS=  0.00D+00  SYMTOL  =  1.00D-06  GRADTOL =  1.00D-06  THROVL  =  1.00D-15
 THRORTH =  1.00D-08  GRID    =  1.00D-06  GRIDMAX =  1.00D-03  DTMAX   =  0.00D+00  THROCCDE=  1.00D-01  THROCCDE=  1.00D-01



 Variable memory set to 1000000000 words,  buffer space   230000 words

 SETTING BASIS          =    USERDEF
 SETTING LU_CCSD        =       -40.32241007
 SETTING O_CCSD         =       -15.86622096
 SETTING NE             =        17.00000000
 SETTING SYMM           =         1.00000000
 SETTING SS             =         1.00000000
 SETTING A1             =         5.00000000
 SETTING B1             =         2.00000000
 SETTING B2             =         2.00000000
 SETTING A2             =     0.00000000D+00

Geometry recognized as XYZ

  --><jobstep command="RHF-SCF" commandset="SCFPRO">
   <!--


 Recomputing integrals since basis changed


 Using spherical harmonics



 PROGRAM * SEWARD (Integral evaluation for generally contracted gaussian basis sets)     Author: Roland Lindh, 1990

 Geometry written to block  1 of record 700


 Point group  C2v


   --><cml:molecule>
    <cml:symmetry pointGroup="C2v"/>
    <cml:atomArray>
     <cml:atom id="a1" elementType="Lu" x3="0.0" y3="0.0" z3="0.0"/>
     <cml:atom id="a2" elementType="O" x3="0.0" y3="0.0" z3="2.3"/>
    </cml:atomArray>
    <cml:bondArray>
     <cml:bond atomRefs2="a1 a2"/>
    </cml:bondArray>
   </cml:molecule><!--

 ATOMIC COORDINATES

 NR  ATOM    CHARGE       X              Y              Z

   1  LU     11.00    0.000000000    0.000000000    0.000000000
   2  O       6.00    0.000000000    0.000000000    4.346370086

 Bond lengths in Bohr (Angstrom)

 1-2  4.346370086
     ( 2.300000000)

 NUCLEAR CHARGE:                   17
 NUMBER OF PRIMITIVE AOS:         584
 NUMBER OF SYMMETRY AOS:          451
 NUMBER OF CONTRACTIONS:          451   ( 180A1  + 108B1  + 108B2  +  55A2  )
 NUMBER OF CORE ORBITALS:           0   (   0A1  +   0B1  +   0B2  +   0A2  )
 NUMBER OF VALENCE ORBITALS:       14   (   7A1  +   3B1  +   3B2  +   1A2  )


 NUCLEAR REPULSION ENERGY   15.18508518

 EXTRA SYMMETRY OF AOS IN SYMMETRY 1:   1 1 1 1 1 1 1 1 1 1   1 1 1 1 1 1 1 1 1 1   1 1 1 1 1 1 1 1 1 1   1 1 1 1 1 1 1 1 1 1
                                        1 1 1 1 1 1 1 1 1 1   1 1 1 1 1 1 1 1 1 2   1 2 1 2 1 2 1 2 1 2   1 2 1 2 1 2 1 2 1 2
                                        1 2 1 2 1 2 1 2 1 2   1 2 1 2 1 2 1 2 1 2   1 2 1 2 1 2 1 2 1 2   1 2 1 2 1 2 1 2 1 2
                                        1 3 2 1 3 2 1 3 2 1   3 2 1 3 2 1 3 2 2 3   1 2 3 1 2 3 1 1 1 1   1 1 1 1 1 1 1 1 1 1
                                        1 1 1 1 1 1 1 1 1 2   1 2 1 2 1 2 1 2 1 2
 EXTRA SYMMETRY OF AOS IN SYMMETRY 2:   1 1 1 1 1 1 1 1 1 1   1 1 1 1 1 1 1 1 1 1   1 1 1 1 1 1 1 1 1 1   1 1 1 1 1 1 1 1 1 1
                                        1 1 1 1 1 1 2 1 2 1   2 1 2 1 2 1 2 1 2 1   2 1 2 1 2 1 2 1 2 1   2 1 2 1 2 1 2 1 2 1
                                        2 1 2 1 2 3 1 2 3 1   2 3 1 1 1 1 1 1 1 1   1 1 1 1 1 2 1 2
 EXTRA SYMMETRY OF AOS IN SYMMETRY 3:   1 1 1 1 1 1 1 1 1 1   1 1 1 1 1 1 1 1 1 1   1 1 1 1 1 1 1 1 1 1   1 1 1 1 1 1 1 1 1 1
                                        1 1 1 1 1 1 2 1 2 1   2 1 2 1 2 1 2 1 2 1   2 1 2 1 2 1 2 1 2 1   2 1 2 1 2 1 2 1 2 1
                                        2 1 2 1 2 3 1 2 3 1   2 3 1 1 1 1 1 1 1 1   1 1 1 1 1 2 1 2
 EXTRA SYMMETRY OF AOS IN SYMMETRY 4:   1 1 1 1 1 1 1 1 1 1   1 1 1 1 1 1 1 1 1 1   1 1 1 1 1 1 1 1 1 1   1 1 2 1 2 1 2 1 2 1
                                        2 1 2 2 1 2 1 2 1 1   1 1 1 1 1

 Eigenvalues of metric

         1 0.863E-05 0.121E-04 0.369E-04 0.478E-04 0.678E-04 0.747E-04 0.105E-03 0.186E-03
         2 0.122E-04 0.175E-04 0.105E-03 0.490E-03 0.644E-03 0.156E-02 0.220E-02 0.335E-02
         3 0.122E-04 0.175E-04 0.105E-03 0.490E-03 0.644E-03 0.156E-02 0.220E-02 0.335E-02
         4 0.701E-03 0.220E-02 0.838E-02 0.144E-01 0.215E-01 0.328E-01 0.344E-01 0.520E-01


 Contracted 2-electron integrals neglected if value below      1.0D-15
 AO integral compression algorithm  1   Integral accuracy      1.0D-15

     3558.867 MB (compressed) written to integral file ( 32.4%)

     Node minimum: 240.124 MB, node maximum: 433.848 MB


 NUMBER OF SORTED TWO-ELECTRON INTEGRALS:  120345949.     BUFFER LENGTH:  32768
 NUMBER OF SEGMENTS:   4  SEGMENT LENGTH:   31993849      RECORD LENGTH: 524288

 Memory used in sort:      32.55 MW

 SORT1 READ  1374547738. AND WROTE    41189655. INTEGRALS IN    120 RECORDS. CPU TIME:    27.84 SEC, REAL TIME:    42.60 SEC
 SORT2 READ   446856432. AND WROTE  1323827515. INTEGRALS IN  10538 RECORDS. CPU TIME:     1.75 SEC, REAL TIME:    13.00 SEC

 Node minimum:   120327112.  Node maximum:   120451591. integrals

 OPERATOR DM      FOR CENTER  0  COORDINATES:    0.000000    0.000000    0.000000


 **********************************************************************************************************************************
 DATASETS  * FILE   NREC   LENGTH (MB)   RECORD NAMES
              1      19       22.40       500      610      700      900      950      970     1000      129      960     1100
                                          VAR    BASINP    GEOM    SYMINP    ZMAT    AOBASIS   BASIS     P2S    ABASIS      S
                                         1400     1410     1420     1200     1210     1080     1600     1650     1700
                                           T        V       ECP      H0       H01     AOSYM     SMH    MOLCAS    OPER

 PROGRAMS   *        TOTAL       INT
 CPU TIMES  *        90.33     89.95
 REAL TIME  *       118.70 SEC
 DISK USED  *         8.88 GB
 GA USED    *         0.00 MB       (max)       0.00 MB       (current)
 **********************************************************************************************************************************


 PROGRAM * RHF-SCF (CLOSED SHELL)       Authors: W. Meyer, H.-J. Werner


 NUMBER OF ELECTRONS:       8+    8-    SPACE SYMMETRY=1    SPIN SYMMETRY: Singlet
 CONVERGENCE THRESHOLDS:    1.00E-05 (Density)    1.00E-07 (Energy)
 MAX. NUMBER OF ITERATIONS:      200
 INTERPOLATION TYPE:            DIIS
 INTERPOLATION STEPS:              2 (START)      1 (STEP)
 LEVEL SHIFTS:                  0.00 (CLOSED)  0.00 (OPEN)

 Number of closed-shell orbitals:    8 (   4   2   2   0 )


 Orbital guess generated from atomic densities. Full valence occupancy:    7   3   3   1

 Molecular orbital dump at record        2202.2

 ITERATION    DDIFF          GRAD             ENERGY        2-EL.EN.            DIPOLE MOMENTS         DIIS   ORB.
    1      0.000D+00      0.000D+00       -55.03368586    101.591354    0.00000    0.00000   -7.79686    0    start
    2      0.000D+00      0.154D-01       -48.98457252     94.184634    0.00000    0.00000   22.89324    1    diag
    3      0.176D-01      0.496D-01       -55.34213416     98.961779    0.00000    0.00000   -5.88865    2    diag
    4      0.158D-01      0.503D-02       -55.38588308     98.376366    0.00000    0.00000   -4.62726    3    diag
    5      0.259D-02      0.192D-02       -55.39232282     98.006745    0.00000    0.00000   -4.08432    4    diag
    6      0.981D-03      0.413D-03       -55.39357516     97.891868    0.00000    0.00000   -3.91433    5    diag
    7      0.577D-03      0.432D-03       -55.39454716     97.837955    0.00000    0.00000   -3.82223    6    diag
    8      0.466D-03      0.435D-03       -55.39758345     97.599930    0.00000    0.00000   -3.41803    7    diag
    9      0.172D-02      0.394D-03       -55.39895285     97.401509    0.00000    0.00000   -3.05730    8    diag
   10      0.129D-02      0.254D-03       -55.39900128     97.473803    0.00000    0.00000   -3.17837    9    orth
   11      0.409D-03      0.166D-03       -55.39919667     97.344653    0.00000    0.00000   -2.96191    9    diag
   12      0.645D-03      0.347D-04       -55.39919852     97.361799    0.00000    0.00000   -2.99798    9    diag
   13      0.718D-04      0.196D-04       -55.39920372     97.341843    0.00000    0.00000   -2.96905    9    diag
   14      0.898D-04      0.392D-05       -55.39920393     97.338661    0.00000    0.00000   -2.96490    9    diag
   15      0.166D-04      0.117D-05       -55.39920393     97.337511    0.00000    0.00000   -2.96297    9    diag
   16      0.518D-05      0.125D-05       -55.39920393     97.338385    0.00000    0.00000   -2.96386    0    orth

 Final occupancy:   4   2   2   0

 !RHF STATE 1.1 Energy                -55.399203931899
   --><property name="Energy" method="RHF" principal="true" stateSymmetry="1" stateNumber="1"
     value="-55.3992039318994"/><!--
 Nuclear energy                        15.18508518
 One-electron energy                 -119.25348172
 Two-electron energy                   48.66919261
 Virial quotient                       -2.27310349
 !RHF STATE 1.1 Dipole moment           0.00000000     0.00000000    -2.96386000
 Dipole moment /Debye                   0.00000000     0.00000000    -7.53288729
   --><property name="Dipole moment" method="RHF" principal="true" stateSymmetry="1"
     stateNumber="1" value="0.0 0.0 -2.96385999675502"/><!--

 ELECTRON ORBITALS
 =================


   Orb  Occ    Energy  Couls-En    Coefficients

                                   1 1s      1 1s      1 1s      1 1s      1 1s      1 1s      1 1s      1 1s      1 1s      1 1s
                                   1 1s      1 1s      1 1s      1 1s      1 1s      1 1s      1 1s      1 1s      1 1s      1 1s
                                   1 1s      1 1s      1 1s      1 1s      1 1s      1 1s      1 1s      1 1s      1 1s      1 1s
                                   1 1s      1 2pz     1 2pz     1 2pz     1 2pz     1 2pz     1 2pz     1 2pz     1 2pz     1 2pz
                                   1 2pz     1 2pz     1 2pz     1 2pz     1 2pz     1 2pz     1 2pz     1 2pz     1 2pz     1 2pz
                                   1 2pz     1 2pz     1 2pz     1 2pz     1 2pz     1 2pz     1 2pz     1 2pz     1 3d0     1 3d2+
                                   1 3d0     1 3d2+    1 3d0     1 3d2+    1 3d0     1 3d2+    1 3d0     1 3d2+    1 3d0     1 3d2+
                                   1 3d0     1 3d2+    1 3d0     1 3d2+    1 3d0     1 3d2+    1 3d0     1 3d2+    1 3d0     1 3d2+
                                   1 3d0     1 3d2+    1 3d0     1 3d2+    1 3d0     1 3d2+    1 3d0     1 3d2+    1 3d0     1 3d2+
                                   1 3d0     1 3d2+    1 3d0     1 3d2+    1 4f0     1 4f2+    1 4f0     1 4f2+    1 4f0     1 4f2+
                                   1 4f0     1 4f2+    1 4f0     1 4f2+    1 4f0     1 4f2+    1 4f0     1 4f2+    1 4f0     1 4f2+
                                   1 4f0     1 4f2+    1 4f0     1 4f2+    1 4f0     1 4f2+    1 4f0     1 4f2+    1 4f0     1 4f2+
                                   1 5g0     1 5g4+    1 5g2+    1 5g0     1 5g4+    1 5g2+    1 5g0     1 5g4+    1 5g2+    1 5g0
                                   1 5g4+    1 5g2+    1 5g0     1 5g4+    1 5g2+    1 5g0     1 5g4+    1 5g2+    1 6h2+    1 6h4+
                                   1 6h0     1 6h2+    1 6h4+    1 6h0     1 6h2+    1 6h4+    1 6h0     2 1s      2 1s      2 1s
                                   2 1s      2 1s      2 1s      2 1s      2 1s      2 1s      2 1s      2 1s      2 1s      2 1s
                                   2 2pz     2 2pz     2 2pz     2 2pz     2 2pz     2 2pz     2 2pz     2 2pz     2 3d0     2 3d2+
                                   2 3d0     2 3d2+    2 3d0     2 3d2+    2 3d0     2 3d2+    2 4f0     2 4f2+    2 4f0     2 4f2+


   1.1   2    -2.8991  -12.3045 -0.000000  0.000000 -0.000000  0.000000 -0.000000  0.000000 -0.000001  0.000003 -0.000007  0.000018
                                -0.000044  0.000107 -0.000249  0.000558 -0.001197  0.002461 -0.004620  0.007225 -0.007592 -0.001056
                                 0.189388 -0.376743 -0.255481  0.159183  0.778269  0.310041  0.046009 -0.024813  0.024187 -0.017329
                                 0.005489 -0.000000  0.000000 -0.000000  0.000000 -0.000000  0.000000 -0.000000  0.000000 -0.000000
                                 0.000000 -0.000001  0.000002 -0.000005  0.000012 -0.000024  0.000080 -0.000653  0.001313  0.000848
                                -0.000512 -0.004909 -0.002261 -0.010200  0.003126 -0.002445  0.002513 -0.003153 -0.000000 -0.000000
                                 0.000000  0.000000 -0.000000 -0.000000  0.000001  0.000000 -0.000003 -0.000000  0.000009  0.000000
                                -0.000023 -0.000000  0.000052  0.000000 -0.000113 -0.000000  0.000222  0.000000 -0.000001 -0.000000
                                 0.000187  0.000000 -0.005607 -0.000000 -0.004438 -0.000000  0.001655  0.000000 -0.002030 -0.000000
                                 0.003760  0.000000 -0.001494 -0.000000  0.000000 -0.000000 -0.000000  0.000000  0.000000 -0.000000
                                -0.000001  0.000000  0.000004 -0.000000 -0.000008  0.000000 -0.000011 -0.000000 -0.000081 -0.000000
                                -0.000370 -0.000000 -0.000119 -0.000000  0.000206  0.000000  0.000389 -0.000000 -0.000108  0.000000
                                 0.000001  0.000000  0.000000 -0.000005 -0.000000 -0.000000  0.000040  0.000000  0.000000  0.000268
                                 0.000000  0.000000  0.000102 -0.000000 -0.000000  0.000001  0.000000  0.000000  0.000000  0.000000
                                 0.000003 -0.000000  0.000000 -0.000026  0.000000 -0.000000  0.000104 -0.000000  0.000000 -0.000000
                                 0.000001 -0.000007  0.000227 -0.000253  0.000752  0.001413  0.001393 -0.002404 -0.000325 -0.000377
                                -0.000026 -0.000212 -0.000661 -0.001077 -0.001217  0.000732 -0.000013  0.000007  0.000056  0.000000
                                 0.000384 -0.000000  0.000587 -0.000000  0.000008 -0.000000 -0.000003 -0.000000 -0.000362  0.000000

   2.1   2    -1.6753   -9.7669 -0.000000  0.000000 -0.000000  0.000000 -0.000000  0.000000 -0.000000  0.000000 -0.000000  0.000001
                                -0.000001  0.000003 -0.000007  0.000016 -0.000035  0.000073 -0.000136  0.000214 -0.000226  0.000089
                                 0.004493 -0.009278 -0.007990  0.006937  0.031366 -0.002893 -0.016094  0.000417 -0.016788 -0.006282
                                 0.004332 -0.000000  0.000000 -0.000000  0.000000 -0.000000  0.000000 -0.000000  0.000001 -0.000002
                                 0.000007 -0.000020  0.000055 -0.000149  0.000476 -0.002627  0.021646  0.001562 -0.069395 -0.105633
                                 0.177236  0.529454 -0.024618  0.400633 -0.010291  0.067854 -0.016600  0.011033 -0.000000 -0.000000
                                 0.000000  0.000000 -0.000000 -0.000000  0.000001  0.000000 -0.000004 -0.000000  0.000011  0.000000
                                -0.000028 -0.000000  0.000066  0.000000 -0.000146 -0.000000  0.000284  0.000000  0.000249  0.000000
                                -0.000345 -0.000000 -0.007563 -0.000000 -0.013608 -0.000000 -0.005259  0.000000 -0.002968 -0.000000
                                -0.004881  0.000000  0.003189 -0.000000  0.000000 -0.000000 -0.000000  0.000000  0.000000 -0.000000
                                -0.000000  0.000000  0.000004 -0.000000 -0.000006  0.000000 -0.000107  0.000000  0.000002  0.000000
                                -0.003074  0.000000 -0.001698  0.000000 -0.000814  0.000000 -0.002059 -0.000000  0.000740  0.000000
                                -0.000001  0.000000 -0.000000  0.000007  0.000000  0.000000 -0.000022 -0.000000  0.000000  0.000289
                                 0.000000  0.000000 -0.000999 -0.000000  0.000000  0.000385  0.000000  0.000000 -0.000000  0.000000
                                 0.000008 -0.000000 -0.000000 -0.000144  0.000000  0.000000  0.000426 -0.000000  0.000000 -0.000002
                                 0.000014 -0.000127  0.004949 -0.009854  0.016749  0.048717  0.036112  0.022591 -0.004407 -0.007950
                                -0.000322 -0.002729 -0.008306 -0.014454 -0.014930 -0.007070 -0.000100  0.000086  0.000475  0.000000
                                 0.003103  0.000000  0.003203  0.000000  0.000027 -0.000000 -0.000330  0.000000 -0.001252 -0.000000

   3.1   2    -1.3177   -8.6578  0.000000 -0.000000  0.000000 -0.000000  0.000000 -0.000000  0.000000 -0.000000  0.000000 -0.000001
                                 0.000002 -0.000004  0.000010 -0.000023  0.000050 -0.000103  0.000194 -0.000305  0.000323  0.000084
                                -0.008999  0.018550  0.011566 -0.007354 -0.051370 -0.027780  0.046446 -0.004238 -0.026312  0.001804
                                 0.005034  0.000000 -0.000000  0.000000 -0.000000  0.000000 -0.000000  0.000000 -0.000000  0.000001
                                -0.000002  0.000005 -0.000012  0.000034 -0.000103  0.000496 -0.003881  0.000848  0.009747  0.016873
                                -0.029693 -0.072163 -0.024347 -0.036276  0.059468 -0.011722 -0.025689 -0.052539 -0.000000 -0.000000
                                 0.000000  0.000000 -0.000000 -0.000000  0.000000  0.000000 -0.000001 -0.000000  0.000004  0.000000
                                -0.000011 -0.000000  0.000023  0.000000 -0.000026 -0.000000  0.000036  0.000000 -0.001511 -0.000000
                                 0.002475  0.000000  0.010296 -0.000000  0.023215  0.000000 -0.001195 -0.000000 -0.022989  0.000000
                                 0.018393 -0.000000 -0.000813  0.000000  0.000000 -0.000000 -0.000001  0.000000  0.000003 -0.000000
                                -0.000010 -0.000000  0.000023  0.000000 -0.000066  0.000000  0.000390 -0.000000  0.000249 -0.000000
                                 0.002747  0.000000  0.004155  0.000000 -0.008557 -0.000000  0.001784 -0.000000  0.002021  0.000000
                                 0.000008 -0.000000  0.000000 -0.000038 -0.000000 -0.000000  0.000330 -0.000000  0.000000  0.000986
                                -0.000000  0.000000 -0.004218  0.000000 -0.000000  0.003101 -0.000000 -0.000000  0.000000 -0.000000
                                 0.000018 -0.000000  0.000000 -0.000119  0.000000 -0.000000  0.000750 -0.000000  0.000004 -0.000026
                                 0.000165 -0.001427  0.054235 -0.101032  0.188982  0.546730  0.407434  0.044678 -0.053120 -0.088094
                                -0.000159 -0.001076 -0.004943 -0.007738 -0.041720 -0.016280 -0.000330  0.000040 -0.000533 -0.000000
                                 0.002427 -0.000000  0.009681 -0.000000 -0.000278 -0.000000  0.000060 -0.000000 -0.002493  0.000000

   4.1   2    -0.5091   -6.3615 -0.000000  0.000000 -0.000000  0.000000 -0.000000  0.000000 -0.000000  0.000001 -0.000002  0.000005
                                -0.000012  0.000029 -0.000069  0.000154 -0.000331  0.000681 -0.001283  0.002019 -0.002146 -0.000037
                                 0.054548 -0.113748 -0.078651  0.058004  0.331333  0.264181 -0.087460 -0.480731 -0.268931  0.111524
                                -0.061899 -0.000000  0.000000 -0.000000  0.000000 -0.000000  0.000000 -0.000000  0.000000 -0.000000
                                 0.000000 -0.000000  0.000001 -0.000002  0.000009 -0.000098  0.001023  0.000539 -0.004595 -0.006301
                                 0.012619  0.028576  0.026465 -0.001447  0.419161 -0.021221  0.079923 -0.409438  0.000000 -0.000000
                                -0.000000  0.000000  0.000000 -0.000000 -0.000001  0.000000  0.000003 -0.000000 -0.000010  0.000000
                                 0.000025 -0.000000 -0.000046  0.000000 -0.000041 -0.000000  0.000178  0.000000  0.008527  0.000000
                                -0.014550 -0.000000 -0.068721 -0.000000 -0.133398 -0.000000 -0.087924 -0.000000  0.069959 -0.000000
                                -0.038856  0.000000  0.000470 -0.000000 -0.000000 -0.000000  0.000001  0.000000 -0.000003 -0.000000
                                 0.000010  0.000000 -0.000019 -0.000000  0.000061  0.000000 -0.000545 -0.000000 -0.000723  0.000000
                                -0.003207 -0.000000 -0.011410  0.000000  0.003818  0.000000  0.012708  0.000000 -0.005181 -0.000000
                                -0.000006 -0.000000  0.000000  0.000025  0.000000 -0.000000 -0.000329  0.000000 -0.000000 -0.004174
                                 0.000000  0.000000  0.006040 -0.000000 -0.000000 -0.002306  0.000000  0.000000  0.000000  0.000000
                                -0.000034 -0.000000 -0.000000  0.000296  0.000000  0.000000 -0.001771 -0.000000  0.000001 -0.000004
                                 0.000027 -0.000233  0.008964 -0.015980  0.033680  0.104169  0.103695 -0.046456 -0.009566 -0.014798
                                 0.006246  0.053403  0.173993  0.282364  0.239243  0.064682  0.003383 -0.001647 -0.002987 -0.000000
                                -0.012067 -0.000000 -0.016582 -0.000000 -0.000309 -0.000000  0.002419  0.000000  0.004429  0.000000

   5.1   0    -0.2523   -5.0350  0.000000 -0.000000  0.000000 -0.000000  0.000000 -0.000000  0.000000 -0.000001  0.000001 -0.000004
                                 0.000009 -0.000021  0.000050 -0.000112  0.000241 -0.000495  0.000932 -0.001465  0.001556 -0.000260
                                -0.035923  0.074757  0.056932 -0.045752 -0.211354 -0.169416 -0.058942  0.306448  0.433913  0.061923
                                 0.119119  0.000000 -0.000000  0.000000 -0.000000  0.000000 -0.000000  0.000000 -0.000000  0.000001
                                -0.000002  0.000005 -0.000014  0.000035 -0.000087  0.000045  0.001162  0.005554 -0.017745 -0.017340
                                 0.032974  0.129790 -0.025970  0.129095 -0.099443 -0.104268 -0.273308  0.039653  0.000000  0.000000
                                -0.000000 -0.000000  0.000000  0.000000 -0.000002 -0.000000  0.000006  0.000000 -0.000017 -0.000000
                                 0.000044  0.000000 -0.000089 -0.000000  0.000040  0.000000  0.000022 -0.000000  0.009321  0.000000
                                -0.015987 -0.000000 -0.070003  0.000000 -0.139982  0.000000 -0.143130 -0.000000  0.018132 -0.000000
                                -0.070291  0.000000  0.019876 -0.000000 -0.000000 -0.000000  0.000001  0.000000 -0.000005 -0.000000
                                 0.000016  0.000000 -0.000037 -0.000000  0.000103  0.000000 -0.000584 -0.000000 -0.000354 -0.000000
                                -0.003863 -0.000000 -0.007313 -0.000000  0.010515 -0.000000  0.000048  0.000000  0.001179  0.000000
                                -0.000004 -0.000000  0.000000  0.000014  0.000000 -0.000000 -0.000196 -0.000000 -0.000000 -0.001035
                                 0.000000  0.000000  0.003489  0.000000  0.000000 -0.002495  0.000000 -0.000000 -0.000000  0.000000
                                -0.000023 -0.000000 -0.000000  0.000178  0.000000  0.000000 -0.001272 -0.000000  0.000000 -0.000000
                                 0.000002 -0.000018  0.000913 -0.002307  0.003923  0.016343  0.018954  0.047822 -0.000637 -0.001477
                                 0.004815  0.041160  0.135102  0.218302  0.197871  0.056167  0.002721 -0.001268 -0.001576 -0.000000
                                -0.006409 -0.000000 -0.010305 -0.000000 -0.000152 -0.000000  0.001741  0.000000  0.003693 -0.000000

   6.1   0    -0.1647   -5.1807 -0.000000  0.000000 -0.000000  0.000000 -0.000000  0.000000 -0.000000  0.000000 -0.000000  0.000000
                                -0.000000  0.000000 -0.000000  0.000000 -0.000000  0.000000 -0.000000  0.000000 -0.000000 -0.000000
                                 0.000000 -0.000001 -0.000001  0.000000  0.000002  0.000001  0.000001 -0.000007  0.000005 -0.000012
                                 0.000010  0.000000  0.000000 -0.000000  0.000000 -0.000000  0.000000 -0.000000  0.000000 -0.000000
                                 0.000000 -0.000000  0.000000 -0.000000  0.000000 -0.000000  0.000000  0.000000 -0.000000 -0.000001
                                 0.000001  0.000003 -0.000000  0.000003  0.000042 -0.000003 -0.000008 -0.000048 -0.000000  0.000000
                                 0.000000 -0.000000 -0.000000  0.000000  0.000000 -0.000001 -0.000000  0.000002  0.000000 -0.000006
                                -0.000000  0.000012  0.000000  0.000004  0.000000 -0.000401 -0.000000  0.001053 -0.000000  0.024003
                                 0.000001 -0.041067  0.000003 -0.204485  0.000006 -0.376229  0.000007 -0.414921  0.000006 -0.125809
                                -0.000003 -0.058346  0.000005 -0.098821  0.000000 -0.000000 -0.000000  0.000001  0.000000 -0.000004
                                -0.000000  0.000014  0.000000 -0.000048 -0.000000  0.000097 -0.000000  0.000235 -0.000000  0.001465
                                -0.000000  0.002373 -0.000000  0.016980 -0.000001  0.038860  0.000000  0.016136 -0.000000  0.016884
                                -0.000000  0.000000  0.000018  0.000000 -0.000000 -0.000087 -0.000000 -0.000000  0.000572 -0.000000
                                 0.000000  0.009114 -0.000000  0.000000  0.007251 -0.000000  0.000000  0.000409 -0.000005 -0.000000
                                -0.000000  0.000034  0.000000  0.000000  0.000026 -0.000000 -0.000000 -0.000000  0.000000 -0.000000
                                 0.000000 -0.000000  0.000000 -0.000000  0.000000  0.000000  0.000000 -0.000001  0.000000 -0.000000
                                 0.000000  0.000000  0.000001  0.000001  0.000001  0.000001  0.000000 -0.000000  0.000000 -0.000524
                                 0.000000 -0.002392  0.000000 -0.002968  0.000000 -0.000046 -0.000000  0.000190 -0.000000  0.001081

                                   1 2px     1 2px     1 2px     1 2px     1 2px     1 2px     1 2px     1 2px     1 2px     1 2px
                                   1 2px     1 2px     1 2px     1 2px     1 2px     1 2px     1 2px     1 2px     1 2px     1 2px
                                   1 2px     1 2px     1 2px     1 2px     1 2px     1 2px     1 2px     1 3d1+    1 3d1+    1 3d1+
                                   1 3d1+    1 3d1+    1 3d1+    1 3d1+    1 3d1+    1 3d1+    1 3d1+    1 3d1+    1 3d1+    1 3d1+
                                   1 3d1+    1 3d1+    1 3d1+    1 3d1+    1 3d1+    1 4f1+    1 4f3+    1 4f1+    1 4f3+    1 4f1+
                                   1 4f3+    1 4f1+    1 4f3+    1 4f1+    1 4f3+    1 4f1+    1 4f3+    1 4f1+    1 4f3+    1 4f1+
                                   1 4f3+    1 4f1+    1 4f3+    1 4f1+    1 4f3+    1 4f1+    1 4f3+    1 4f1+    1 4f3+    1 4f1+
                                   1 4f3+    1 5g1+    1 5g3+    1 5g1+    1 5g3+    1 5g1+    1 5g3+    1 5g1+    1 5g3+    1 5g1+
                                   1 5g3+    1 5g1+    1 5g3+    1 6h1+    1 6h3+    1 6h5+    1 6h1+    1 6h3+    1 6h5+    1 6h1+
                                   1 6h3+    1 6h5+    2 2px     2 2px     2 2px     2 2px     2 2px     2 2px     2 2px     2 2px
                                   2 3d1+    2 3d1+    2 3d1+    2 3d1+    2 4f1+    2 4f3+    2 4f1+    2 4f3+

   1.2   2    -1.6877   -9.7011 -0.000000  0.000000 -0.000000  0.000000 -0.000000  0.000000 -0.000000  0.000001 -0.000002  0.000006
                                -0.000019  0.000051 -0.000140  0.000451 -0.002569  0.021401  0.002600 -0.071223 -0.106500  0.178698
                                 0.535208 -0.016299  0.404161  0.052964  0.061567 -0.006213 -0.050792 -0.000000  0.000000 -0.000000
                                 0.000001 -0.000002  0.000006 -0.000016  0.000037 -0.000084  0.000165  0.000318 -0.000460 -0.005441
                                -0.012396 -0.002456  0.000867 -0.001064  0.000125 -0.000000 -0.000000  0.000000  0.000000 -0.000001
                                -0.000000  0.000005  0.000000 -0.000009 -0.000000  0.000028  0.000000 -0.000246 -0.000000 -0.000094
                                 0.000000 -0.003509 -0.000000 -0.002602 -0.000000  0.000335  0.000000 -0.000527 -0.000000  0.000027
                                 0.000000 -0.000003 -0.000000  0.000016  0.000000 -0.000087  0.000000 -0.000116 -0.000000 -0.000103
                                 0.000000 -0.000089 -0.000000  0.000002 -0.000000 -0.000000 -0.000077 -0.000000  0.000000  0.000146
                                 0.000000  0.000000  0.000085  0.000739  0.002208  0.003675  0.002690  0.000682  0.000010 -0.000023
                                -0.000149 -0.000945 -0.000831 -0.000018  0.000096 -0.000000  0.000526  0.000000

   2.2   2    -0.5904   -7.0457  0.000000 -0.000000  0.000000 -0.000000  0.000000 -0.000000  0.000000 -0.000000  0.000000 -0.000000
                                 0.000001 -0.000002  0.000004 -0.000015  0.000112 -0.001051 -0.000336  0.004136  0.005823 -0.010935
                                -0.031994 -0.000351 -0.031980 -0.050480  0.033352  0.037530  0.044774 -0.000000  0.000000 -0.000000
                                 0.000001 -0.000004  0.000012 -0.000032  0.000067 -0.000069  0.000083 -0.004571  0.007716  0.032835
                                 0.065917  0.073684 -0.039222  0.071222 -0.030715 -0.000000 -0.000000  0.000001  0.000000 -0.000006
                                 0.000000  0.000022 -0.000000 -0.000073  0.000000  0.000156 -0.000000  0.000121  0.000000  0.001864
                                 0.000000  0.001632  0.000000  0.016494  0.000000  0.006554 -0.000000  0.004473  0.000000 -0.001760
                                -0.000000  0.000008  0.000000 -0.000034 -0.000000  0.000435  0.000000  0.006338 -0.000000 -0.005308
                                -0.000000  0.003521  0.000000  0.000073 -0.000000  0.000000 -0.000612  0.000000 -0.000000  0.002293
                                -0.000000  0.000000  0.009816  0.084512  0.277194  0.433544  0.357852  0.046447  0.005275 -0.002585
                                -0.002678 -0.011456 -0.024886 -0.000276  0.002500  0.000000  0.007308 -0.000000

   3.2   0    -0.1694   -4.0494 -0.000000  0.000000 -0.000000  0.000000 -0.000000  0.000000 -0.000000  0.000000 -0.000000  0.000000
                                -0.000001  0.000003 -0.000007  0.000008  0.000224 -0.002857 -0.003399  0.017610  0.020908 -0.039387
                                -0.142053  0.031754 -0.153307 -0.017539  0.102841  0.454173  0.308971  0.000000 -0.000000  0.000000
                                -0.000000  0.000001 -0.000003  0.000005  0.000007 -0.000250  0.000649  0.014398 -0.024624 -0.123365
                                -0.220482 -0.255449 -0.174366  0.040559 -0.141026 -0.000000  0.000000  0.000000 -0.000000 -0.000002
                                 0.000000  0.000006 -0.000000 -0.000028  0.000000  0.000047 -0.000000  0.000354  0.000000  0.001176
                                -0.000000  0.003775  0.000000  0.014183  0.000000  0.018336 -0.000000  0.003873 -0.000000  0.006977
                                -0.000000  0.000016  0.000000 -0.000079 -0.000000  0.000517 -0.000000  0.008222  0.000000  0.005814
                                 0.000000  0.000313  0.000000  0.000002 -0.000000 -0.000000 -0.000002  0.000000 -0.000000  0.000122
                                -0.000000 -0.000000  0.000620  0.005319  0.017995  0.027596  0.027281  0.020990  0.000417 -0.000162
                                 0.000295  0.002422 -0.000936  0.000038 -0.000091  0.000000 -0.000918 -0.000000

   4.2   0    -0.1086   -4.5604  0.000000 -0.000000  0.000000 -0.000000  0.000000 -0.000000  0.000000 -0.000000  0.000001 -0.000004
                                 0.000010 -0.000028  0.000075 -0.000216  0.000785 -0.005225  0.005374  0.002742  0.014074 -0.026532
                                -0.032256 -0.049678 -0.022563 -4.823911 -0.013156  0.323053  5.266883 -0.000000  0.000000 -0.000000
                                 0.000000 -0.000000  0.000001  0.000001 -0.000030  0.000387 -0.000982 -0.019738  0.033950  0.171226
                                 0.313360  0.329656 -0.060096  0.241641 -0.093312  0.000000  0.000000 -0.000002 -0.000000  0.000008
                                 0.000000 -0.000028 -0.000000  0.000093  0.000000 -0.000193 -0.000000 -0.000323  0.000000 -0.002625
                                -0.000000 -0.003167  0.000000 -0.026781  0.000000 -0.075163 -0.000000 -0.046002 -0.000000 -0.064006
                                -0.000000 -0.000023 -0.000000  0.000110  0.000000 -0.000762  0.000000 -0.012511 -0.000000 -0.011139
                                -0.000000 -0.002130  0.000000 -0.000003  0.000000  0.000000  0.000034 -0.000000 -0.000000 -0.000307
                                 0.000000 -0.000000 -0.002776 -0.023893 -0.080376 -0.123811 -0.119643 -0.059284 -0.001767  0.000727
                                -0.001160 -0.006575 -0.003177 -0.000102 -0.000186 -0.000000  0.000849  0.000000

                                   1 2py     1 2py     1 2py     1 2py     1 2py     1 2py     1 2py     1 2py     1 2py     1 2py
                                   1 2py     1 2py     1 2py     1 2py     1 2py     1 2py     1 2py     1 2py     1 2py     1 2py
                                   1 2py     1 2py     1 2py     1 2py     1 2py     1 2py     1 2py     1 3d1-    1 3d1-    1 3d1-
                                   1 3d1-    1 3d1-    1 3d1-    1 3d1-    1 3d1-    1 3d1-    1 3d1-    1 3d1-    1 3d1-    1 3d1-
                                   1 3d1-    1 3d1-    1 3d1-    1 3d1-    1 3d1-    1 4f1-    1 4f3-    1 4f1-    1 4f3-    1 4f1-
                                   1 4f3-    1 4f1-    1 4f3-    1 4f1-    1 4f3-    1 4f1-    1 4f3-    1 4f1-    1 4f3-    1 4f1-
                                   1 4f3-    1 4f1-    1 4f3-    1 4f1-    1 4f3-    1 4f1-    1 4f3-    1 4f1-    1 4f3-    1 4f1-
                                   1 4f3-    1 5g1-    1 5g3-    1 5g1-    1 5g3-    1 5g1-    1 5g3-    1 5g1-    1 5g3-    1 5g1-
                                   1 5g3-    1 5g1-    1 5g3-    1 6h1-    1 6h3-    1 6h5-    1 6h1-    1 6h3-    1 6h5-    1 6h1-
                                   1 6h3-    1 6h5-    2 2py     2 2py     2 2py     2 2py     2 2py     2 2py     2 2py     2 2py
                                   2 3d1-    2 3d1-    2 3d1-    2 3d1-    2 4f1-    2 4f3-    2 4f1-    2 4f3-

   1.3   2    -1.6877   -9.7011 -0.000000  0.000000 -0.000000  0.000000 -0.000000  0.000000 -0.000000  0.000001 -0.000002  0.000006
                                -0.000019  0.000051 -0.000140  0.000451 -0.002569  0.021401  0.002600 -0.071223 -0.106500  0.178698
                                 0.535208 -0.016299  0.404161  0.052964  0.061567 -0.006213 -0.050792 -0.000000  0.000000 -0.000000
                                 0.000001 -0.000002  0.000006 -0.000016  0.000037 -0.000084  0.000165  0.000318 -0.000460 -0.005441
                                -0.012396 -0.002456  0.000867 -0.001064  0.000125 -0.000000 -0.000000  0.000000  0.000000 -0.000001
                                -0.000000  0.000005  0.000000 -0.000009 -0.000000  0.000028  0.000000 -0.000246 -0.000000 -0.000094
                                 0.000000 -0.003509 -0.000000 -0.002602 -0.000000  0.000335  0.000000 -0.000527 -0.000000  0.000027
                                 0.000000 -0.000003 -0.000000  0.000016  0.000000 -0.000087  0.000000 -0.000116 -0.000000 -0.000103
                                 0.000000 -0.000089 -0.000000  0.000002 -0.000000 -0.000000 -0.000077 -0.000000  0.000000  0.000146
                                 0.000000  0.000000  0.000085  0.000739  0.002208  0.003675  0.002690  0.000682  0.000010 -0.000023
                                -0.000149 -0.000945 -0.000831 -0.000018  0.000096 -0.000000  0.000526  0.000000

   2.3   2    -0.5904   -7.0457  0.000000 -0.000000  0.000000 -0.000000  0.000000 -0.000000  0.000000 -0.000000  0.000000 -0.000000
                                 0.000001 -0.000002  0.000004 -0.000015  0.000112 -0.001051 -0.000336  0.004136  0.005823 -0.010935
                                -0.031994 -0.000351 -0.031980 -0.050480  0.033352  0.037530  0.044774 -0.000000  0.000000 -0.000000
                                 0.000001 -0.000004  0.000012 -0.000032  0.000067 -0.000069  0.000083 -0.004571  0.007716  0.032835
                                 0.065917  0.073684 -0.039222  0.071222 -0.030715 -0.000000 -0.000000  0.000001  0.000000 -0.000006
                                 0.000000  0.000022 -0.000000 -0.000073  0.000000  0.000156 -0.000000  0.000121  0.000000  0.001864
                                 0.000000  0.001632  0.000000  0.016494  0.000000  0.006554 -0.000000  0.004473 -0.000000 -0.001760
                                 0.000000  0.000008  0.000000 -0.000034 -0.000000  0.000435  0.000000  0.006338 -0.000000 -0.005308
                                -0.000000  0.003521  0.000000  0.000073 -0.000000  0.000000 -0.000612  0.000000 -0.000000  0.002293
                                -0.000000  0.000000  0.009816  0.084512  0.277194  0.433544  0.357852  0.046447  0.005275 -0.002585
                                -0.002678 -0.011456 -0.024886 -0.000276  0.002500  0.000000  0.007308 -0.000000

   3.3   0    -0.1694   -4.0494 -0.000000  0.000000 -0.000000  0.000000 -0.000000  0.000000 -0.000000  0.000000 -0.000000  0.000000
                                -0.000001  0.000003 -0.000007  0.000008  0.000224 -0.002857 -0.003399  0.017610  0.020908 -0.039387
                                -0.142053  0.031754 -0.153307 -0.017539  0.102841  0.454173  0.308971  0.000000 -0.000000  0.000000
                                -0.000000  0.000001 -0.000003  0.000005  0.000007 -0.000250  0.000649  0.014398 -0.024624 -0.123365
                                -0.220482 -0.255449 -0.174366  0.040559 -0.141026 -0.000000  0.000000  0.000000 -0.000000 -0.000002
                                 0.000000  0.000006 -0.000000 -0.000028  0.000000  0.000047 -0.000000  0.000354  0.000000  0.001176
                                -0.000000  0.003775  0.000000  0.014183  0.000000  0.018336 -0.000000  0.003873 -0.000000  0.006977
                                -0.000000  0.000016  0.000000 -0.000079 -0.000000  0.000517 -0.000000  0.008222  0.000000  0.005814
                                 0.000000  0.000313  0.000000  0.000002 -0.000000 -0.000000 -0.000002  0.000000 -0.000000  0.000122
                                -0.000000 -0.000000  0.000620  0.005319  0.017995  0.027596  0.027281  0.020990  0.000417 -0.000162
                                 0.000295  0.002422 -0.000936  0.000038 -0.000091  0.000000 -0.000918 -0.000000

   4.3   0    -0.1086   -4.5604  0.000000 -0.000000  0.000000 -0.000000  0.000000 -0.000000  0.000000 -0.000000  0.000001 -0.000004
                                 0.000010 -0.000028  0.000075 -0.000216  0.000785 -0.005225  0.005374  0.002742  0.014074 -0.026532
                                -0.032257 -0.049678 -0.022563 -4.823909 -0.013156  0.323053  5.266881 -0.000000  0.000000 -0.000000
                                 0.000000 -0.000000  0.000001  0.000001 -0.000030  0.000387 -0.000982 -0.019738  0.033950  0.171226
                                 0.313360  0.329656 -0.060095  0.241641 -0.093312  0.000000  0.000000 -0.000002 -0.000000  0.000008
                                 0.000000 -0.000028 -0.000000  0.000093  0.000000 -0.000193 -0.000000 -0.000323  0.000000 -0.002625
                                -0.000000 -0.003167  0.000000 -0.026781  0.000000 -0.075163 -0.000000 -0.046002 -0.000000 -0.064006
                                -0.000000 -0.000023 -0.000000  0.000110  0.000000 -0.000762  0.000000 -0.012511 -0.000000 -0.011139
                                -0.000000 -0.002130  0.000000 -0.000003  0.000000  0.000000  0.000034 -0.000000 -0.000000 -0.000307
                                 0.000000 -0.000000 -0.002776 -0.023893 -0.080376 -0.123811 -0.119643 -0.059284 -0.001767  0.000727
                                -0.001160 -0.006575 -0.003177 -0.000102 -0.000186 -0.000000  0.000849  0.000000

                                   1 3d2-    1 3d2-    1 3d2-    1 3d2-    1 3d2-    1 3d2-    1 3d2-    1 3d2-    1 3d2-    1 3d2-
                                   1 3d2-    1 3d2-    1 3d2-    1 3d2-    1 3d2-    1 3d2-    1 3d2-    1 3d2-    1 4f2-    1 4f2-
                                   1 4f2-    1 4f2-    1 4f2-    1 4f2-    1 4f2-    1 4f2-    1 4f2-    1 4f2-    1 4f2-    1 4f2-
                                   1 4f2-    1 5g2-    1 5g4-    1 5g2-    1 5g4-    1 5g2-    1 5g4-    1 5g2-    1 5g4-    1 5g2-
                                   1 5g4-    1 5g2-    1 5g4-    1 6h4-    1 6h2-    1 6h4-    1 6h2-    1 6h4-    1 6h2-    2 3d2-
                                   2 3d2-    2 3d2-    2 3d2-    2 4f2-    2 4f2-

   1.4   0    -0.1647   -5.1807  0.000000 -0.000000  0.000000 -0.000001  0.000002 -0.000006  0.000012  0.000004 -0.000401  0.001053
                                 0.024003 -0.041067 -0.204485 -0.376229 -0.414921 -0.125809 -0.058346 -0.098821 -0.000000  0.000001
                                -0.000004  0.000014 -0.000048  0.000097  0.000235  0.001465  0.002373  0.016980  0.038860  0.016136
                                 0.016884  0.000018  0.000000 -0.000087 -0.000000  0.000572 -0.000000  0.009114  0.000000  0.007251
                                 0.000000  0.000409  0.000000 -0.000000 -0.000005  0.000000  0.000034 -0.000000  0.000026 -0.000524
                                -0.002392 -0.002968 -0.000046  0.000190  0.001081

   2.4   0    -0.0444   -2.2125 -0.000000  0.000000 -0.000002  0.000008 -0.000027  0.000080 -0.000210  0.000496 -0.001173  0.002332
                                 0.006813 -0.011770 -0.099443 -0.129160 -0.378777  2.284622 -4.644724  3.455012 -0.000000  0.000003
                                -0.000011  0.000038 -0.000106  0.000253 -0.000488  0.001364 -0.002233  0.011652 -0.033771  0.063525
                                -0.303236  0.000008  0.000000 -0.000040 -0.000000  0.000268 -0.000000  0.004173  0.000000 -0.002103
                                -0.000000  0.004442 -0.000000 -0.000000  0.000002 -0.000000 -0.000025 -0.000000  0.000135 -0.000065
                                -0.000085 -0.000294 -0.000002  0.000174 -0.000309

 HOMO      4.1    -0.509147 =     -13.8546eV
 LUMO      5.1    -0.252292 =      -6.8652eV
 LUMO-HOMO         0.256855 =       6.9894eV


 **********************************************************************************************************************************
 DATASETS  * FILE   NREC   LENGTH (MB)   RECORD NAMES
              1      19       22.47       500      610      700      900      950      970     1000      129      960     1100
                                          VAR    BASINP    GEOM    SYMINP    ZMAT    AOBASIS   BASIS     P2S    ABASIS      S
                                         1400     1410     1420     1200     1210     1080     1600     1650     1700
                                           T        V       ECP      H0       H01     AOSYM     SMH    MOLCAS    OPER

              2       4        4.02       700     1000      520     2202
                                         GEOM     BASIS   MCVARS     RHF

 PROGRAMS   *        TOTAL       RHF       INT
 CPU TIMES  *       101.69     11.19     89.95
 REAL TIME  *       132.49 SEC
 DISK USED  *         9.22 GB
 SF USED    *         0.24 MB
 GA USED    *         0.00 MB       (max)       0.00 MB       (current)
 **********************************************************************************************************************************
   -->
   <time start="09:46:25" end="09:48:37" cpu="101.69" system="15.2" real="132.49"/>
   <storage units="megabyte" memory="8001.84" sf="0.24" df="339.45" eaf="8878.8" ga="0.0"/>
  </jobstep><!--
  --><jobstep command="RHF-SCF" commandset="SCFPRO">
   <!--


 PROGRAM * RHF-SCF (OPEN SHELL)       Authors: W. Meyer, H.-J. Werner


 NUMBER OF ELECTRONS:       9+    8-    SPACE SYMMETRY=1    SPIN SYMMETRY: Doublet
 CONVERGENCE THRESHOLDS:    1.00E-05 (Density)    1.00E-07 (Energy)
 MAX. NUMBER OF ITERATIONS:      200
 INTERPOLATION TYPE:            DIIS
 INTERPOLATION STEPS:              2 (START)      1 (STEP)
 LEVEL SHIFTS:                 -0.60 (CLOSED) -0.30 (OPEN)

 Number of closed-shell orbitals:    8 (   4   2   2   0 )
 Number of open-shell orbitals:      1 (   1   0   0   0 )


 Molecular orbitals read from record     2202.2  Type=RHF/CANONICAL (state 1.1)

 Molecular orbital dump at record        3202.2

 ITERATION    DDIFF          GRAD             ENERGY        2-EL.EN.            DIPOLE MOMENTS         DIIS   ORB.
    1      0.000D+00      0.000D+00       -55.65149589    106.399220    0.00000    0.00000   -3.17850    0    start
    2      0.000D+00      0.255D-02       -55.66345427    105.274963    0.00000    0.00000   -3.01187    1    diag,B
    3      0.153D-02      0.124D-02       -55.66736032    105.264093    0.00000    0.00000   -3.10051    2    diag,B
    4      0.712D-03      0.731D-03       -55.67241598    104.940980    0.00000    0.00000   -3.01445    3    diag,B
    5      0.917D-03      0.556D-03       -55.67736087    104.718395    0.00000    0.00000   -2.84863    4    diag,B
    6      0.105D-02      0.544D-03       -55.67775835    104.703518    0.00000    0.00000   -2.83111    5    diag,B
    7      0.801D-04      0.550D-03       -55.66844405    105.070694    0.00000    0.00000   -3.39097    6    diag,B
    8      0.127D-02      0.525D-03       -55.66821656    105.094147    0.00000    0.00000   -3.42547    7    orth
    9      0.183D-03      0.496D-03       -55.66673119    105.277187    0.00000    0.00000   -3.76048    8    diag,B
   10      0.232D-02      0.323D-03       -55.66625456    105.380383    0.00000    0.00000   -3.93303    9    diag,B
   11      0.863D-03      0.324D-03       -55.66598397    105.404884    0.00000    0.00000   -3.99613    9    diag,B
   12      0.617D-03      0.376D-03       -55.66686602    105.328168    0.00000    0.00000   -3.83596    9    diag,B
   13      0.874D-03      0.209D-03       -55.66713370    105.260371    0.00000    0.00000   -3.74816    9    diag,B
   14      0.143D-02      0.325D-03       -55.66740892    105.214103    0.00000    0.00000   -3.68473    9    diag,B
   15      0.204D-03      0.367D-03       -55.66688549    105.341263    0.00000    0.00000   -3.88015    9    diag,B
   16      0.535D-03      0.197D-03       -55.66688780    105.350557    0.00000    0.00000   -3.89645    9    diag,B
   17      0.662D-03      0.156D-03       -55.66687194    105.351020    0.00000    0.00000   -3.90126    9    diag,B
   18      0.996D-03      0.139D-03       -55.66682260    105.361128    0.00000    0.00000   -3.91466    9    orth
   19      0.546D-03      0.112D-03       -55.66677990    105.370723    0.00000    0.00000   -3.92749    9    diag,B
   20      0.117D-03      0.978D-04       -55.66650209    105.412124    0.00000    0.00000   -4.00984    9    diag,B
   21      0.101D-02      0.788D-04       -55.66669068    105.394778    0.00000    0.00000   -3.95508    9    diag,B
   22      0.375D-03      0.436D-04       -55.66694463    105.350789    0.00000    0.00000   -3.88299    9    diag,B
   23      0.664D-03      0.549D-04       -55.66656192    105.419519    0.00000    0.00000   -4.01032    9    diag,B
   24      0.429D-03      0.497D-04       -55.66594309    105.427108    0.00000    0.00000   -4.08240    9    diag,B
   25      0.462D-03      0.197D-03       -55.66681161    105.366536    0.00000    0.00000   -3.93207    9    diag,B
   26      0.814D-03      0.845D-04       -55.66701277    105.326271    0.00000    0.00000   -3.86844    9    diag,B
   27      0.427D-03      0.117D-03       -55.66693611    105.338979    0.00000    0.00000   -3.89055    9    diag,B
   28      0.169D-03      0.115D-03       -55.66689993    105.345529    0.00000    0.00000   -3.90175    9    orth
   29      0.109D-03      0.111D-03       -55.66694101    105.337206    0.00000    0.00000   -3.88841    9    diag,B
   30      0.157D-03      0.114D-03       -55.66687928    105.351454    0.00000    0.00000   -3.91027    9    diag,B
   31      0.292D-03      0.109D-03       -55.66686373    105.356828    0.00000    0.00000   -3.91849    9    diag,B
   32      0.852D-04      0.105D-03       -55.66693084    105.345252    0.00000    0.00000   -3.89766    9    diag,B
   33      0.151D-03      0.108D-03       -55.66688462    105.351481    0.00000    0.00000   -3.91118    9    diag,B
   34      0.253D-03      0.102D-03       -55.66685782    105.357484    0.00000    0.00000   -3.91942    9    diag,B
   35      0.352D-03      0.103D-03       -55.66694289    105.343039    0.00000    0.00000   -3.89410    9    diag,B
   36      0.206D-03      0.108D-03       -55.66687148    105.353556    0.00000    0.00000   -3.91280    9    diag,B
   37      0.151D-03      0.104D-03       -55.66696635    105.333596    0.00000    0.00000   -3.88140    9    diag,B
   38      0.214D-03      0.112D-03       -55.66679494    105.369548    0.00000    0.00000   -3.94277    9    orth
   39      0.268D-03      0.104D-03       -55.66677514    105.375581    0.00000    0.00000   -3.95202    9    diag,B
   40      0.220D-04      0.101D-03       -55.66675654    105.383768    0.00000    0.00000   -3.96331    9    diag,B
   41      0.636D-04      0.980D-04       -55.66675135    105.384188    0.00000    0.00000   -3.96419    9    diag,B
   42      0.238D-04      0.981D-04       -55.66682947    105.370808    0.00000    0.00000   -3.93992    9    diag,B
   43      0.603D-03      0.937D-04       -55.66681201    105.373813    0.00000    0.00000   -3.94501    9    diag,B
   44      0.542D-03      0.975D-04       -55.66671428    105.390180    0.00000    0.00000   -3.97529    9    diag,B
   45      0.168D-03      0.956D-04       -55.66678593    105.377170    0.00000    0.00000   -3.95070    9    diag,B
   46      0.103D-03      0.951D-04       -55.66668503    105.397955    0.00000    0.00000   -3.99197    9    diag,B
   47      0.119D-03      0.931D-04       -55.66665103    105.401027    0.00000    0.00000   -3.99889    9    diag,B
   48      0.722D-04      0.919D-04       -55.66676909    105.383076    0.00000    0.00000   -3.96353    9    orth
   49      0.157D-03      0.946D-04       -55.66676569    105.383555    0.00000    0.00000   -3.96660    9    diag,B
   50      0.277D-03      0.926D-04       -55.66672602    105.390789    0.00000    0.00000   -3.97877    9    diag,B
   51      0.161D-03      0.940D-04       -55.66676799    105.385134    0.00000    0.00000   -3.96447    9    diag,B
   52      0.163D-03      0.935D-04       -55.66675212    105.386132    0.00000    0.00000   -3.96936    9    diag,B
   53      0.176D-03      0.957D-04       -55.66684478    105.366820    0.00000    0.00000   -3.93551    9    diag,B
   54      0.239D-03      0.978D-04       -55.66665584    105.404214    0.00000    0.00000   -4.00288    9    diag,B
   55      0.375D-03      0.967D-04       -55.66662148    105.410269    0.00000    0.00000   -4.01461    9    diag,B
   56      0.150D-03      0.935D-04       -55.66681865    105.373927    0.00000    0.00000   -3.94566    9    diag,B
   57      0.284D-03      0.964D-04       -55.66683835    105.368096    0.00000    0.00000   -3.93855    9    fixocc
   58      0.201D-03      0.903D-04       -55.66673696    105.388789    0.00000    0.00000   -3.97470    9    orth
   59      0.448D-03      0.947D-04       -55.66673351    105.389021    0.00000    0.00000   -3.97588    9    diag,B
   60      0.232D-04      0.944D-04       -55.66674877    105.386077    0.00000    0.00000   -3.96946    9    diag,B
   61      0.343D-04      0.943D-04       -55.66674322    105.387137    0.00000    0.00000   -3.97202    9    diag,B
   62      0.334D-04      0.939D-04       -55.66676168    105.383793    0.00000    0.00000   -3.96523    9    diag,B
   63      0.270D-04      0.942D-04       -55.66673458    105.388479    0.00000    0.00000   -3.97396    9    diag,B
   64      0.769D-04      0.941D-04       -55.66673995    105.387794    0.00000    0.00000   -3.97065    9    diag,B
   65      0.309D-04      0.932D-04       -55.66670992    105.391898    0.00000    0.00000   -3.97975    9    diag,B
