
 Primary working directories    : /global/cscratch1/sd/haihan
 Secondary working directories  : /global/cscratch1/sd/haihan
 Wavefunction directory         : /global/homes/h/haihan/Research/ECP/f_group_element_ecps/Zr/Molpro/molecule/ZrO/UC/wfu/
 Main file repository           : /global/cscratch1/sd/haihan/

 SHA1      : 19cd028119e0e09f93f0674bd8af7968d9b3eff6
 NAME      : 2015.1.36
 ARCHNAME  : linux/x86_64
 FC        : /opt/cray/pe/craype/2.5.14/bin/ftn
 BLASLIB   : -L/opt/intel/compilers_and_libraries_2018.1.163/linux/mkl/lib/intel64 -Wl,-_start-group -lmkl_intel_ilp64 -lmkl_intel_thread -lmkl_core -Wl,-_end-group -liomp5
 id        : lbl

 Nodes     nprocs
 nid01316    11
 Number of processes for MPI-2 version of Molpro:   nprocs(total)=   12   nprocs(compute)=   11   nprocs(helper)=    1

 Using customized tuning parameters: mindgm=7; mindgv=16; mindgc=1; mindgr=1; noblas=0; minvec=7
 default implementation of scratch files=sf  

 ***,Calculation for all-electron YH molecule, SCF and CCSD(T)
 memory,1,g
 gthresh,twoint=1.0E-15
 gthresh,throvl=1.0E-15
 
 set,dkroll=1,dkho=10,dkhp=4
 basis={
 Including file /global/u2/h/haihan/Research/ECP/f_group_element_ecps/Zr/Molpro/molecule/ZrO/UC/r_1.90/../generate/Zr-aug-cc-pwCVTZ.basis
 Including file /global/u2/h/haihan/Research/ECP/f_group_element_ecps/Zr/Molpro/molecule/ZrO/UC/r_1.90/../generate/O-aug-cc-pwCVTZ.basis
 }
 
 Zr_ccsd=-3596.607176
 O_ccsd= -75.03694110
 
                                                                                 !These are the wf cards parameters
 ne = 48
 symm = 1
 ss= 0
 
                                                                                 !There are irrep cards paramters
 A1=13
 B1=5
 B2=5
 A2=1
 
 
 geometry={
     2
     ZrO molecule
     Zr 0.0 0.0 0.0
     O 0.0 0.0 1.90
 }
 {rhf,nitord=20;
  maxit,200;
  wf,ne,symm,ss
  occ,A1,B1,B2,A2
  closed,A1,B1,B2,A2
  print,orbitals=2
 }
 scf=energy
 _CC_NORM_MAX=2.0
 {rccsd(t),shifts=0.5,shiftp=0.5,thrdis=1.0;diis,1,1,15,1;maxit,200;core,8,3,3,1}
 ccsd=energy
 bind=ccsd-Zr_ccsd-O_ccsd
 
 
 table,1.90,scf,ccsd,bind
 save
 type,csv
 

 Variables initialized (889), CPU time= 0.01 sec
 Commands  initialized (702), CPU time= 0.01 sec, 572 directives.
 Default parameters read. Elapsed time= 0.13 sec

 Checking input...
 Passed
1


                                         ***  PROGRAM SYSTEM MOLPRO  ***
                                       Copyright, TTI GmbH Stuttgart, 2015
                                    Version 2015.1 linked Dec 29 2018 15:55:43


 **********************************************************************************************************************************
 LABEL *   Calculation for all-electron YH molecule, SCF and CCSD(T)                     
  64 bit mpp version                                                                     DATE: 24-Sep-22          TIME: 18:38:31  
 **********************************************************************************************************************************

 SHA1:             19cd028119e0e09f93f0674bd8af7968d9b3eff6
 **********************************************************************************************************************************

 THRESHOLDS:

 ZERO    =  1.00D-12  ONEINT  =  1.00D-12  TWOINT  =  1.00D-15  PREFAC  =  1.00D-14  LOCALI  =  1.00D-09  EORDER  =  1.00D-04
 ENERGY  =  0.00D+00  ETEST   =  0.00D+00  EDENS   =  0.00D+00  THRDEDEF=  1.00D-06  GRADIENT=  1.00D-02  STEP    =  1.00D-03
 ORBITAL =  1.00D-05  CIVEC   =  1.00D-05  COEFF   =  1.00D-04  PRINTCI =  5.00D-02  PUNCHCI =  9.90D+01  OPTGRAD =  3.00D-04
 OPTENERG=  1.00D-06  OPTSTEP =  3.00D-04  THRGRAD =  1.00D-10  COMPRESS=  1.00D-11  VARMIN  =  1.00D-07  VARMAX  =  1.00D-03
 THRDOUB =  0.00D+00  THRDIV  =  1.00D-05  THRRED  =  1.00D-07  THRPSP  =  1.00D+00  THRDC   =  1.00D-10  THRCS   =  1.00D-10
 THRNRM  =  1.00D-08  THREQ   =  0.00D+00  THRDE   =  1.00D+00  THRREF  =  1.00D-05  SPARFAC =  1.00D+00  THRDLP  =  1.00D-07
 THRDIA  =  1.00D-10  THRDLS  =  1.00D-07  THRGPS  =  0.00D+00  THRKEX  =  0.00D+00  THRDIS  =  2.00D-01  THRVAR  =  1.00D-10
 THRLOC  =  1.00D-06  THRGAP  =  1.00D-06  THRLOCT = -1.00D+00  THRGAPT = -1.00D+00  THRORB  =  1.00D-06  THRMLTP =  0.00D+00
 THRCPQCI=  1.00D-10  KEXTA   =  0.00D+00  THRCOARS=  0.00D+00  SYMTOL  =  1.00D-06  GRADTOL =  1.00D-06  THROVL  =  1.00D-08
 THRORTH =  1.00D-08  GRID    =  1.00D-06  GRIDMAX =  1.00D-03  DTMAX   =  0.00D+00  THROCCDE=  1.00D-01  THROCCDE=  1.00D-01



 THRESHOLDS:

 ZERO    =  1.00D-12  ONEINT  =  1.00D-12  TWOINT  =  1.00D-15  PREFAC  =  1.00D-14  LOCALI  =  1.00D-09  EORDER  =  1.00D-04
 ENERGY  =  0.00D+00  ETEST   =  0.00D+00  EDENS   =  0.00D+00  THRDEDEF=  1.00D-06  GRADIENT=  1.00D-02  STEP    =  1.00D-03
 ORBITAL =  1.00D-05  CIVEC   =  1.00D-05  COEFF   =  1.00D-04  PRINTCI =  5.00D-02  PUNCHCI =  9.90D+01  OPTGRAD =  3.00D-04
 OPTENERG=  1.00D-06  OPTSTEP =  3.00D-04  THRGRAD =  1.00D-10  COMPRESS=  1.00D-11  VARMIN  =  1.00D-07  VARMAX  =  1.00D-03
 THRDOUB =  0.00D+00  THRDIV  =  1.00D-05  THRRED  =  1.00D-07  THRPSP  =  1.00D+00  THRDC   =  1.00D-10  THRCS   =  1.00D-10
 THRNRM  =  1.00D-08  THREQ   =  0.00D+00  THRDE   =  1.00D+00  THRREF  =  1.00D-05  SPARFAC =  1.00D+00  THRDLP  =  1.00D-07
 THRDIA  =  1.00D-10  THRDLS  =  1.00D-07  THRGPS  =  0.00D+00  THRKEX  =  0.00D+00  THRDIS  =  2.00D-01  THRVAR  =  1.00D-10
 THRLOC  =  1.00D-06  THRGAP  =  1.00D-06  THRLOCT = -1.00D+00  THRGAPT = -1.00D+00  THRORB  =  1.00D-06  THRMLTP =  0.00D+00
 THRCPQCI=  1.00D-10  KEXTA   =  0.00D+00  THRCOARS=  0.00D+00  SYMTOL  =  1.00D-06  GRADTOL =  1.00D-06  THROVL  =  1.00D-15
 THRORTH =  1.00D-08  GRID    =  1.00D-06  GRIDMAX =  1.00D-03  DTMAX   =  0.00D+00  THROCCDE=  1.00D-01  THROCCDE=  1.00D-01


 SETTING DKROLL         =         1.00000000                                  
 SETTING DKHO           =        10.00000000                                  
 SETTING DKHP           =         4.00000000                                  

 Variable memory set to 1000000000 words,  buffer space   230000 words

 SETTING BASIS          =    USERDEF
 SETTING ZR_CCSD        =     -3596.60717600                                  
 SETTING O_CCSD         =       -75.03694110                                  
 SETTING NE             =        48.00000000                                  
 SETTING SYMM           =         1.00000000                                  
 SETTING SS             =     0.00000000D+00                                  
 SETTING A1             =        13.00000000                                  
 SETTING B1             =         5.00000000                                  
 SETTING B2             =         5.00000000                                  
 SETTING A2             =         1.00000000                                  

Geometry recognized as XYZ



 Recomputing integrals since basis changed


 Using spherical harmonics



 PROGRAM * SEWARD (Integral evaluation for generally contracted gaussian basis sets)     Author: Roland Lindh, 1990

 Geometry written to block  1 of record 700


 Point group  C2v 



 ATOMIC COORDINATES

 NR  ATOM    CHARGE       X              Y              Z

   1  ZR     40.00    0.000000000    0.000000000    0.000000000
   2  O       8.00    0.000000000    0.000000000    3.590479637

 Bond lengths in Bohr (Angstrom)

 1-2  3.590479637
     ( 1.900000000)

 NUCLEAR CHARGE:                   48
 NUMBER OF PRIMITIVE AOS:         401
 NUMBER OF SYMMETRY AOS:          341
 NUMBER OF CONTRACTIONS:          341   ( 149A1  +  78B1  +  78B2  +  36A2  )
 NUMBER OF CORE ORBITALS:          19   (  10A1  +   4B1  +   4B2  +   1A2  )
 NUMBER OF VALENCE ORBITALS:       10   (   5A1  +   2B1  +   2B2  +   1A2  )


 NUCLEAR REPULSION ENERGY   89.12458289

 One-electron integrals computed with SEWARD

 10nd-order Douglas-Kroll-Hess method activated. McWeeny DKH parametrization is used.

 Computing Douglas-Kroll / X2C integrals

 AO integral compression algorithm  1   Integral accuracy      1.0D-15

     1919.156 MB (compressed) written to integral file ( 45.2%)

     Node minimum: 116.392 MB, node maximum: 335.282 MB


 NUMBER OF SORTED TWO-ELECTRON INTEGRALS:   39965826.     BUFFER LENGTH:  32768
 NUMBER OF SEGMENTS:   2  SEGMENT LENGTH:   31981512      RECORD LENGTH: 524288

 Memory used in sort:      32.54 MW

 SORT1 READ   530794036. AND WROTE    18861940. INTEGRALS IN     55 RECORDS. CPU TIME:     9.24 SEC, REAL TIME:    11.50 SEC
 SORT2 READ   206471423. AND WROTE   439765440. INTEGRALS IN   5258 RECORDS. CPU TIME:     0.53 SEC, REAL TIME:     4.15 SEC

 Node minimum:    39935592.  Node maximum:    40095769. integrals

 OPERATOR DM      FOR CENTER  0  COORDINATES:    0.000000    0.000000    0.000000

 EXTRA SYMMETRY OF AOS IN SYMMETRY 1:   1 1 1 1 1 1 1 1 1 1   1 1 1 1 1 1 1 1 1 1   1 1 1 1 1 1 1 1 1 1   1 1 1 1 1 1 1 1 1 1
                                        1 1 1 1 1 1 1 1 1 1   1 1 1 1 1 1 1 1 1 1   2 1 2 1 2 1 2 1 2 1   2 1 2 1 2 1 2 1 2 1
                                        2 1 2 1 2 1 2 1 2 1   2 1 2 1 2 1 2 1 2 1   2 1 2 1 2 1 2 1 3 2   1 3 2 1 3 2 1 1 1 1
                                        1 1 1 1 1 1 1 1 1 1   1 1 1 1 1 1 1 1 2 1   2 1 2 1 2 1 2 1 2
 EXTRA SYMMETRY OF AOS IN SYMMETRY 2:   1 1 1 1 1 1 1 1 1 1   1 1 1 1 1 1 1 1 1 1   1 1 1 1 1 1 1 1 1 1   1 1 1 1 1 1 1 1 1 1
                                        1 1 1 1 1 1 1 1 1 2   1 2 1 2 1 2 1 2 1 2   1 2 1 1 1 1 1 1 1 1   1 1 1 1 1 2 1 2
 EXTRA SYMMETRY OF AOS IN SYMMETRY 3:   1 1 1 1 1 1 1 1 1 1   1 1 1 1 1 1 1 1 1 1   1 1 1 1 1 1 1 1 1 1   1 1 1 1 1 1 1 1 1 1
                                        1 1 1 1 1 1 1 1 1 2   1 2 1 2 1 2 1 2 1 2   1 2 1 1 1 1 1 1 1 1   1 1 1 1 1 2 1 2
 EXTRA SYMMETRY OF AOS IN SYMMETRY 4:   1 1 1 1 1 1 1 1 1 1   1 1 1 1 1 1 1 1 1 1   1 1 1 1 1 2 1 2 1 2   1 1 1 1 1 1

 Eigenvalues of metric

         1 0.119E-07 0.861E-07 0.978E-07 0.115E-06 0.512E-06 0.103E-05 0.317E-05 0.749E-05
         2 0.122E-07 0.967E-07 0.117E-06 0.104E-05 0.809E-05 0.107E-04 0.360E-04 0.403E-04
         3 0.122E-07 0.967E-07 0.117E-06 0.104E-05 0.809E-05 0.107E-04 0.360E-04 0.403E-04
         4 0.978E-07 0.108E-04 0.404E-04 0.435E-03 0.213E-02 0.598E-02 0.165E-01 0.365E-01


 **********************************************************************************************************************************
 DATASETS  * FILE   NREC   LENGTH (MB)   RECORD NAMES
              1      22       22.36       500      610      700      900      950      970     1000      129      960     1700   
                                          VAR    BASINP    GEOM    SYMINP    ZMAT    AOBASIS   BASIS     P2S    ABASIS    OPER   
                                         1101     1401     1411     1412     1650     1100     1400     1410     1200     1210   
                                          SR      EKINR    POTR     PVPR    MOLCAS      S      EKIN      POT      H0       H01  
                                         1080     1600   
                                         AOSYM     SMH  

 PROGRAMS   *        TOTAL       INT
 CPU TIMES  *        66.03     65.79
 REAL TIME  *        73.83 SEC
 DISK USED  *         4.38 GB      
 GA USED    *         0.00 MB       (max)       0.00 MB       (current)
 **********************************************************************************************************************************


 PROGRAM * RHF-SCF (CLOSED SHELL)       Authors: W. Meyer, H.-J. Werner


 NUMBER OF ELECTRONS:      24+   24-    SPACE SYMMETRY=1    SPIN SYMMETRY: Singlet 
 CONVERGENCE THRESHOLDS:    1.00E-05 (Density)    1.00E-07 (Energy)
 MAX. NUMBER OF ITERATIONS:      200
 INTERPOLATION TYPE:            DIIS
 INTERPOLATION STEPS:              2 (START)      1 (STEP)
 LEVEL SHIFTS:                  0.00 (CLOSED)  0.00 (OPEN) 

 Number of closed-shell orbitals:   24 (  13   5   5   1 )


 Orbital guess generated from atomic densities. Full valence occupancy:   15   6   6   2

 Molecular orbital dump at record        2100.2

 ITERATION    DDIFF          GRAD             ENERGY        2-EL.EN.            DIPOLE MOMENTS         DIIS   ORB.
    1      0.000D+00      0.000D+00     -3670.61283929   2928.028978    0.00000    0.00000   -5.08692    0    start
    2      0.000D+00      0.131D-01     -3667.29912595   3038.193854    0.00000    0.00000   11.94582    1    diag
    3      0.243D+00      0.406D-01     -3671.18748684   2968.213693    0.00000    0.00000   -1.74976    2    diag
    4      0.209D+00      0.209D-02     -3671.19841908   2965.593844    0.00000    0.00000   -1.58843    3    diag
    5      0.551D-02      0.111D-02     -3671.20155474   2966.028316    0.00000    0.00000   -1.79581    4    diag
    6      0.251D-02      0.306D-03     -3671.20222405   2965.656405    0.00000    0.00000   -1.87954    5    diag
    7      0.178D-02      0.738D-04     -3671.20229052   2965.702522    0.00000    0.00000   -1.90293    6    diag
    8      0.704D-03      0.394D-04     -3671.20229943   2965.726283    0.00000    0.00000   -1.90528    7    diag
    9      0.271D-03      0.113D-04     -3671.20230058   2965.746796    0.00000    0.00000   -1.90439    8    diag
   10      0.135D-03      0.426D-05     -3671.20230092   2965.747364    0.00000    0.00000   -1.90528    9    orth
   11      0.872D-04      0.203D-05     -3671.20230100   2965.748965    0.00000    0.00000   -1.90561    9    diag
   12      0.514D-04      0.469D-06     -3671.20230100   2965.750387    0.00000    0.00000   -1.90572    9    diag
   13      0.984D-05      0.970D-07     -3671.20230100   2965.750311    0.00000    0.00000   -1.90576    0    orth

 Final occupancy:  13   5   5   1

 !RHF STATE 1.1 Energy              -3671.202301001394
 Nuclear energy                        89.12458289
 One-electron energy                -5243.20203915
 Two-electron energy                 1482.87515526
 Virial quotient                       -0.91313432
 !RHF STATE 1.1 Dipole moment           0.00000000     0.00000000    -1.90576074
 Dipole moment /Debye                   0.00000000     0.00000000    -4.84364337

 ELECTRON ORBITALS
 =================


   Orb  Occ    Energy  Couls-En    Coefficients

                                   1 1s      1 1s      1 1s      1 1s      1 1s      1 1s      1 1s      1 1s      1 1s      1 1s   
                                   1 1s      1 1s      1 1s      1 1s      1 1s      1 1s      1 1s      1 1s      1 1s      1 1s   
                                   1 1s      1 1s      1 1s      1 1s      1 1s      1 1s      1 1s      1 1s      1 1s      1 1s   
                                   1 1s      1 2pz     1 2pz     1 2pz     1 2pz     1 2pz     1 2pz     1 2pz     1 2pz     1 2pz  
                                   1 2pz     1 2pz     1 2pz     1 2pz     1 2pz     1 2pz     1 2pz     1 2pz     1 2pz     1 2pz  
                                   1 2pz     1 2pz     1 2pz     1 2pz     1 2pz     1 2pz     1 2pz     1 2pz     1 2pz     1 3d0  
                                   1 3d2+    1 3d0     1 3d2+    1 3d0     1 3d2+    1 3d0     1 3d2+    1 3d0     1 3d2+    1 3d0  
                                   1 3d2+    1 3d0     1 3d2+    1 3d0     1 3d2+    1 3d0     1 3d2+    1 3d0     1 3d2+    1 3d0  
                                   1 3d2+    1 3d0     1 3d2+    1 3d0     1 3d2+    1 3d0     1 3d2+    1 3d0     1 3d2+    1 3d0  
                                   1 3d2+    1 3d0     1 3d2+    1 3d0     1 3d2+    1 3d0     1 3d2+    1 3d0     1 3d2+    1 4f0  
                                   1 4f2+    1 4f0     1 4f2+    1 4f0     1 4f2+    1 4f0     1 4f2+    1 5g0     1 5g4+    1 5g2+ 
                                   1 5g0     1 5g4+    1 5g2+    1 5g0     1 5g4+    1 5g2+    2 1s      2 1s      2 1s      2 1s   
                                   2 1s      2 1s      2 1s      2 1s      2 1s      2 1s      2 1s      2 1s      2 1s      2 2pz  
                                   2 2pz     2 2pz     2 2pz     2 2pz     2 2pz     2 2pz     2 2pz     2 3d0     2 3d2+    2 3d0  
                                   2 3d2+    2 3d0     2 3d2+    2 3d0     2 3d2+    2 4f0     2 4f2+    2 4f0     2 4f2+ 

   1.1   2  -665.2120-1485.0598  0.000042  0.000111  0.000306  0.000707  0.001535  0.003175  0.006516  0.013482  0.028412  0.060272
                                 0.123434  0.225418  0.318988  0.279036 -0.004785  0.105661  0.006282  0.002710 -0.003374  0.004437
                                -0.004749  0.003861 -0.005141  0.003926 -0.000335  0.000142 -0.000088  0.000043 -0.000037  0.000007
                                -0.000001  0.000000  0.000000  0.000000  0.000000  0.000000  0.000000 -0.000000 -0.000000  0.000001
                                 0.000001  0.000001 -0.000012  0.000020 -0.000036  0.000087 -0.000152  0.000159 -0.000131  0.000257
                                -0.000323  0.000174 -0.000061  0.000060 -0.000049  0.000000 -0.000011  0.000000  0.000000 -0.000000
                                 0.000000 -0.000000 -0.000000 -0.000000  0.000000 -0.000000 -0.000000  0.000000  0.000000 -0.000002
                                -0.000000  0.000002  0.000000 -0.000001 -0.000000  0.000001  0.000000 -0.000007 -0.000000  0.000041
                                 0.000000 -0.000109 -0.000000  0.000308  0.000000 -0.000284 -0.000000  0.000055 -0.000000 -0.000011
                                 0.000000  0.000003 -0.000000 -0.000004  0.000000 -0.000001 -0.000000  0.000000  0.000000 -0.000000
                                -0.000000  0.000000 -0.000000 -0.000002 -0.000000 -0.000001 -0.000000  0.000000 -0.000000  0.000000
                                -0.000000 -0.000000  0.000000 -0.000001 -0.000000 -0.000000 -0.000000  0.000000 -0.000000  0.000000
                                -0.000000  0.000001  0.000003  0.000002 -0.000002  0.000007  0.000017 -0.000003 -0.000002  0.000000
                                 0.000000 -0.000000  0.000000 -0.000005 -0.000004 -0.000000 -0.000000  0.000000  0.000000 -0.000001
                                -0.000000  0.000001  0.000000  0.000000  0.000000  0.000000 -0.000000  0.000001  0.000000

   2.1   2   -94.9406 -300.4331 -0.000014 -0.000036 -0.000101 -0.000234 -0.000508 -0.001055 -0.002177 -0.004544 -0.009722 -0.021200
                                -0.045701 -0.092288 -0.158110 -0.186364  0.004623 -0.034336  0.361008  0.542759  0.231049  0.018508
                                 0.011055  0.001392 -0.004716  0.004230 -0.000621  0.000234 -0.000170  0.000084 -0.000072  0.000014
                                -0.000003  0.000000  0.000000  0.000000  0.000001  0.000002  0.000007  0.000023  0.000062  0.000137
                                 0.000227  0.000292  0.000206 -0.000002 -0.000018  0.000148 -0.000272  0.000291 -0.000238  0.000475
                                -0.000595  0.000323 -0.000112  0.000119 -0.000098  0.000001 -0.000021  0.000001  0.000000 -0.000000
                                 0.000000 -0.000000 -0.000000 -0.000001 -0.000000 -0.000005 -0.000000 -0.000022  0.000000 -0.000030
                                -0.000000  0.000015  0.000000 -0.000004 -0.000000  0.000001  0.000000 -0.000015  0.000000  0.000073
                                -0.000000 -0.000196  0.000000  0.000553 -0.000000 -0.000509  0.000000  0.000100 -0.000000 -0.000022
                                 0.000000  0.000007 -0.000000 -0.000008  0.000000 -0.000001 -0.000000  0.000000  0.000000  0.000003
                                 0.000000  0.000000 -0.000000 -0.000004  0.000000 -0.000001 -0.000000 -0.000001 -0.000000 -0.000000
                                -0.000000  0.000000  0.000000 -0.000001 -0.000000 -0.000000 -0.000000  0.000000 -0.000000  0.000000
                                -0.000000  0.000002  0.000005  0.000004 -0.000004  0.000015  0.000035 -0.000006 -0.000003  0.000000
                                 0.000000 -0.000001  0.000000 -0.000012 -0.000008 -0.000000 -0.000000 -0.000000  0.000000 -0.000001
                                -0.000000  0.000003  0.000000  0.000000 -0.000000  0.000000 -0.000000  0.000001  0.000000

   3.1   2   -84.4690 -286.2249  0.000000  0.000000  0.000000  0.000000  0.000000  0.000001  0.000002  0.000004  0.000008  0.000018
                                 0.000038  0.000077  0.000132  0.000157 -0.000004  0.000023 -0.000327 -0.000412 -0.000178 -0.000023
                                -0.000066  0.000064 -0.000172  0.000167 -0.000022  0.000025 -0.000014 -0.000006 -0.000046 -0.000002
                                 0.000001  0.000014  0.000054  0.000210  0.000776  0.002803  0.009566  0.029702  0.080895  0.181363
                                 0.307746  0.343380  0.167413  0.035824 -0.004755  0.086662 -0.113390  0.095125 -0.052684  0.062719
                                -0.061358  0.023334 -0.004710  0.001970 -0.001366  0.000128 -0.000063  0.000010 -0.000002  0.000000
                                -0.000000  0.000001  0.000000  0.000003  0.000000  0.000014  0.000000  0.000052  0.000000  0.000055
                                 0.000000 -0.000011 -0.000000  0.000003  0.000000  0.000008 -0.000000 -0.000033  0.000000  0.000210
                                -0.000000 -0.000535  0.000000  0.001371 -0.000000 -0.001200  0.000000  0.000202 -0.000000 -0.000029
                                -0.000000  0.000008  0.000000 -0.000013 -0.000000 -0.000003  0.000000  0.000001 -0.000000 -0.000007
                                -0.000000  0.000001 -0.000000 -0.000006 -0.000000 -0.000003  0.000000  0.000000 -0.000000  0.000000
                                -0.000000 -0.000000 -0.000000 -0.000002  0.000000  0.000000 -0.000000  0.000000 -0.000000  0.000000
                                -0.000000  0.000004  0.000011  0.000004 -0.000004  0.000014  0.000057 -0.000009 -0.000008  0.000000
                                 0.000001  0.000001  0.000003 -0.000013 -0.000011 -0.000000 -0.000000 -0.000000  0.000000 -0.000003
                                -0.000000  0.000003  0.000000 -0.000000 -0.000000 -0.000001  0.000000  0.000002  0.000000

   4.1   2   -20.5466  -63.6380  0.000000  0.000000  0.000000  0.000000  0.000000  0.000000  0.000000  0.000000 -0.000000  0.000000
                                -0.000000  0.000002 -0.000007  0.000046 -0.000148  0.000164 -0.000138  0.000258 -0.000896  0.002223
                                -0.004536  0.006679 -0.019833  0.018630 -0.004245  0.005181 -0.001889 -0.012944  0.002735 -0.001203
                                 0.000268 -0.000000 -0.000000  0.000000 -0.000000  0.000000 -0.000000  0.000001 -0.000002  0.000006
                                -0.000023  0.000112 -0.002238  0.003662 -0.006558  0.016156 -0.028510  0.029605 -0.022736  0.036524
                                -0.039793  0.017370 -0.004678  0.004803 -0.003352 -0.010878  0.000252 -0.000397  0.000106  0.000000
                                -0.000000 -0.000000 -0.000000 -0.000000  0.000000 -0.000001 -0.000000  0.000001  0.000000 -0.000056
                                -0.000000  0.000064  0.000000 -0.000034 -0.000000  0.000015  0.000000  0.000239 -0.000000 -0.003595
                                 0.000000  0.013560 -0.000000 -0.046291  0.000000  0.044219 -0.000000 -0.008991  0.000000  0.003375
                                -0.000000 -0.008954  0.000000  0.000246  0.000000 -0.000254  0.000000  0.000042  0.000000 -0.000032
                                -0.000000 -0.000009  0.000000 -0.002605  0.000000 -0.000081 -0.000000  0.000033 -0.000000  0.000000
                                -0.000164  0.000000  0.000000 -0.000596 -0.000000 -0.000000  0.000743  0.004238  0.020742  0.079678
                                 0.231863  0.425627  0.336780  0.042903 -0.013283  0.017351  0.002610  0.007937  0.012465 -0.000060
                                -0.000189 -0.000329  0.000483 -0.008550 -0.000386 -0.000294 -0.000008  0.000001 -0.000000  0.000304
                                -0.000000  0.002198  0.000000 -0.000002  0.000000  0.000040 -0.000000 -0.000253 -0.000000

   5.1   2   -16.8255 -101.9970  0.000006  0.000015  0.000042  0.000097  0.000212  0.000440  0.000908  0.001900  0.004070  0.008917
                                 0.019336  0.039673  0.069696  0.087590 -0.006114  0.020264 -0.235571 -0.479551 -0.253322  0.246097
                                 0.404320  0.490651  0.248883 -0.023497  0.014663 -0.002324  0.001626 -0.000853  0.000777 -0.000141
                                 0.000030 -0.000000 -0.000000 -0.000000 -0.000001 -0.000005 -0.000016 -0.000052 -0.000144 -0.000335
                                -0.000595 -0.000708 -0.000130  0.000028  0.001382 -0.000502  0.002983 -0.001304  0.002843 -0.003917
                                 0.005471 -0.003333  0.001255 -0.001235  0.000818  0.000008  0.000261 -0.000012  0.000001 -0.000000
                                 0.000000 -0.000001  0.000000 -0.000004  0.000000 -0.000014  0.000000 -0.000034  0.000000 -0.000041
                                -0.000000 -0.000071  0.000000 -0.000166  0.000000 -0.000348 -0.000000 -0.000304  0.000000 -0.000434
                                -0.000000  0.001710  0.000000 -0.006310 -0.000000  0.006234  0.000000 -0.001359 -0.000000  0.000166
                                 0.000000 -0.000041 -0.000000  0.000120 -0.000000  0.000011  0.000000 -0.000003 -0.000000  0.000036
                                 0.000000 -0.000082 -0.000000  0.000067  0.000000  0.000027 -0.000000 -0.000003 -0.000000 -0.000000
                                 0.000002 -0.000000  0.000000  0.000024  0.000000 -0.000000 -0.000000 -0.000000 -0.000000 -0.000000
                                 0.000001 -0.000019 -0.000062 -0.000051  0.000005 -0.000091 -0.000359  0.000067  0.000036 -0.000002
                                -0.000018  0.000016 -0.000018  0.000010  0.000062  0.000014  0.000001 -0.000005  0.000000  0.000042
                                -0.000000  0.000024 -0.000000  0.000001  0.000000 -0.000004 -0.000000 -0.000033  0.000000

   6.1   2   -13.3021  -95.4701 -0.000000 -0.000000 -0.000000 -0.000000 -0.000001 -0.000002 -0.000004 -0.000008 -0.000016 -0.000036
                                -0.000078 -0.000160 -0.000281 -0.000350  0.000012 -0.000066  0.000968  0.001935  0.000872 -0.000597
                                -0.002470 -0.001295 -0.001657  0.001044 -0.000563 -0.000633  0.001205 -0.000021 -0.000108  0.000002
                                -0.000007 -0.000006 -0.000023 -0.000090 -0.000333 -0.001207 -0.004153 -0.013045 -0.036498 -0.084916
                                -0.152527 -0.171768 -0.013903  0.012112  0.285359  0.032831  0.433732  0.028237  0.292190 -0.056113
                                 0.126389 -0.038676  0.011203 -0.004598  0.004124 -0.000328 -0.000121 -0.000014 -0.000001  0.000000
                                 0.000000  0.000001 -0.000000  0.000008 -0.000000  0.000031 -0.000000  0.000076 -0.000000  0.000152
                                -0.000000  0.000088  0.000000  0.000437 -0.000000  0.000704 -0.000000  0.000799  0.000000 -0.000441
                                -0.000000 -0.000302  0.000000  0.004269 -0.000000 -0.005084  0.000000  0.001372 -0.000000  0.000271
                                 0.000000 -0.000048 -0.000000 -0.000161 -0.000000  0.000002  0.000000 -0.000007 -0.000000 -0.000410
                                 0.000000  0.000373  0.000000 -0.000070 -0.000000 -0.000062  0.000000 -0.000006  0.000000 -0.000000
                                 0.000060 -0.000000 -0.000000 -0.000065  0.000000 -0.000000 -0.000000 -0.000000 -0.000000 -0.000001
                                -0.000004  0.000013  0.000059  0.000025  0.000166 -0.000340 -0.000066 -0.000070 -0.000038  0.000005
                                 0.000058 -0.000069  0.000040  0.000562  0.000096 -0.000049 -0.000002  0.000028  0.000000 -0.000126
                                 0.000000 -0.000264  0.000000 -0.000003  0.000000  0.000007  0.000000  0.000085 -0.000000

   7.1   2    -7.5305  -85.0492  0.000000 -0.000000  0.000000  0.000000  0.000000  0.000000  0.000000  0.000000  0.000000  0.000000
                                 0.000000  0.000000  0.000000  0.000000  0.000000 -0.000000 -0.000000 -0.000000 -0.000000  0.000000
                                 0.000000  0.000000  0.000000 -0.000000  0.000000  0.000000 -0.000000  0.000000  0.000000  0.000000
                                 0.000000  0.000000 -0.000000  0.000000  0.000000  0.000000  0.000000  0.000000  0.000000  0.000000
                                 0.000000  0.000000  0.000000 -0.000000  0.000000 -0.000000  0.000000 -0.000000  0.000000 -0.000000
                                 0.000000 -0.000000  0.000000 -0.000000 -0.000000  0.000000  0.000000 -0.000000  0.000000  0.000000
                                 0.000165  0.000000  0.001477  0.000000  0.008685  0.000000  0.034271  0.000000  0.100327  0.000000
                                 0.220835 -0.000000 -0.003550  0.000000  0.327342  0.000000  0.332082  0.000000  0.203865 -0.000000
                                -0.036275  0.000000  0.111563 -0.000000 -0.108388  0.000000  0.078373 -0.000000 -0.004989  0.000000
                                 0.000518 -0.000000 -0.000239  0.000000  0.000035 -0.000000 -0.000011  0.000000  0.000002  0.000000
                                 0.000217 -0.000000 -0.000220  0.000000  0.000072  0.000000 -0.000022 -0.000000  0.000000 -0.000200
                                 0.000000  0.000000  0.000042  0.000000 -0.000000 -0.000009 -0.000000 -0.000000 -0.000000 -0.000000
                                -0.000000 -0.000000 -0.000000 -0.000000 -0.000000  0.000000 -0.000000  0.000000  0.000000 -0.000000
                                -0.000000  0.000000 -0.000000 -0.000000 -0.000000  0.000000  0.000000 -0.000000  0.000001  0.000000
                                 0.000000  0.000000 -0.000016  0.000000  0.000000 -0.000000 -0.000002 -0.000000  0.000008

   8.1   2    -7.5257  -85.1134  0.000000  0.000000  0.000000  0.000000  0.000000  0.000001  0.000001  0.000002  0.000005  0.000012
                                 0.000026  0.000052  0.000094  0.000103  0.000035 -0.000021 -0.000290 -0.000776 -0.000097 -0.000321
                                 0.002434 -0.001002  0.006738 -0.006791  0.000071  0.000573 -0.002086  0.000787  0.000578  0.000052
                                -0.000009  0.000000  0.000000  0.000000  0.000001  0.000002  0.000009  0.000027  0.000076  0.000178
                                 0.000325  0.000354  0.000010 -0.000111 -0.000551 -0.000691  0.000040 -0.001569  0.001644 -0.004573
                                 0.008264 -0.006224  0.002713 -0.001682 -0.000224  0.000416  0.000722 -0.000036  0.000013  0.000165
                                -0.000000  0.001479 -0.000000  0.008698 -0.000000  0.034324 -0.000000  0.100481 -0.000000  0.221238
                                -0.000000 -0.003647  0.000000  0.327807 -0.000000  0.332150 -0.000000  0.203359 -0.000000 -0.038164
                                 0.000000  0.116932 -0.000000 -0.129293  0.000000  0.099062 -0.000000 -0.009638  0.000000  0.000307
                                -0.000000  0.000119  0.000000  0.000476  0.000000  0.000004 -0.000000  0.000007  0.000000  0.000398
                                -0.000000 -0.000696  0.000000  0.000369 -0.000000  0.000125  0.000000 -0.000335 -0.000000  0.000000
                                 0.000052  0.000000 -0.000000  0.000131 -0.000000  0.000000 -0.000000 -0.000000 -0.000000 -0.000003
                                -0.000002 -0.000073 -0.000216 -0.000098 -0.000195 -0.000013 -0.000571  0.000209  0.000121 -0.000009
                                -0.000096  0.000049 -0.000097 -0.000692 -0.000024  0.000067  0.000003 -0.000039 -0.000000  0.000267
                                -0.000000  0.000461  0.000000  0.000006 -0.000000 -0.000009  0.000000 -0.000221 -0.000000

   9.1   2    -2.6292  -40.3533 -0.000002 -0.000006 -0.000016 -0.000037 -0.000081 -0.000167 -0.000346 -0.000724 -0.001549 -0.003401
                                -0.007366 -0.015207 -0.026671 -0.034726  0.004937 -0.010778  0.099307  0.205387  0.129110 -0.162236
                                -0.180177 -0.564596 -0.118185 -0.034236  0.797500  0.545441 -0.026167  0.034814 -0.031813  0.005635
                                -0.001154 -0.000000 -0.000000 -0.000000 -0.000001 -0.000005 -0.000016 -0.000051 -0.000144 -0.000333
                                -0.000615 -0.000638 -0.000601  0.001129 -0.000774  0.005652 -0.008158  0.012018 -0.009677  0.024809
                                -0.034905  0.025893 -0.021525  0.009152 -0.018380 -0.003043 -0.009499  0.000181  0.000097  0.000000
                                -0.000000  0.000004 -0.000000  0.000023 -0.000000  0.000089 -0.000000  0.000259 -0.000000  0.000561
                                -0.000000  0.000022  0.000000  0.000854 -0.000000  0.000846  0.000000  0.000748 -0.000000 -0.002065
                                 0.000000  0.002431 -0.000000 -0.003478  0.000000 -0.003128 -0.000000  0.001158  0.000000 -0.005130
                                -0.000000 -0.000009  0.000000 -0.003614 -0.000000 -0.000667  0.000000  0.000236 -0.000000 -0.000681
                                -0.000000 -0.001089 -0.000000 -0.001391  0.000000 -0.000668 -0.000000  0.000195 -0.000000  0.000000
                                 0.000443  0.000000  0.000000 -0.000318 -0.000000 -0.000000 -0.000004 -0.000020 -0.000099 -0.000388
                                -0.001227 -0.002523 -0.002770  0.002947  0.009026  0.012165  0.017593 -0.000603 -0.000471 -0.000175
                                -0.001293 -0.003692 -0.007244 -0.008782 -0.003735 -0.000041 -0.000029  0.000511  0.000000  0.002269
                                -0.000000  0.002031  0.000000  0.000039 -0.000000 -0.000380 -0.000000 -0.000398 -0.000000

  10.1   2    -1.6254  -34.9234  0.000000  0.000000  0.000000  0.000000  0.000000  0.000000  0.000000  0.000000  0.000000  0.000001
                                -0.000000  0.000004 -0.000007  0.000059 -0.000188  0.000209 -0.000185  0.000378 -0.001209  0.003072
                                -0.007233  0.011682 -0.044333  0.043800 -0.003017  0.001199 -0.021737 -0.010063 -0.021009 -0.001674
                                 0.000675  0.000002  0.000008  0.000030  0.000112  0.000407  0.001404  0.004410  0.012414  0.028985
                                 0.052806  0.058704  0.012348 -0.029824 -0.080110 -0.139757  0.033709 -0.306666  0.126833 -0.498435
                                 0.847405 -0.277253  0.599175  0.286550  0.012866  0.018453 -0.016586  0.000264  0.000127  0.000000
                                 0.000000  0.000004  0.000000  0.000018  0.000000  0.000086  0.000000  0.000203  0.000000  0.001168
                                 0.000000 -0.000857 -0.000000  0.001123  0.000000 -0.000257  0.000000  0.004754 -0.000000 -0.034740
                                -0.000000  0.097286 -0.000000 -0.274730  0.000000  0.244813 -0.000000 -0.049514  0.000000 -0.003040
                                -0.000000 -0.008215  0.000000 -0.004487 -0.000000 -0.001726  0.000000  0.000450 -0.000000 -0.000809
                                 0.000000  0.000990  0.000000 -0.002435  0.000000 -0.001116 -0.000000  0.000446 -0.000000 -0.000000
                                -0.000035  0.000000 -0.000000 -0.000339 -0.000000 -0.000000 -0.000033 -0.000185 -0.000919 -0.003606
                                -0.011424 -0.023867 -0.027197  0.030816  0.100808  0.081282  0.035085 -0.005162 -0.004180 -0.000991
                                -0.007281 -0.022780 -0.040678 -0.036970 -0.006796 -0.000554 -0.000182  0.002010  0.000000  0.009154
                                -0.000000  0.007104  0.000000  0.000141 -0.000000 -0.001277 -0.000000 -0.002061 -0.000000

  11.1   2    -1.1545  -20.7340  0.000000  0.000001  0.000001  0.000003  0.000007  0.000015  0.000030  0.000063  0.000134  0.000296
                                 0.000639  0.001328  0.002302  0.003139 -0.000813  0.001365 -0.009053 -0.017397 -0.013921  0.020918
                                 0.002846  0.075138 -0.061461  0.075617 -0.119341 -0.046113  0.024553 -0.053933  0.031680 -0.011778
                                 0.002559 -0.000001 -0.000002 -0.000009 -0.000034 -0.000123 -0.000426 -0.001337 -0.003764 -0.008793
                                -0.016018 -0.017844 -0.003043  0.008034  0.026680  0.037122  0.001009  0.081364 -0.026691  0.121012
                                -0.220464  0.057780 -0.192683 -0.071862 -0.011920 -0.046758  0.012951 -0.005486  0.001340 -0.000005
                                -0.000000 -0.000046 -0.000000 -0.000273 -0.000000 -0.001082 -0.000000 -0.003198 -0.000000 -0.007097
                                -0.000000  0.000162  0.000000 -0.010209 -0.000000 -0.009409  0.000000 -0.001082 -0.000000  0.009615
                                 0.000000 -0.006407 -0.000000  0.090193  0.000000 -0.096072 -0.000000  0.074608  0.000000  0.046860
                                -0.000000 -0.036100  0.000000  0.011316 -0.000000 -0.003144  0.000000  0.000420 -0.000000  0.004321
                                -0.000000  0.012194 -0.000000 -0.003420 -0.000000  0.000845 -0.000000  0.001416 -0.000000  0.000000
                                 0.002478  0.000000  0.000000 -0.001046 -0.000000 -0.000000 -0.000159 -0.000906 -0.004493 -0.017616
                                -0.056011 -0.116150 -0.130198  0.168771  0.520768  0.429328  0.033504 -0.032128 -0.023226 -0.000402
                                -0.003065 -0.006865 -0.018656 -0.063711 -0.002219  0.000317 -0.000044  0.000429  0.000000  0.008000
                                -0.000000  0.017058  0.000000  0.000110 -0.000000 -0.000390  0.000000 -0.002489 -0.000000

  12.1   2    -0.4679  -19.8384 -0.000000 -0.000001 -0.000002 -0.000004 -0.000008 -0.000017 -0.000035 -0.000073 -0.000156 -0.000344
                                -0.000740 -0.001542 -0.002664 -0.003684  0.001079 -0.001735  0.010656  0.020042  0.017057 -0.026413
                                 0.000134 -0.094811  0.083796 -0.099980  0.154741  0.086169 -0.021465 -0.034196 -0.045574  0.007475
                                -0.003021  0.000000  0.000001  0.000005  0.000018  0.000066  0.000225  0.000714  0.001991  0.004713
                                 0.008400  0.010144 -0.011899  0.018027 -0.057072  0.091499 -0.212403  0.193579 -0.195909  0.355644
                                -0.384349  0.217518  0.054474  0.047333  0.011990 -0.008631 -0.032196  0.003574 -0.001975  0.000018
                                 0.000000  0.000161  0.000000  0.000949  0.000000  0.003753  0.000000  0.011134  0.000000  0.024213
                                 0.000000  0.000031 -0.000000  0.035155  0.000000  0.032999 -0.000000 -0.000653  0.000000 -0.031123
                                -0.000000  0.043180  0.000000 -0.532287 -0.000000  0.580820  0.000000 -0.332861 -0.000000 -0.125400
                                 0.000000 -0.034162 -0.000000 -0.049208  0.000000  0.004495 -0.000000 -0.002403  0.000000 -0.008439
                                 0.000000 -0.022034  0.000000 -0.017686  0.000000 -0.004456  0.000000 -0.001635  0.000000 -0.000000
                                -0.004440 -0.000000 -0.000000 -0.005891  0.000000  0.000000 -0.000023 -0.000132 -0.000657 -0.002560
                                -0.008289 -0.015993 -0.015102  0.034166  0.086716  0.115863  0.064811 -0.010276 -0.005995  0.010016
                                 0.073663  0.251840  0.400028  0.309980  0.035140  0.008357  0.001980 -0.004625 -0.000000 -0.019949
                                 0.000000 -0.022136 -0.000000 -0.000327  0.000000  0.001717  0.000000  0.005331  0.000000

  13.1   2    -0.2649  -15.2694  0.000001  0.000002  0.000004  0.000010  0.000022  0.000046  0.000095  0.000200  0.000427  0.000939
                                 0.002033  0.004201  0.007367  0.009637 -0.001457  0.003087 -0.027813 -0.057728 -0.037085  0.047667
                                 0.052252  0.182889  0.030710  0.014499 -0.336602 -0.408663  0.051980  0.355776  0.548499  0.171001
                                -0.005111  0.000000  0.000000  0.000002  0.000007  0.000026  0.000090  0.000285  0.000801  0.001874
                                 0.003408  0.003828 -0.000025 -0.000686 -0.007704 -0.003092 -0.009565 -0.007646 -0.002548 -0.011197
                                 0.036458 -0.015422  0.057729  0.028483  0.019666 -0.100607 -0.183337 -0.036000  0.001946  0.000012
                                 0.000000  0.000106  0.000000  0.000621  0.000000  0.002487  0.000000  0.007250  0.000000  0.017404
                                 0.000000 -0.001846 -0.000000  0.024121  0.000000  0.019754  0.000000  0.010407  0.000000 -0.088434
                                -0.000000  0.202205  0.000000 -0.806894 -0.000000  0.785671  0.000000 -0.288640 -0.000000 -0.075871
                                -0.000000 -0.073971 -0.000000 -0.064218 -0.000000 -0.005773  0.000000 -0.000465 -0.000000  0.000645
                                 0.000000  0.004989  0.000000  0.010368  0.000000  0.004727 -0.000000  0.000806  0.000000  0.000000
                                 0.001434 -0.000000  0.000000  0.002067 -0.000000  0.000000  0.000007  0.000042  0.000211  0.000827
                                 0.002643  0.005460  0.006124 -0.008822 -0.030450 -0.020031  0.021172  0.001744  0.001225 -0.000601
                                -0.004506 -0.014607 -0.023325 -0.030660 -0.015408 -0.000356 -0.000110 -0.001033 -0.000000 -0.003559
                                -0.000000  0.000826 -0.000000 -0.000064 -0.000000  0.000563  0.000000  0.000811  0.000000

  14.1   0     0.0054   -7.9862 -0.000000 -0.000000 -0.000001 -0.000002 -0.000005 -0.000011 -0.000022 -0.000046 -0.000097 -0.000217
                                -0.000456 -0.000984 -0.001593 -0.002756  0.002172 -0.002747  0.008067  0.009806  0.020378 -0.041308
                                 0.052290 -0.139799  0.304034 -0.303469  0.164074 -0.018159  0.180623 -0.477467  0.199015 -0.876000
                                 1.009029  0.000000  0.000001  0.000004  0.000014  0.000050  0.000170  0.000548  0.001501  0.003635
                                 0.006228  0.008559 -0.026470  0.042646 -0.098766  0.215621 -0.443255  0.473105 -0.461549  1.030223
                                -1.344939  0.811531 -0.235519  0.491595 -0.422264  0.065610 -0.449363  0.073944 -0.649415 -0.000010
                                -0.000000 -0.000093 -0.000000 -0.000541 -0.000000 -0.002173 -0.000000 -0.006302 -0.000000 -0.015544
                                -0.000000  0.002067  0.000000 -0.021307 -0.000000 -0.016779 -0.000000 -0.012572 -0.000000  0.098722
                                 0.000000 -0.236517 -0.000000  0.879457  0.000000 -0.845845 -0.000000  0.279507  0.000000  0.046757
                                 0.000000  0.072921  0.000000  0.061525  0.000000  0.053075  0.000000  0.214020  0.000000 -0.001958
                                -0.000000 -0.006604 -0.000000 -0.020313 -0.000000 -0.023055 -0.000000 -0.000920 -0.000000 -0.000000
                                -0.003839  0.000000 -0.000000 -0.005816  0.000000 -0.000000 -0.000001 -0.000004 -0.000021 -0.000072
                                -0.000298  0.000137  0.001969  0.004252 -0.000497  0.023123  0.288175 -0.003264 -0.001528  0.001603
                                 0.011969  0.039603  0.064327  0.040718 -0.050866  0.001074  0.000301  0.001069  0.000000  0.003987
                                 0.000000  0.006384  0.000000  0.000085  0.000000 -0.000417 -0.000000 -0.000170 -0.000000

  15.1   0     0.0118  -19.0569  0.000000  0.000000  0.000000  0.000000  0.000000  0.000000  0.000000  0.000000  0.000000  0.000000
                                 0.000000  0.000000  0.000000  0.000000  0.000000 -0.000000 -0.000000 -0.000000  0.000000 -0.000000
                                 0.000000 -0.000000  0.000000 -0.000000  0.000000 -0.000000  0.000000 -0.000000  0.000000 -0.000000
                                 0.000000 -0.000000 -0.000000 -0.000000 -0.000000 -0.000000 -0.000000 -0.000000 -0.000000 -0.000000
                                -0.000000 -0.000000  0.000000 -0.000000  0.000000 -0.000000  0.000000 -0.000000  0.000000 -0.000000
                                 0.000000 -0.000000  0.000000 -0.000000  0.000000 -0.000000  0.000000 -0.000000  0.000000  0.000000
                                -0.000031  0.000000 -0.000282  0.000000 -0.001649  0.000000 -0.006595  0.000000 -0.019229  0.000000
                                -0.046042 -0.000000  0.004736  0.000000 -0.063958  0.000000 -0.052737 -0.000000 -0.028562 -0.000000
                                 0.230449 -0.000000 -0.520783 -0.000000  2.049420  0.000000 -1.974775 -0.000000  0.725123 -0.000000
                                 0.208765 -0.000000  0.178248 -0.000000  0.250377 -0.000000  0.098883 -0.000000  0.206550  0.000000
                                -0.000416  0.000000 -0.006355 -0.000000 -0.020502  0.000000 -0.035103  0.000000  0.000000 -0.001253
                                 0.000000  0.000000 -0.003753 -0.000000  0.000000 -0.005752  0.000000  0.000000  0.000000  0.000000
                                 0.000000  0.000000  0.000000  0.000000 -0.000000  0.000000 -0.000000 -0.000000 -0.000000 -0.000000
                                -0.000000 -0.000000 -0.000000 -0.000000  0.000000 -0.000000 -0.000000 -0.000000  0.001116 -0.000000
                                 0.004939  0.000000  0.003649 -0.000000  0.000084  0.000000 -0.000664  0.000000 -0.000860

                                   1 2px     1 2px     1 2px     1 2px     1 2px     1 2px     1 2px     1 2px     1 2px     1 2px  
                                   1 2px     1 2px     1 2px     1 2px     1 2px     1 2px     1 2px     1 2px     1 2px     1 2px  
                                   1 2px     1 2px     1 2px     1 2px     1 2px     1 2px     1 2px     1 2px     1 3d1+    1 3d1+ 
                                   1 3d1+    1 3d1+    1 3d1+    1 3d1+    1 3d1+    1 3d1+    1 3d1+    1 3d1+    1 3d1+    1 3d1+ 
                                   1 3d1+    1 3d1+    1 3d1+    1 3d1+    1 3d1+    1 3d1+    1 3d1+    1 3d1+    1 4f1+    1 4f3+ 
                                   1 4f1+    1 4f3+    1 4f1+    1 4f3+    1 4f1+    1 4f3+    1 5g1+    1 5g3+    1 5g1+    1 5g3+ 
                                   1 5g1+    1 5g3+    2 2px     2 2px     2 2px     2 2px     2 2px     2 2px     2 2px     2 2px  
                                   2 3d1+    2 3d1+    2 3d1+    2 3d1+    2 4f1+    2 4f3+    2 4f1+    2 4f3+ 

   1.2   2   -84.4720 -286.2250  0.000014  0.000054  0.000210  0.000776  0.002803  0.009566  0.029701  0.080893  0.181357  0.307738
                                 0.343386  0.167514  0.035691 -0.004570  0.086200 -0.112589  0.094278 -0.051984  0.061390 -0.059738
                                 0.022520 -0.004459  0.001783 -0.001222  0.000125 -0.000030  0.000009 -0.000002  0.000000  0.000000
                                 0.000001  0.000008  0.000034  0.000047 -0.000011  0.000012 -0.000000 -0.000001  0.000005 -0.000019
                                 0.000057 -0.000052  0.000009 -0.000000  0.000000 -0.000000 -0.000001  0.000000 -0.000001 -0.000000
                                 0.000001  0.000000  0.000000 -0.000000 -0.000001  0.000000  0.000000  0.000000  0.000000 -0.000000
                                -0.000000  0.000000  0.000000  0.000000 -0.000001 -0.000001 -0.000001  0.000002 -0.000000 -0.000000
                                 0.000000  0.000000  0.000000 -0.000000 -0.000000  0.000000 -0.000001 -0.000000

   2.2   2   -13.3128  -95.4432 -0.000006 -0.000023 -0.000090 -0.000333 -0.001207 -0.004152 -0.013039 -0.036483 -0.084878 -0.152459
                                -0.171694 -0.014154  0.012437  0.284633  0.034103  0.431005  0.030888  0.290352 -0.052360  0.122936
                                -0.037627  0.011334 -0.004277  0.003132 -0.000415  0.000093 -0.000021  0.000007  0.000000  0.000002
                                 0.000011  0.000040  0.000109  0.000256  0.000040  0.000520  0.000594  0.000436 -0.000272  0.000413
                                -0.000783  0.000657 -0.000149  0.000145 -0.000128  0.000017  0.000009 -0.000000 -0.000269  0.000000
                                 0.000135  0.000000 -0.000065 -0.000000  0.000018  0.000000 -0.000008 -0.000000  0.000004 -0.000000
                                -0.000016  0.000000 -0.000000 -0.000005  0.000019  0.000008  0.000045 -0.000027  0.000007  0.000000
                                -0.000006  0.000015 -0.000001  0.000001  0.000005 -0.000000 -0.000031  0.000000

   3.2   2    -7.5242  -85.0803  0.000000  0.000000  0.000000  0.000001  0.000002  0.000006  0.000020  0.000056  0.000131  0.000236
                                 0.000260 -0.000008 -0.000003 -0.000471 -0.000061 -0.000781 -0.000084 -0.000383  0.000453 -0.000447
                                 0.000173 -0.000269  0.000453 -0.000546  0.000274 -0.000059 -0.000006  0.000001  0.000165  0.001478
                                 0.008691  0.034294  0.100393  0.220993 -0.003578  0.327534  0.332154  0.203512 -0.036047  0.110560
                                -0.106287  0.076366 -0.004607  0.000092  0.000209 -0.000016 -0.000027  0.000003  0.000309  0.000000
                                -0.000434 -0.000000  0.000226  0.000000 -0.000049  0.000000 -0.000299  0.000000  0.000088  0.000000
                                 0.000029 -0.000000  0.000002  0.000016 -0.000006  0.000025 -0.000186  0.000055 -0.000011 -0.000000
                                 0.000006 -0.000024  0.000080 -0.000001 -0.000007  0.000000  0.000054 -0.000000

   4.2   2    -1.6070  -35.6948  0.000002  0.000008  0.000032  0.000117  0.000425  0.001464  0.004600  0.012944  0.030238  0.055046
                                 0.061378  0.009809 -0.025980 -0.093542 -0.119311 -0.016102 -0.260490  0.075970 -0.392667  0.716676
                                -0.198541  0.603234  0.299069  0.022502  0.037371 -0.001704  0.000978 -0.000281  0.000000  0.000003
                                 0.000019  0.000081  0.000228  0.000670 -0.000225  0.000790  0.000407  0.001202 -0.007230  0.021311
                                -0.062628  0.058821 -0.019255 -0.005117 -0.002150 -0.001698 -0.000026 -0.000056 -0.002777  0.000000
                                -0.004459  0.000000 -0.002623 -0.000000 -0.000362  0.000000 -0.000150 -0.000000 -0.000384 -0.000000
                                -0.000427  0.000000  0.000233  0.001726  0.005500  0.009322  0.007536  0.000945  0.000133  0.000042
                                -0.000530 -0.002499 -0.001993 -0.000042  0.000426  0.000000  0.000802  0.000000

   5.2   2    -0.4347  -18.1434 -0.000000 -0.000001 -0.000003 -0.000010 -0.000036 -0.000124 -0.000391 -0.001101 -0.002576 -0.004688
                                -0.005252 -0.000368  0.001567  0.009355  0.007591  0.006118  0.018922 -0.005272  0.038856 -0.079888
                                 0.032684 -0.075539 -0.025283  0.002009  0.020733  0.020427 -0.009915  0.002054 -0.000012 -0.000110
                                -0.000648 -0.002582 -0.007567 -0.017595  0.001275 -0.024779 -0.021296 -0.008244  0.070676 -0.156218
                                 0.685381 -0.677506  0.269059  0.098291  0.021767  0.039672 -0.011363  0.000432  0.005278 -0.000000
                                 0.020671 -0.000000  0.009686 -0.000000 -0.003747  0.000000  0.001311  0.000000  0.006585  0.000000
                                -0.005383  0.000000  0.009783  0.071863  0.246806  0.390633  0.352613  0.067457  0.008279  0.001941
                                -0.003839 -0.021447 -0.037179 -0.000365  0.001124  0.000000  0.009287  0.000000

   6.2   0    -0.0023  -10.0695 -0.000000 -0.000001 -0.000005 -0.000018 -0.000067 -0.000229 -0.000723 -0.002021 -0.004767 -0.008550
                                -0.010097  0.008166 -0.011801  0.045491 -0.060665  0.155672 -0.131965  0.149266 -0.304862  0.364856
                                -0.248156 -0.015377 -0.225543  0.143975  0.054352  0.323942  0.181980  0.452538  0.000012  0.000109
                                 0.000638  0.002552  0.007448  0.017743 -0.001730  0.024710  0.020518  0.010311 -0.085310  0.190345
                                -0.763440  0.736680 -0.272474 -0.073210 -0.085208 -0.136141 -0.092327 -0.142821  0.000629 -0.000000
                                 0.003095 -0.000000  0.002082  0.000000 -0.003424  0.000000  0.000815 -0.000000  0.002497 -0.000000
                                -0.000643 -0.000000  0.000680  0.004982  0.017526  0.026940  0.037051  0.043732  0.000635  0.000138
                                 0.000790  0.002475 -0.003942  0.000042 -0.000574 -0.000000  0.000121  0.000000

   7.2   0     0.0309   -6.5578  0.000000  0.000001  0.000003  0.000012  0.000042  0.000157  0.000444  0.001411  0.002812  0.006654
                                 0.001171  0.107658 -0.179899  0.328795 -0.903217  1.706423 -1.984329  1.835841 -4.227464  5.663596
                                -3.258065  1.332042 -1.613108  1.622805 -0.631943  0.380595 -1.377170  1.571966 -0.000011 -0.000100
                                -0.000575 -0.002352 -0.006634 -0.018737  0.004871 -0.024250 -0.015306 -0.031479  0.223284 -0.593103
                                 1.953013 -1.853580  0.495553 -0.033799  0.175810  0.011956  0.174881 -0.151836 -0.001030  0.000000
                                -0.004949  0.000000 -0.012600 -0.000000 -0.030244 -0.000000 -0.000826  0.000000 -0.002739  0.000000
                                -0.006514  0.000000 -0.001079 -0.007975 -0.027213 -0.043444 -0.039576  0.012647 -0.000857 -0.000210
                                -0.000884 -0.000367 -0.007227 -0.000012  0.000417  0.000000 -0.000007 -0.000000

                                   1 2py     1 2py     1 2py     1 2py     1 2py     1 2py     1 2py     1 2py     1 2py     1 2py  
                                   1 2py     1 2py     1 2py     1 2py     1 2py     1 2py     1 2py     1 2py     1 2py     1 2py  
                                   1 2py     1 2py     1 2py     1 2py     1 2py     1 2py     1 2py     1 2py     1 3d1-    1 3d1- 
                                   1 3d1-    1 3d1-    1 3d1-    1 3d1-    1 3d1-    1 3d1-    1 3d1-    1 3d1-    1 3d1-    1 3d1- 
                                   1 3d1-    1 3d1-    1 3d1-    1 3d1-    1 3d1-    1 3d1-    1 3d1-    1 3d1-    1 4f1-    1 4f3- 
                                   1 4f1-    1 4f3-    1 4f1-    1 4f3-    1 4f1-    1 4f3-    1 5g1-    1 5g3-    1 5g1-    1 5g3- 
                                   1 5g1-    1 5g3-    2 2py     2 2py     2 2py     2 2py     2 2py     2 2py     2 2py     2 2py  
                                   2 3d1-    2 3d1-    2 3d1-    2 3d1-    2 4f1-    2 4f3-    2 4f1-    2 4f3- 

   1.3   2   -84.4720 -286.2250  0.000014  0.000054  0.000210  0.000776  0.002803  0.009566  0.029701  0.080893  0.181357  0.307738
                                 0.343386  0.167514  0.035691 -0.004569  0.086198 -0.112586  0.094275 -0.051982  0.061388 -0.059735
                                 0.022519 -0.004459  0.001783 -0.001222  0.000125 -0.000030  0.000009 -0.000002  0.000000  0.000000
                                 0.000001  0.000008  0.000034  0.000047 -0.000011  0.000012 -0.000000 -0.000001  0.000005 -0.000019
                                 0.000057 -0.000052  0.000009 -0.000000  0.000000 -0.000000 -0.000001  0.000000 -0.000001 -0.000000
                                 0.000001  0.000000  0.000000 -0.000000 -0.000001  0.000000  0.000000  0.000000  0.000000 -0.000000
                                -0.000000  0.000000  0.000000  0.000000 -0.000001 -0.000001 -0.000001  0.000002 -0.000000 -0.000000
                                 0.000000  0.000000  0.000000 -0.000000 -0.000000 -0.000000 -0.000001  0.000000

   2.3   2   -13.3128  -95.4432 -0.000006 -0.000023 -0.000090 -0.000333 -0.001207 -0.004152 -0.013039 -0.036483 -0.084878 -0.152459
                                -0.171694 -0.014154  0.012437  0.284632  0.034104  0.431003  0.030890  0.290351 -0.052357  0.122933
                                -0.037625  0.011334 -0.004277  0.003132 -0.000415  0.000093 -0.000021  0.000007  0.000000  0.000002
                                 0.000011  0.000040  0.000109  0.000256  0.000040  0.000520  0.000594  0.000436 -0.000272  0.000413
                                -0.000783  0.000657 -0.000149  0.000145 -0.000128  0.000017  0.000009 -0.000000 -0.000269  0.000000
                                 0.000135  0.000000 -0.000065 -0.000000  0.000018  0.000000 -0.000008 -0.000000  0.000004 -0.000000
                                -0.000016  0.000000 -0.000000 -0.000005  0.000019  0.000008  0.000045 -0.000027  0.000007  0.000000
                                -0.000006  0.000015 -0.000001  0.000001  0.000005 -0.000000 -0.000031  0.000000

   3.3   2    -7.5242  -85.0803  0.000000  0.000000  0.000000  0.000001  0.000002  0.000006  0.000020  0.000056  0.000131  0.000236
                                 0.000260 -0.000008 -0.000003 -0.000471 -0.000061 -0.000781 -0.000084 -0.000383  0.000453 -0.000447
                                 0.000173 -0.000269  0.000453 -0.000546  0.000274 -0.000059 -0.000006  0.000001  0.000165  0.001478
                                 0.008691  0.034294  0.100393  0.220993 -0.003578  0.327534  0.332154  0.203512 -0.036047  0.110559
                                -0.106286  0.076366 -0.004607  0.000092  0.000209 -0.000016 -0.000027  0.000003  0.000309  0.000000
                                -0.000434 -0.000000  0.000226  0.000000 -0.000049 -0.000000 -0.000299  0.000000  0.000088  0.000000
                                 0.000029 -0.000000  0.000002  0.000016 -0.000006  0.000025 -0.000186  0.000055 -0.000011 -0.000000
                                 0.000006 -0.000024  0.000080 -0.000001 -0.000007  0.000000  0.000054 -0.000000

   4.3   2    -1.6070  -35.6948  0.000002  0.000008  0.000032  0.000117  0.000425  0.001464  0.004600  0.012944  0.030238  0.055046
                                 0.061378  0.009809 -0.025981 -0.093542 -0.119311 -0.016101 -0.260491  0.075971 -0.392669  0.716678
                                -0.198542  0.603235  0.299069  0.022502  0.037370 -0.001704  0.000978 -0.000281  0.000000  0.000003
                                 0.000019  0.000081  0.000228  0.000670 -0.000225  0.000790  0.000407  0.001202 -0.007230  0.021311
                                -0.062628  0.058821 -0.019255 -0.005117 -0.002150 -0.001698 -0.000026 -0.000056 -0.002777  0.000000
                                -0.004459  0.000000 -0.002623 -0.000000 -0.000362  0.000000 -0.000150 -0.000000 -0.000384 -0.000000
                                -0.000427  0.000000  0.000233  0.001726  0.005500  0.009322  0.007536  0.000945  0.000133  0.000042
                                -0.000530 -0.002499 -0.001993 -0.000042  0.000426  0.000000  0.000802  0.000000

   5.3   2    -0.4347  -18.1434 -0.000000 -0.000001 -0.000003 -0.000010 -0.000036 -0.000124 -0.000391 -0.001101 -0.002576 -0.004688
                                -0.005252 -0.000368  0.001567  0.009355  0.007591  0.006118  0.018922 -0.005272  0.038856 -0.079888
                                 0.032684 -0.075539 -0.025283  0.002009  0.020733  0.020427 -0.009915  0.002054 -0.000012 -0.000110
                                -0.000648 -0.002582 -0.007567 -0.017595  0.001275 -0.024779 -0.021296 -0.008244  0.070676 -0.156218
                                 0.685381 -0.677506  0.269059  0.098291  0.021767  0.039672 -0.011363  0.000432  0.005278 -0.000000
                                 0.020671 -0.000000  0.009686  0.000000 -0.003747  0.000000  0.001311  0.000000  0.006585  0.000000
                                -0.005383  0.000000  0.009783  0.071863  0.246806  0.390633  0.352613  0.067457  0.008279  0.001941
                                -0.003839 -0.021447 -0.037179 -0.000365  0.001124  0.000000  0.009287  0.000000

   6.3   0    -0.0023  -10.0695 -0.000000 -0.000001 -0.000005 -0.000018 -0.000067 -0.000229 -0.000723 -0.002021 -0.004767 -0.008550
                                -0.010097  0.008166 -0.011801  0.045491 -0.060665  0.155672 -0.131965  0.149266 -0.304862  0.364856
                                -0.248156 -0.015377 -0.225543  0.143975  0.054352  0.323942  0.181980  0.452538  0.000012  0.000109
                                 0.000638  0.002552  0.007448  0.017743 -0.001730  0.024710  0.020518  0.010311 -0.085310  0.190345
                                -0.763440  0.736680 -0.272474 -0.073210 -0.085208 -0.136141 -0.092327 -0.142821  0.000629 -0.000000
                                 0.003095 -0.000000  0.002082  0.000000 -0.003424  0.000000  0.000815 -0.000000  0.002497 -0.000000
                                -0.000643 -0.000000  0.000680  0.004982  0.017526  0.026940  0.037051  0.043732  0.000635  0.000138
                                 0.000790  0.002475 -0.003942  0.000042 -0.000574 -0.000000  0.000121  0.000000

   7.3   0     0.0309   -6.5578  0.000000  0.000001  0.000003  0.000012  0.000042  0.000157  0.000444  0.001411  0.002812  0.006654
                                 0.001171  0.107658 -0.179899  0.328796 -0.903218  1.706426 -1.984332  1.835843 -4.227469  5.663602
                                -3.258067  1.332043 -1.613108  1.622805 -0.631943  0.380595 -1.377170  1.571966 -0.000011 -0.000100
                                -0.000575 -0.002352 -0.006634 -0.018737  0.004871 -0.024250 -0.015306 -0.031479  0.223284 -0.593103
                                 1.953013 -1.853580  0.495553 -0.033799  0.175810  0.011956  0.174881 -0.151836 -0.001030  0.000000
                                -0.004949  0.000000 -0.012600 -0.000000 -0.030244 -0.000000 -0.000826  0.000000 -0.002739  0.000000
                                -0.006514  0.000000 -0.001079 -0.007975 -0.027213 -0.043444 -0.039576  0.012647 -0.000857 -0.000210
                                -0.000884 -0.000367 -0.007227 -0.000012  0.000417  0.000000 -0.000007 -0.000000

                                   1 3d2-    1 3d2-    1 3d2-    1 3d2-    1 3d2-    1 3d2-    1 3d2-    1 3d2-    1 3d2-    1 3d2- 
                                   1 3d2-    1 3d2-    1 3d2-    1 3d2-    1 3d2-    1 3d2-    1 3d2-    1 3d2-    1 3d2-    1 3d2- 
                                   1 4f2-    1 4f2-    1 4f2-    1 4f2-    1 5g2-    1 5g4-    1 5g2-    1 5g4-    1 5g2-    1 5g4- 
                                   2 3d2-    2 3d2-    2 3d2-    2 3d2-    2 4f2-    2 4f2- 

   1.4   2    -7.5305  -85.0492  0.000165  0.001477  0.008685  0.034271  0.100327  0.220835 -0.003550  0.327342  0.332082  0.203865
                                -0.036275  0.111563 -0.108388  0.078373 -0.004989  0.000518 -0.000239  0.000035 -0.000011  0.000002
                                 0.000217 -0.000220  0.000072 -0.000022 -0.000200  0.000000  0.000042  0.000000 -0.000009 -0.000000
                                 0.000001  0.000000 -0.000016  0.000000 -0.000002  0.000008

   2.4   0     0.0118  -19.0569 -0.000031 -0.000282 -0.001649 -0.006595 -0.019229 -0.046042  0.004736 -0.063958 -0.052737 -0.028562
                                 0.230449 -0.520783  2.049420 -1.974775  0.725123  0.208765  0.178248  0.250377  0.098883  0.206550
                                -0.000416 -0.006355 -0.020502 -0.035103 -0.001253  0.000000 -0.003753  0.000000 -0.005752  0.000000
                                 0.001116  0.004939  0.003649  0.000084 -0.000664 -0.000860

   3.4   0     0.0462   -5.5594  0.000010  0.000102  0.000531  0.002404  0.005824  0.029015 -0.018552  0.030902  0.000755  0.123924
                                -0.830138  2.349826 -7.232489  6.830395 -1.539816  0.494572 -0.661487  0.388763 -0.708202  1.285654
                                 0.000369  0.001155  0.010560 -0.010723  0.000387 -0.000000  0.001470 -0.000000  0.000535 -0.000000
                                -0.000304 -0.001157 -0.000527 -0.000019  0.000271  0.000312

 HOMO     13.1    -0.264875 =      -7.2076eV
 LUMO      6.2    -0.002284 =      -0.0621eV
 LUMO-HOMO         0.262591 =       7.1455eV


 **********************************************************************************************************************************
 DATASETS  * FILE   NREC   LENGTH (MB)   RECORD NAMES
              1      22       22.36       500      610      700      900      950      970     1000      129      960     1700   
                                          VAR    BASINP    GEOM    SYMINP    ZMAT    AOBASIS   BASIS     P2S    ABASIS    OPER   
                                         1101     1401     1411     1412     1650     1100     1400     1410     1200     1210   
                                          SR      EKINR    POTR     PVPR    MOLCAS      S      EKIN      POT      H0       H01  
                                         1080     1600   
                                         AOSYM     SMH  

              2       4        3.53       700     1000      520     2100   
                                         GEOM     BASIS   MCVARS     RHF  

 PROGRAMS   *        TOTAL       RHF       INT
 CPU TIMES  *        70.21      4.17     65.79
 REAL TIME  *        79.69 SEC
 DISK USED  *         4.70 GB      
 SF USED    *         0.14 MB      
 GA USED    *         0.00 MB       (max)       0.00 MB       (current)
 **********************************************************************************************************************************
 SETTING SCF            =     -3671.20230100  AU                              
 SETTING _CC_NORM_MAX   =         2.00000000                                  


 PROGRAM * CCSD (Restricted open-shell coupled cluster)     Authors: C. Hampel, H.-J. Werner, 1991, M. Deegan, P.J. Knowles, 1992


 Convergence thresholds:  THRVAR = 1.00D-08  THRDEN = 1.00D-06

 CCSD(T)     terms to be evaluated (factor= 1.000)


 Number of core orbitals:          15 (   8   3   3   1 )
 Number of closed-shell orbitals:   9 (   5   2   2   0 )
 Number of external orbitals:     317 ( 136  73  73  35 )

 Memory could be reduced to 139.73 Mwords without degradation in triples

 Number of N-1 electron functions:              18
 Number of N-2 electron functions:             153
 Number of singly external CSFs:              1944
 Number of doubly external CSFs:           3103347
 Total number of CSFs:                     3105291

 Molecular orbitals read from record     2100.2  Type=RHF/CANONICAL (state 1.1)

 Integral transformation finished. Total CPU:   4.26 sec, npass=  1  Memory used:  14.81 MW

 Starting RMP2 calculation

 Wavefunction is spin-projected

 ITER.      SQ.NORM     CORR.ENERGY   TOTAL ENERGY   ENERGY CHANGE        DEN1      VAR(S)    VAR(P)  DIIS     TIME
   1      1.21943979    -0.66908545 -3671.87138645    -0.66908545    -0.01456555  0.34D-11  0.72D-02  1  1     4.79
   2      1.24332940    -0.68674268 -3671.88904368    -0.01765723    -0.00038186  0.96D-12  0.29D-03  2  2     5.50
   3      1.24848446    -0.68878219 -3671.89108319    -0.00203951    -0.00001350  0.22D-12  0.12D-04  3  3     6.16
   4      1.24918632    -0.68893296 -3671.89123396    -0.00015077    -0.00000045  0.44D-13  0.37D-06  4  4     6.93
   5      1.24926206    -0.68894647 -3671.89124748    -0.00001351    -0.00000001  0.88D-14  0.53D-08  5  5     7.82
   6      1.24926490    -0.68894685 -3671.89124785    -0.00000038    -0.00000000  0.22D-14  0.17D-09  6  6     8.86

 Norm of t1 vector:      0.00000784      S-energy:    -0.00000000      T1 diagnostic:  0.00000131
 Norm of t2 vector:      0.49926436      P-energy:    -0.68894685
                                         Alpha-Beta:  -0.49833626
                                         Alpha-Alpha: -0.09530530
                                         Beta-Beta:   -0.09530530

 Spin contamination <S**2-Sz**2-Sz>     0.00000000
  Reference energy                  -3671.202301001398
  RHF-RMP2 correlation energy          -0.688946849362
 !RHF-RMP2 energy                   -3671.891247850760
 (NB above energy spin projected)

 Starting RCCSD calculation

 ITER.      SQ.NORM     CORR.ENERGY   TOTAL ENERGY   ENERGY CHANGE        DEN1      VAR(S)    VAR(P)  DIIS     TIME
   1      1.18448638    -0.62796091 -3671.83026191    -0.62796091    -0.02607516  0.90D-02  0.51D-02  1  1    16.22
   2      1.21516840    -0.64917530 -3671.85147630    -0.02121439    -0.00448093  0.87D-03  0.19D-02  2  2    19.96
   3      1.24098363    -0.65474110 -3671.85704210    -0.00556580    -0.00139629  0.80D-03  0.38D-03  3  3    23.03
   4      1.26765227    -0.65929545 -3671.86159645    -0.00455435    -0.00028171  0.12D-03  0.10D-03  4  4    27.27
   5      1.28124784    -0.66042840 -3671.86272940    -0.00113295    -0.00008091  0.45D-04  0.26D-04  5  5    31.97
   6      1.28990102    -0.66109668 -3671.86339768    -0.00066828    -0.00002160  0.12D-04  0.70D-05  6  6    35.16
   7      1.29355632    -0.66128559 -3671.86358659    -0.00018891    -0.00000634  0.37D-05  0.22D-05  7  7    39.42
   8      1.29494070    -0.66133795 -3671.86363895    -0.00005236    -0.00000249  0.15D-05  0.91D-06  8  8    43.67
   9      1.29571974    -0.66136767 -3671.86366867    -0.00002972    -0.00000090  0.54D-06  0.33D-06  9  9    47.86
  10      1.29599650    -0.66136664 -3671.86366764     0.00000103    -0.00000030  0.21D-06  0.89D-07 10 10    51.51
  11      1.29616760    -0.66136901 -3671.86367001    -0.00000237    -0.00000013  0.10D-06  0.29D-07 11 11    55.58
  12      1.29624581    -0.66137077 -3671.86367177    -0.00000177    -0.00000006  0.47D-07  0.10D-07 12 12    59.73
  13      1.29629149    -0.66137176 -3671.86367276    -0.00000099    -0.00000003  0.21D-07  0.41D-08 13 13    64.86
  14      1.29632639    -0.66137295 -3671.86367395    -0.00000119    -0.00000001  0.10D-07  0.24D-08 14 14    68.54
  15      1.29634010    -0.66137336 -3671.86367436    -0.00000041    -0.00000001  0.62D-08  0.16D-08 15 15    72.94

 Norm of t1 vector:      0.23696189      S-energy:    -0.00000022      T1 diagnostic:  0.03949365
                                                                       D1 diagnostic:  0.09703024
 Norm of t2 vector:      0.49009097      P-energy:    -0.66137313
                                         Alpha-Beta:  -0.50233656
                                         Alpha-Alpha: -0.07951829
                                         Beta-Beta:   -0.07951829

 Singles amplitudes (print threshold =  0.500E-01):

         I         SYM. A    A   T(IA) [Alpha-Alpha]

         7         2         4      0.06666198
         9         3         4      0.06666198
 
         I         SYM. A    A   T(IA) [Beta-Beta]

         7         2         4      0.06666198
         9         3         4      0.06666198

 Doubles amplitudes (print threshold =  0.500E-01):

         I         J         SYM. A    SYM. B    A         B      T(IJ, AB) [Alpha-Beta]

         5         5         1         1         2         2     -0.08666566
         5         5         2         2         1         1     -0.08107523
         5         5         3         3         1         1     -0.08107523
         5         5         4         4         1         1     -0.08666566

 Spin contamination <S**2-Sz**2-Sz>     0.00000000

 Memory could be reduced to 143.62 Mwords without degradation in triples
 

  Correlated core orbitals:             9.1      10.1       4.2       4.3
  Orbital energies:                    -2.6292   -1.6254   -1.6070   -1.6070
 
  RCCSD core-core energy               -0.192917209000
  RCCSD core-valence energy            -0.110249992597
  RCCSD valence correlation energy     -0.358206155030
 

 RESULTS
 =======

  Reference energy                  -3671.202301001398
  RCCSD singles energy                 -0.000000222347
  RCCSD pair energy                    -0.661373134281
  RCCSD correlation energy             -0.661373356627
  Triples (T) contribution             -0.047653984070
  Total correlation energy             -0.709027340698
 
  RHF-RCCSD energy                  -3671.863674358025
  RHF-RCCSD[T] energy               -3671.923827782082
  RHF-RCCSD-T energy                -3671.909055487733
 !RHF-RCCSD(T) energy               -3671.911328342096

 Program statistics:

 Available memory in ccsd:               999999162
 Min. memory needed in ccsd:               9269475
 Max. memory used in ccsd:                13027373
 Max. memory used in cckext:              11905262 (15 integral passes)
 Max. memory used in cckint:              14810557 ( 1 integral passes)



 **********************************************************************************************************************************
 DATASETS  * FILE   NREC   LENGTH (MB)   RECORD NAMES
              1      22       22.36       500      610      700      900      950      970     1000      129      960     1700   
                                          VAR    BASINP    GEOM    SYMINP    ZMAT    AOBASIS   BASIS     P2S    ABASIS    OPER   
                                         1101     1401     1411     1412     1650     1100     1400     1410     1200     1210   
                                          SR      EKINR    POTR     PVPR    MOLCAS      S      EKIN      POT      H0       H01  
                                         1080     1600   
                                         AOSYM     SMH  

              2       4        3.53       700     1000      520     2100   
                                         GEOM     BASIS   MCVARS     RHF  

 PROGRAMS   *        TOTAL  RCCSD(T)       RHF       INT
 CPU TIMES  *       187.18    116.89      4.17     65.79
 REAL TIME  *       328.46 SEC
 DISK USED  *        15.37 GB      
 SF USED    *         2.15 GB      
 GA USED    *         0.00 MB       (max)       0.00 MB       (current)
 **********************************************************************************************************************************
 SETTING CCSD           =     -3671.91132834  AU                              
 SETTING BIND           =        -0.26721124  AU                              
 Output type csv         
                                                                                                                                                                                                                                                                

  1.90,SCF,CCSD,BIND
   1.9,   -3671.202301,   -3671.911328,   -0.26721124
                                                  

 RCCSD(T)/USERDEF energy=  -3671.911328342096

        RCCSD(T)        RHF-SCF 
  -3671.91132834  -3671.20230100
 **********************************************************************************************************************************
 Molpro calculation terminated
 Variable memory released
