
 Primary working directories    : /global/cscratch1/sd/haihan
 Secondary working directories  : /global/cscratch1/sd/haihan
 Wavefunction directory         : /global/homes/h/haihan/Research/ECP/f_group_element_ecps/Zr/Molpro/molecule/ZrO/UC/wfu/
 Main file repository           : /global/cscratch1/sd/haihan/

 SHA1      : 19cd028119e0e09f93f0674bd8af7968d9b3eff6
 NAME      : 2015.1.36
 ARCHNAME  : linux/x86_64
 FC        : /opt/cray/pe/craype/2.5.14/bin/ftn
 BLASLIB   : -L/opt/intel/compilers_and_libraries_2018.1.163/linux/mkl/lib/intel64 -Wl,-_start-group -lmkl_intel_ilp64 -lmkl_intel_thread -lmkl_core -Wl,-_end-group -liomp5
 id        : lbl

 Nodes     nprocs
 nid12819    11
 Number of processes for MPI-2 version of Molpro:   nprocs(total)=   12   nprocs(compute)=   11   nprocs(helper)=    1

 Using customized tuning parameters: mindgm=7; mindgv=16; mindgc=1; mindgr=1; noblas=0; minvec=7
 default implementation of scratch files=sf  

 ***,Calculation for all-electron YH molecule, SCF and CCSD(T)
 memory,1,g
 gthresh,twoint=1.0E-15
 gthresh,throvl=1.0E-15
 
 set,dkroll=1,dkho=10,dkhp=4
 basis={
 Including file /global/u2/h/haihan/Research/ECP/f_group_element_ecps/Zr/Molpro/molecule/ZrO/UC/r_1.50/../generate/Zr-aug-cc-pwCVTZ.basis
 Including file /global/u2/h/haihan/Research/ECP/f_group_element_ecps/Zr/Molpro/molecule/ZrO/UC/r_1.50/../generate/O-aug-cc-pwCVTZ.basis
 }
 
 Zr_ccsd=-3596.607176
 O_ccsd= -75.03694110
 
                                                                                 !These are the wf cards parameters
 ne = 48
 symm = 1
 ss= 0
 
                                                                                 !There are irrep cards paramters
 A1=13
 B1=5
 B2=5
 A2=1
 
 
 geometry={
     2
     ZrO molecule
     Zr 0.0 0.0 0.0
     O 0.0 0.0 1.50
 }
 {rhf,nitord=20;
  maxit,200;
  wf,ne,symm,ss
  occ,A1,B1,B2,A2
  closed,A1,B1,B2,A2
  print,orbitals=2
 }
 scf=energy
 _CC_NORM_MAX=2.0
 {rccsd(t),shifts=0.5,shiftp=0.5,thrdis=1.0;diis,1,1,15,1;maxit,200;core,8,3,3,1}
 ccsd=energy
 bind=ccsd-Zr_ccsd-O_ccsd
 
 
 table,1.50,scf,ccsd,bind
 save
 type,csv
 

 Variables initialized (889), CPU time= 0.00 sec
 Commands  initialized (702), CPU time= 0.00 sec, 572 directives.
 Default parameters read. Elapsed time= 0.11 sec

 Checking input...
 Passed
1


                                         ***  PROGRAM SYSTEM MOLPRO  ***
                                       Copyright, TTI GmbH Stuttgart, 2015
                                    Version 2015.1 linked Dec 29 2018 15:55:43


 **********************************************************************************************************************************
 LABEL *   Calculation for all-electron YH molecule, SCF and CCSD(T)                     
  64 bit mpp version                                                                     DATE: 24-Sep-22          TIME: 18:27:13  
 **********************************************************************************************************************************

 SHA1:             19cd028119e0e09f93f0674bd8af7968d9b3eff6
 **********************************************************************************************************************************

 THRESHOLDS:

 ZERO    =  1.00D-12  ONEINT  =  1.00D-12  TWOINT  =  1.00D-15  PREFAC  =  1.00D-14  LOCALI  =  1.00D-09  EORDER  =  1.00D-04
 ENERGY  =  0.00D+00  ETEST   =  0.00D+00  EDENS   =  0.00D+00  THRDEDEF=  1.00D-06  GRADIENT=  1.00D-02  STEP    =  1.00D-03
 ORBITAL =  1.00D-05  CIVEC   =  1.00D-05  COEFF   =  1.00D-04  PRINTCI =  5.00D-02  PUNCHCI =  9.90D+01  OPTGRAD =  3.00D-04
 OPTENERG=  1.00D-06  OPTSTEP =  3.00D-04  THRGRAD =  1.00D-10  COMPRESS=  1.00D-11  VARMIN  =  1.00D-07  VARMAX  =  1.00D-03
 THRDOUB =  0.00D+00  THRDIV  =  1.00D-05  THRRED  =  1.00D-07  THRPSP  =  1.00D+00  THRDC   =  1.00D-10  THRCS   =  1.00D-10
 THRNRM  =  1.00D-08  THREQ   =  0.00D+00  THRDE   =  1.00D+00  THRREF  =  1.00D-05  SPARFAC =  1.00D+00  THRDLP  =  1.00D-07
 THRDIA  =  1.00D-10  THRDLS  =  1.00D-07  THRGPS  =  0.00D+00  THRKEX  =  0.00D+00  THRDIS  =  2.00D-01  THRVAR  =  1.00D-10
 THRLOC  =  1.00D-06  THRGAP  =  1.00D-06  THRLOCT = -1.00D+00  THRGAPT = -1.00D+00  THRORB  =  1.00D-06  THRMLTP =  0.00D+00
 THRCPQCI=  1.00D-10  KEXTA   =  0.00D+00  THRCOARS=  0.00D+00  SYMTOL  =  1.00D-06  GRADTOL =  1.00D-06  THROVL  =  1.00D-08
 THRORTH =  1.00D-08  GRID    =  1.00D-06  GRIDMAX =  1.00D-03  DTMAX   =  0.00D+00  THROCCDE=  1.00D-01  THROCCDE=  1.00D-01



 THRESHOLDS:

 ZERO    =  1.00D-12  ONEINT  =  1.00D-12  TWOINT  =  1.00D-15  PREFAC  =  1.00D-14  LOCALI  =  1.00D-09  EORDER  =  1.00D-04
 ENERGY  =  0.00D+00  ETEST   =  0.00D+00  EDENS   =  0.00D+00  THRDEDEF=  1.00D-06  GRADIENT=  1.00D-02  STEP    =  1.00D-03
 ORBITAL =  1.00D-05  CIVEC   =  1.00D-05  COEFF   =  1.00D-04  PRINTCI =  5.00D-02  PUNCHCI =  9.90D+01  OPTGRAD =  3.00D-04
 OPTENERG=  1.00D-06  OPTSTEP =  3.00D-04  THRGRAD =  1.00D-10  COMPRESS=  1.00D-11  VARMIN  =  1.00D-07  VARMAX  =  1.00D-03
 THRDOUB =  0.00D+00  THRDIV  =  1.00D-05  THRRED  =  1.00D-07  THRPSP  =  1.00D+00  THRDC   =  1.00D-10  THRCS   =  1.00D-10
 THRNRM  =  1.00D-08  THREQ   =  0.00D+00  THRDE   =  1.00D+00  THRREF  =  1.00D-05  SPARFAC =  1.00D+00  THRDLP  =  1.00D-07
 THRDIA  =  1.00D-10  THRDLS  =  1.00D-07  THRGPS  =  0.00D+00  THRKEX  =  0.00D+00  THRDIS  =  2.00D-01  THRVAR  =  1.00D-10
 THRLOC  =  1.00D-06  THRGAP  =  1.00D-06  THRLOCT = -1.00D+00  THRGAPT = -1.00D+00  THRORB  =  1.00D-06  THRMLTP =  0.00D+00
 THRCPQCI=  1.00D-10  KEXTA   =  0.00D+00  THRCOARS=  0.00D+00  SYMTOL  =  1.00D-06  GRADTOL =  1.00D-06  THROVL  =  1.00D-15
 THRORTH =  1.00D-08  GRID    =  1.00D-06  GRIDMAX =  1.00D-03  DTMAX   =  0.00D+00  THROCCDE=  1.00D-01  THROCCDE=  1.00D-01


 SETTING DKROLL         =         1.00000000                                  
 SETTING DKHO           =        10.00000000                                  
 SETTING DKHP           =         4.00000000                                  

 Variable memory set to 1000000000 words,  buffer space   230000 words

 SETTING BASIS          =    USERDEF
 SETTING ZR_CCSD        =     -3596.60717600                                  
 SETTING O_CCSD         =       -75.03694110                                  
 SETTING NE             =        48.00000000                                  
 SETTING SYMM           =         1.00000000                                  
 SETTING SS             =     0.00000000D+00                                  
 SETTING A1             =        13.00000000                                  
 SETTING B1             =         5.00000000                                  
 SETTING B2             =         5.00000000                                  
 SETTING A2             =         1.00000000                                  

Geometry recognized as XYZ



 Recomputing integrals since basis changed


 Using spherical harmonics



 PROGRAM * SEWARD (Integral evaluation for generally contracted gaussian basis sets)     Author: Roland Lindh, 1990

 Geometry written to block  1 of record 700


 Point group  C2v 



 ATOMIC COORDINATES

 NR  ATOM    CHARGE       X              Y              Z

   1  ZR     40.00    0.000000000    0.000000000    0.000000000
   2  O       8.00    0.000000000    0.000000000    2.834589187

 Bond lengths in Bohr (Angstrom)

 1-2  2.834589187
     ( 1.500000000)

 NUCLEAR CHARGE:                   48
 NUMBER OF PRIMITIVE AOS:         401
 NUMBER OF SYMMETRY AOS:          341
 NUMBER OF CONTRACTIONS:          341   ( 149A1  +  78B1  +  78B2  +  36A2  )
 NUMBER OF CORE ORBITALS:          19   (  10A1  +   4B1  +   4B2  +   1A2  )
 NUMBER OF VALENCE ORBITALS:       10   (   5A1  +   2B1  +   2B2  +   1A2  )


 NUCLEAR REPULSION ENERGY  112.89113833

 One-electron integrals computed with SEWARD

 10nd-order Douglas-Kroll-Hess method activated. McWeeny DKH parametrization is used.

 Computing Douglas-Kroll / X2C integrals

 AO integral compression algorithm  1   Integral accuracy      1.0D-15

     2058.093 MB (compressed) written to integral file ( 48.5%)

     Node minimum: 118.489 MB, node maximum: 335.282 MB


 NUMBER OF SORTED TWO-ELECTRON INTEGRALS:   39965826.     BUFFER LENGTH:  32768
 NUMBER OF SEGMENTS:   2  SEGMENT LENGTH:   31981512      RECORD LENGTH: 524288

 Memory used in sort:      32.54 MW

 SORT1 READ   530794036. AND WROTE    20088184. INTEGRALS IN     58 RECORDS. CPU TIME:     9.03 SEC, REAL TIME:    10.99 SEC
 SORT2 READ   219495670. AND WROTE   439765440. INTEGRALS IN   5401 RECORDS. CPU TIME:     0.99 SEC, REAL TIME:     2.05 SEC

 Node minimum:    39935592.  Node maximum:    40095769. integrals

 OPERATOR DM      FOR CENTER  0  COORDINATES:    0.000000    0.000000    0.000000

 EXTRA SYMMETRY OF AOS IN SYMMETRY 1:   1 1 1 1 1 1 1 1 1 1   1 1 1 1 1 1 1 1 1 1   1 1 1 1 1 1 1 1 1 1   1 1 1 1 1 1 1 1 1 1
                                        1 1 1 1 1 1 1 1 1 1   1 1 1 1 1 1 1 1 1 1   2 1 2 1 2 1 2 1 2 1   2 1 2 1 2 1 2 1 2 1
                                        2 1 2 1 2 1 2 1 2 1   2 1 2 1 2 1 2 1 2 1   2 1 2 1 2 1 2 1 3 2   1 3 2 1 3 2 1 1 1 1
                                        1 1 1 1 1 1 1 1 1 1   1 1 1 1 1 1 1 1 2 1   2 1 2 1 2 1 2 1 2
 EXTRA SYMMETRY OF AOS IN SYMMETRY 2:   1 1 1 1 1 1 1 1 1 1   1 1 1 1 1 1 1 1 1 1   1 1 1 1 1 1 1 1 1 1   1 1 1 1 1 1 1 1 1 1
                                        1 1 1 1 1 1 1 1 1 2   1 2 1 2 1 2 1 2 1 2   1 2 1 1 1 1 1 1 1 1   1 1 1 1 1 2 1 2
 EXTRA SYMMETRY OF AOS IN SYMMETRY 3:   1 1 1 1 1 1 1 1 1 1   1 1 1 1 1 1 1 1 1 1   1 1 1 1 1 1 1 1 1 1   1 1 1 1 1 1 1 1 1 1
                                        1 1 1 1 1 1 1 1 1 2   1 2 1 2 1 2 1 2 1 2   1 2 1 1 1 1 1 1 1 1   1 1 1 1 1 2 1 2
 EXTRA SYMMETRY OF AOS IN SYMMETRY 4:   1 1 1 1 1 1 1 1 1 1   1 1 1 1 1 1 1 1 1 1   1 1 1 1 1 2 1 2 1 2   1 1 1 1 1 1

 Eigenvalues of metric

         1 0.117E-07 0.821E-07 0.978E-07 0.113E-06 0.501E-06 0.101E-05 0.316E-05 0.694E-05
         2 0.122E-07 0.949E-07 0.117E-06 0.104E-05 0.804E-05 0.105E-04 0.356E-04 0.401E-04
         3 0.122E-07 0.949E-07 0.117E-06 0.104E-05 0.804E-05 0.105E-04 0.356E-04 0.401E-04
         4 0.978E-07 0.108E-04 0.404E-04 0.434E-03 0.212E-02 0.596E-02 0.165E-01 0.364E-01


 **********************************************************************************************************************************
 DATASETS  * FILE   NREC   LENGTH (MB)   RECORD NAMES
              1      22       22.36       500      610      700      900      950      970     1000      129      960     1700   
                                          VAR    BASINP    GEOM    SYMINP    ZMAT    AOBASIS   BASIS     P2S    ABASIS    OPER   
                                         1101     1401     1411     1412     1650     1100     1400     1410     1200     1210   
                                          SR      EKINR    POTR     PVPR    MOLCAS      S      EKIN      POT      H0       H01  
                                         1080     1600   
                                         AOSYM     SMH  

 PROGRAMS   *        TOTAL       INT
 CPU TIMES  *        65.75     65.51
 REAL TIME  *        70.60 SEC
 DISK USED  *         4.67 GB      
 GA USED    *         0.00 MB       (max)       0.00 MB       (current)
 **********************************************************************************************************************************


 PROGRAM * RHF-SCF (CLOSED SHELL)       Authors: W. Meyer, H.-J. Werner


 NUMBER OF ELECTRONS:      24+   24-    SPACE SYMMETRY=1    SPIN SYMMETRY: Singlet 
 CONVERGENCE THRESHOLDS:    1.00E-05 (Density)    1.00E-07 (Energy)
 MAX. NUMBER OF ITERATIONS:      200
 INTERPOLATION TYPE:            DIIS
 INTERPOLATION STEPS:              2 (START)      1 (STEP)
 LEVEL SHIFTS:                  0.00 (CLOSED)  0.00 (OPEN) 

 Number of closed-shell orbitals:   24 (  13   5   5   1 )


 Orbital guess generated from atomic densities. Full valence occupancy:   15   6   6   2

 Molecular orbital dump at record        2100.2

 ITERATION    DDIFF          GRAD             ENERGY        2-EL.EN.            DIPOLE MOMENTS         DIIS   ORB.
    1      0.000D+00      0.000D+00     -3670.85649350   2987.370640    0.00000    0.00000   -2.52216    0    start
    2      0.000D+00      0.111D-01     -3670.80335471   3034.249967    0.00000    0.00000    2.70446    1    diag
    3      0.733D-01      0.151D-01     -3671.19202567   3017.908768    0.00000    0.00000   -0.28291    2    diag
    4      0.320D-01      0.925D-03     -3671.19562884   3015.855193    0.00000    0.00000   -0.21073    3    diag
    5      0.311D-02      0.457D-03     -3671.19626245   3016.664654    0.00000    0.00000   -0.25976    4    diag
    6      0.119D-02      0.115D-03     -3671.19638413   3016.805500    0.00000    0.00000   -0.24892    5    diag
    7      0.460D-03      0.386D-04     -3671.19640631   3016.881847    0.00000    0.00000   -0.24526    6    diag
    8      0.269D-03      0.123D-04     -3671.19640795   3016.880365    0.00000    0.00000   -0.24299    7    diag
    9      0.758D-04      0.345D-05     -3671.19640805   3016.879512    0.00000    0.00000   -0.24191    8    diag
   10      0.222D-04      0.111D-05     -3671.19640806   3016.878150    0.00000    0.00000   -0.24143    9    orth
   11      0.103D-04      0.327D-06     -3671.19640806   3016.878142    0.00000    0.00000   -0.24130    9    diag
   12      0.246D-05      0.700D-07     -3671.19640806   3016.878128    0.00000    0.00000   -0.24131    0    orth

 Final occupancy:  13   5   5   1

 !RHF STATE 1.1 Energy              -3671.196408057515
 Nuclear energy                       112.89113833
 One-electron energy                -5292.52661059
 Two-electron energy                 1508.43906421
 Virial quotient                       -0.91282040
 !RHF STATE 1.1 Dipole moment           0.00000000     0.00000000    -0.24130986
 Dipole moment /Debye                   0.00000000     0.00000000    -0.61330830

 ELECTRON ORBITALS
 =================


   Orb  Occ    Energy  Couls-En    Coefficients

                                   1 1s      1 1s      1 1s      1 1s      1 1s      1 1s      1 1s      1 1s      1 1s      1 1s   
                                   1 1s      1 1s      1 1s      1 1s      1 1s      1 1s      1 1s      1 1s      1 1s      1 1s   
                                   1 1s      1 1s      1 1s      1 1s      1 1s      1 1s      1 1s      1 1s      1 1s      1 1s   
                                   1 1s      1 2pz     1 2pz     1 2pz     1 2pz     1 2pz     1 2pz     1 2pz     1 2pz     1 2pz  
                                   1 2pz     1 2pz     1 2pz     1 2pz     1 2pz     1 2pz     1 2pz     1 2pz     1 2pz     1 2pz  
                                   1 2pz     1 2pz     1 2pz     1 2pz     1 2pz     1 2pz     1 2pz     1 2pz     1 2pz     1 3d0  
                                   1 3d2+    1 3d0     1 3d2+    1 3d0     1 3d2+    1 3d0     1 3d2+    1 3d0     1 3d2+    1 3d0  
                                   1 3d2+    1 3d0     1 3d2+    1 3d0     1 3d2+    1 3d0     1 3d2+    1 3d0     1 3d2+    1 3d0  
                                   1 3d2+    1 3d0     1 3d2+    1 3d0     1 3d2+    1 3d0     1 3d2+    1 3d0     1 3d2+    1 3d0  
                                   1 3d2+    1 3d0     1 3d2+    1 3d0     1 3d2+    1 3d0     1 3d2+    1 3d0     1 3d2+    1 4f0  
                                   1 4f2+    1 4f0     1 4f2+    1 4f0     1 4f2+    1 4f0     1 4f2+    1 5g0     1 5g4+    1 5g2+ 
                                   1 5g0     1 5g4+    1 5g2+    1 5g0     1 5g4+    1 5g2+    2 1s      2 1s      2 1s      2 1s   
                                   2 1s      2 1s      2 1s      2 1s      2 1s      2 1s      2 1s      2 1s      2 1s      2 2pz  
                                   2 2pz     2 2pz     2 2pz     2 2pz     2 2pz     2 2pz     2 2pz     2 3d0     2 3d2+    2 3d0  
                                   2 3d2+    2 3d0     2 3d2+    2 3d0     2 3d2+    2 4f0     2 4f2+    2 4f0     2 4f2+ 

   1.1   2  -665.1221-1485.5641  0.000042  0.000111  0.000306  0.000707  0.001535  0.003175  0.006516  0.013482  0.028412  0.060272
                                 0.123434  0.225418  0.318989  0.279037 -0.004787  0.105662  0.006280  0.002713 -0.003379  0.004450
                                -0.004770  0.003887 -0.005201  0.003979 -0.000344  0.000154 -0.000109  0.000035 -0.000050  0.000008
                                -0.000002  0.000000  0.000000  0.000000  0.000000  0.000000  0.000000  0.000000  0.000000  0.000002
                                 0.000002  0.000001 -0.000006  0.000011 -0.000022  0.000058 -0.000106  0.000117 -0.000105  0.000240
                                -0.000327  0.000196 -0.000078  0.000092 -0.000084 -0.000006 -0.000018  0.000001 -0.000000 -0.000000
                                -0.000000 -0.000000  0.000000 -0.000001 -0.000000 -0.000000  0.000000  0.000000 -0.000000 -0.000001
                                 0.000000  0.000001 -0.000000 -0.000001  0.000000  0.000001 -0.000000 -0.000005  0.000000  0.000036
                                -0.000000 -0.000109  0.000000  0.000346 -0.000000 -0.000329  0.000000  0.000068 -0.000000 -0.000018
                                 0.000000  0.000003 -0.000000 -0.000006  0.000000 -0.000001 -0.000000  0.000000  0.000000 -0.000000
                                -0.000000  0.000000 -0.000000 -0.000004 -0.000000 -0.000001 -0.000000  0.000000  0.000000  0.000000
                                -0.000000 -0.000000 -0.000000 -0.000001 -0.000000  0.000000 -0.000000  0.000000 -0.000000  0.000000
                                -0.000000  0.000005  0.000011  0.000006 -0.000007  0.000029  0.000038 -0.000011 -0.000008  0.000000
                                 0.000000  0.000000  0.000001 -0.000016 -0.000005 -0.000000 -0.000000  0.000000  0.000000 -0.000000
                                -0.000000  0.000003  0.000000 -0.000000 -0.000000 -0.000001 -0.000000  0.000000 -0.000000

   2.1   2   -94.8479 -300.9345 -0.000014 -0.000036 -0.000101 -0.000234 -0.000508 -0.001055 -0.002177 -0.004544 -0.009722 -0.021200
                                -0.045700 -0.092288 -0.158110 -0.186362  0.004617 -0.034322  0.360997  0.542743  0.231057  0.018527
                                 0.011030  0.001431 -0.004823  0.004329 -0.000640  0.000262 -0.000222  0.000069 -0.000104  0.000016
                                -0.000003  0.000000  0.000000  0.000000  0.000001  0.000004  0.000013  0.000040  0.000108  0.000237
                                 0.000395  0.000502  0.000369 -0.000028  0.000029  0.000123 -0.000234  0.000257 -0.000214  0.000469
                                -0.000622  0.000370 -0.000144  0.000191 -0.000181 -0.000011 -0.000038  0.000002 -0.000000 -0.000000
                                -0.000000 -0.000000  0.000000  0.000000 -0.000000 -0.000004  0.000000 -0.000011 -0.000000 -0.000002
                                 0.000000 -0.000003 -0.000000  0.000001  0.000000  0.000000 -0.000000 -0.000007  0.000000  0.000052
                                -0.000000 -0.000172  0.000000  0.000576 -0.000000 -0.000558  0.000000  0.000120 -0.000000 -0.000039
                                 0.000000  0.000008 -0.000000 -0.000013  0.000000 -0.000001 -0.000000  0.000000 -0.000000  0.000004
                                 0.000000 -0.000001 -0.000000 -0.000007  0.000000 -0.000002 -0.000000 -0.000001 -0.000000 -0.000000
                                -0.000000 -0.000000  0.000000 -0.000001  0.000000  0.000000 -0.000000  0.000000 -0.000000  0.000000
                                -0.000001  0.000007  0.000018  0.000010 -0.000011  0.000063  0.000081 -0.000017 -0.000013  0.000000
                                 0.000000  0.000001 -0.000000 -0.000036 -0.000012 -0.000000 -0.000000  0.000000  0.000000 -0.000001
                                -0.000000  0.000007 -0.000000 -0.000000 -0.000000 -0.000001 -0.000000  0.000001 -0.000000

   3.1   2   -84.3775 -286.7284  0.000000  0.000000  0.000000  0.000000  0.000001  0.000002  0.000003  0.000007  0.000014  0.000031
                                 0.000066  0.000134  0.000230  0.000272 -0.000005  0.000040 -0.000567 -0.000735 -0.000295 -0.000057
                                -0.000052  0.000036 -0.000107  0.000115 -0.000004  0.000011 -0.000062 -0.000001 -0.000002 -0.000004
                                 0.000001  0.000014  0.000054  0.000210  0.000776  0.002803  0.009566  0.029702  0.080893  0.181360
                                 0.307735  0.343373  0.167425  0.035841 -0.004823  0.086881 -0.113810  0.095591 -0.053067  0.063422
                                -0.062172  0.023717 -0.004813  0.002023 -0.001438  0.000143 -0.000030  0.000008 -0.000002  0.000000
                                 0.000000  0.000001  0.000000  0.000005  0.000000  0.000024  0.000000  0.000086  0.000000  0.000095
                                 0.000000 -0.000019 -0.000000  0.000010  0.000000  0.000011 -0.000000 -0.000041  0.000000  0.000256
                                -0.000000 -0.000623  0.000000  0.001494 -0.000000 -0.001267  0.000000  0.000189 -0.000000 -0.000029
                                 0.000000  0.000013 -0.000000  0.000005  0.000000 -0.000003 -0.000000  0.000001  0.000000 -0.000008
                                -0.000000 -0.000002  0.000000  0.000002 -0.000000  0.000001 -0.000000 -0.000001 -0.000000  0.000000
                                 0.000001 -0.000000  0.000000  0.000001  0.000000 -0.000000  0.000000  0.000000 -0.000000  0.000000
                                -0.000000  0.000005  0.000009  0.000005 -0.000020  0.000037  0.000021 -0.000006 -0.000008 -0.000000
                                -0.000004  0.000003  0.000008 -0.000045 -0.000004  0.000004  0.000000 -0.000001  0.000000  0.000003
                                -0.000000  0.000017  0.000000  0.000000  0.000000  0.000002  0.000000 -0.000006  0.000000

   4.1   2   -20.6008  -66.6622  0.000000  0.000000  0.000000  0.000000  0.000000  0.000000 -0.000000  0.000000 -0.000000  0.000001
                                -0.000002  0.000007 -0.000022  0.000149 -0.000487  0.000539 -0.000449  0.000848 -0.002882  0.007035
                                -0.013926  0.019643 -0.054843  0.051102 -0.012596  0.014636 -0.014105 -0.013257 -0.005670 -0.000564
                                 0.000204  0.000000 -0.000000  0.000000 -0.000000  0.000000 -0.000000  0.000001 -0.000003  0.000010
                                -0.000034  0.000171 -0.003333  0.005426 -0.009485  0.022761 -0.038993  0.039451 -0.030158  0.056862
                                -0.072713  0.041633 -0.017751  0.031005 -0.028996 -0.010951 -0.004635  0.000054  0.000033  0.000000
                                 0.000000 -0.000000 -0.000000 -0.000000  0.000000 -0.000003  0.000000  0.000003 -0.000000 -0.000129
                                 0.000000  0.000146 -0.000000 -0.000073  0.000000  0.000027 -0.000000  0.000179  0.000000 -0.000959
                                -0.000000 -0.000251  0.000000  0.013499 -0.000000 -0.018163  0.000000  0.007551 -0.000000 -0.001835
                                 0.000000 -0.006661 -0.000000 -0.001657 -0.000000 -0.000265 -0.000000  0.000073 -0.000000  0.000006
                                -0.000000  0.000860 -0.000000 -0.002909  0.000000 -0.000349  0.000000  0.000190  0.000000 -0.000000
                                 0.000179  0.000000  0.000000 -0.000645  0.000000  0.000000  0.000743  0.004237  0.020733  0.079660
                                 0.231719  0.426227  0.339249  0.045637 -0.015327  0.026866  0.012025  0.005318  0.010798 -0.000017
                                 0.000170 -0.000944  0.001520 -0.010010 -0.001680 -0.000518 -0.000025  0.000238 -0.000000 -0.000833
                                -0.000000  0.001631  0.000000  0.000017 -0.000000  0.000051 -0.000000  0.000320 -0.000000

   5.1   2   -16.7377 -102.5006  0.000006  0.000015  0.000042  0.000097  0.000212  0.000440  0.000908  0.001900  0.004069  0.008915
                                 0.019332  0.039665  0.069684  0.087569 -0.006099  0.020239 -0.235502 -0.479415 -0.253238  0.245735
                                 0.404298  0.490450  0.250297 -0.024818  0.015117 -0.002455  0.001479 -0.000794  0.000627 -0.000120
                                 0.000029 -0.000000 -0.000000 -0.000001 -0.000003 -0.000009 -0.000032 -0.000100 -0.000281 -0.000651
                                -0.001160 -0.001359 -0.000375  0.000282  0.002106  0.000388  0.003168  0.000468  0.002681 -0.000971
                                 0.001969 -0.001425  0.000864 -0.001246  0.000648  0.000003  0.000184  0.000002 -0.000000 -0.000000
                                -0.000000 -0.000001  0.000000 -0.000005 -0.000000 -0.000018  0.000000 -0.000054 -0.000000 -0.000128
                                 0.000000 -0.000018 -0.000000 -0.000218  0.000000 -0.000185  0.000000 -0.000080 -0.000000 -0.000603
                                 0.000000  0.001710 -0.000000 -0.006016  0.000000  0.006174 -0.000000 -0.001552  0.000000  0.000065
                                 0.000000  0.000003 -0.000000  0.000083  0.000000  0.000019 -0.000000 -0.000002  0.000000  0.000108
                                 0.000000 -0.000191 -0.000000  0.000050 -0.000000  0.000027 -0.000000  0.000007 -0.000000 -0.000000
                                -0.000039 -0.000000  0.000000  0.000030  0.000000 -0.000000 -0.000000 -0.000000 -0.000001 -0.000003
                                -0.000007 -0.000048 -0.000130 -0.000154  0.000254 -0.000007 -0.000251  0.000136  0.000063 -0.000002
                                -0.000024  0.000003 -0.000234 -0.000077 -0.000015  0.000013  0.000000  0.000017 -0.000000  0.000097
                                -0.000000  0.000019  0.000000 -0.000000  0.000000 -0.000005  0.000000 -0.000004 -0.000000

   6.1   2   -13.2168  -95.9828 -0.000000 -0.000000 -0.000000 -0.000001 -0.000002 -0.000004 -0.000007 -0.000016 -0.000033 -0.000073
                                -0.000158 -0.000324 -0.000570 -0.000720  0.000054 -0.000167  0.001986  0.003919  0.001990 -0.001842
                                -0.004022 -0.004069 -0.000108 -0.000912  0.000030 -0.001015  0.001786 -0.000342  0.000325 -0.000057
                                 0.000006 -0.000006 -0.000023 -0.000090 -0.000333 -0.001207 -0.004152 -0.013040 -0.036483 -0.084882
                                -0.152458 -0.171687 -0.013933  0.012067  0.285195  0.032487  0.433947  0.027971  0.292836 -0.056817
                                 0.127400 -0.039491  0.011945 -0.005929  0.005453 -0.000553  0.000122 -0.000045  0.000008  0.000000
                                -0.000000  0.000003 -0.000000  0.000019 -0.000000  0.000073 -0.000000  0.000192 -0.000000  0.000425
                                -0.000000  0.000107  0.000000  0.000960 -0.000000  0.001419 -0.000000  0.001630  0.000000 -0.001460
                                -0.000000  0.002193  0.000000 -0.002195  0.000000  0.001092 -0.000000  0.000010  0.000000  0.000646
                                 0.000000 -0.000338 -0.000000 -0.000019  0.000000 -0.000008  0.000000 -0.000003  0.000000 -0.000278
                                -0.000000  0.000292  0.000000 -0.000032 -0.000000 -0.000030  0.000000  0.000057  0.000000  0.000000
                                 0.000031 -0.000000  0.000000 -0.000031 -0.000000 -0.000000 -0.000000 -0.000000 -0.000002 -0.000007
                                -0.000022 -0.000035 -0.000009  0.000035  0.000036 -0.000568 -0.000341 -0.000040 -0.000020 -0.000000
                                 0.000008 -0.000079 -0.000010  0.000592  0.000129 -0.000024 -0.000002  0.000022  0.000000  0.000046
                                -0.000000 -0.000184  0.000000  0.000001 -0.000000 -0.000046  0.000000 -0.000025  0.000000

   7.1   2    -7.4440  -85.6358  0.000000  0.000000  0.000000  0.000000  0.000000  0.000000  0.000001  0.000001  0.000002  0.000005
                                 0.000011  0.000022  0.000043  0.000031  0.000061 -0.000061 -0.000065 -0.000368  0.000238 -0.001090
                                 0.002422 -0.003232  0.014966 -0.014229  0.002518  0.001461 -0.007597 -0.000417 -0.003637  0.000393
                                -0.000032  0.000000  0.000000  0.000000  0.000002  0.000006  0.000019  0.000061  0.000171  0.000402
                                 0.000720  0.000838 -0.000752  0.001103 -0.003858  0.005680 -0.014126  0.013530 -0.013934  0.033695
                                -0.043245  0.022980 -0.005299  0.005317 -0.009334 -0.000827 -0.001529  0.000194 -0.000014  0.000165
                                 0.000000  0.001479  0.000000  0.008698  0.000000  0.034324  0.000000  0.100479  0.000000  0.221174
                                 0.000000 -0.003587 -0.000000  0.327739  0.000000  0.332241  0.000000  0.202961  0.000000 -0.034795
                                -0.000000  0.105676  0.000000 -0.098673 -0.000000  0.073945  0.000000 -0.007055  0.000000 -0.002243
                                -0.000000  0.000556  0.000000 -0.000311 -0.000000  0.000030  0.000000  0.000030 -0.000000  0.001430
                                 0.000000 -0.001744 -0.000000 -0.000095  0.000000  0.000105 -0.000000 -0.000227 -0.000000 -0.000000
                                -0.000389  0.000000  0.000000  0.000168  0.000000  0.000000 -0.000000 -0.000001 -0.000007 -0.000026
                                -0.000081 -0.000155 -0.000207 -0.000470  0.001564  0.005145  0.004667  0.000110 -0.000026 -0.000019
                                -0.000161 -0.000098 -0.002186 -0.003842 -0.001169  0.000044 -0.000000  0.000221 -0.000000  0.000875
                                 0.000000  0.000799 -0.000000 -0.000007  0.000000 -0.000161 -0.000000  0.000009 -0.000000

   8.1   2    -7.4399  -85.5304  0.000000  0.000000  0.000000 -0.000000  0.000000  0.000000 -0.000000  0.000000  0.000000  0.000000
                                -0.000000  0.000000 -0.000000  0.000000 -0.000000  0.000000 -0.000000  0.000000 -0.000000  0.000000
                                -0.000000  0.000000 -0.000000  0.000000 -0.000000 -0.000000  0.000000  0.000000  0.000000  0.000000
                                -0.000000 -0.000000  0.000000 -0.000000 -0.000000 -0.000000 -0.000000 -0.000000 -0.000000 -0.000000
                                -0.000000 -0.000000  0.000000 -0.000000  0.000000 -0.000000  0.000000 -0.000000  0.000000 -0.000000
                                 0.000000 -0.000000  0.000000 -0.000000  0.000000  0.000000  0.000000 -0.000000  0.000000 -0.000000
                                 0.000165 -0.000000  0.001476 -0.000000  0.008683 -0.000000  0.034262 -0.000000  0.100296 -0.000000
                                 0.220770  0.000000 -0.003561 -0.000000  0.327265 -0.000000  0.332081 -0.000000  0.203863  0.000000
                                -0.036186 -0.000000  0.111627  0.000000 -0.108135 -0.000000  0.078263  0.000000 -0.004860  0.000000
                                 0.000434  0.000000 -0.000169 -0.000000  0.000032  0.000000 -0.000010 -0.000000  0.000002 -0.000000
                                 0.000717  0.000000 -0.000417  0.000000  0.000142 -0.000000 -0.000035  0.000000  0.000000 -0.000159
                                 0.000000  0.000000 -0.000026 -0.000000 -0.000000  0.000020  0.000000  0.000000  0.000000  0.000000
                                 0.000000  0.000000  0.000000  0.000000 -0.000000 -0.000000 -0.000000 -0.000000 -0.000000  0.000000
                                 0.000000  0.000000  0.000000  0.000000  0.000000 -0.000000 -0.000000 -0.000000 -0.000003 -0.000000
                                 0.000048 -0.000000 -0.000048  0.000000  0.000001  0.000000 -0.000011  0.000000 -0.000052

   9.1   2    -2.5833  -40.5607 -0.000002 -0.000006 -0.000016 -0.000036 -0.000079 -0.000164 -0.000338 -0.000709 -0.001516 -0.003332
                                -0.007212 -0.014900 -0.026098 -0.034153  0.005317 -0.011089  0.097686  0.200130  0.129695 -0.167428
                                -0.156541 -0.582900 -0.006882 -0.139242  0.797061  0.519671 -0.035773  0.017000 -0.046077  0.006378
                                -0.001124  0.000000  0.000000  0.000001  0.000005  0.000018  0.000062  0.000196  0.000544  0.001294
                                 0.002275  0.002870 -0.004839  0.007799 -0.021561  0.042600 -0.095393  0.102368 -0.111296  0.264289
                                -0.343589  0.197307 -0.034824  0.019332 -0.027502 -0.014366 -0.016164  0.000734  0.000067 -0.000000
                                -0.000000 -0.000002 -0.000000 -0.000013 -0.000000 -0.000056 -0.000000 -0.000148 -0.000000 -0.000522
                                 0.000000  0.000245 -0.000000 -0.000639 -0.000000 -0.000189 -0.000000 -0.003885  0.000000  0.028264
                                -0.000000 -0.081240 -0.000000  0.188451  0.000000 -0.144789 -0.000000  0.005915  0.000000 -0.004291
                                -0.000000 -0.004490  0.000000 -0.003994 -0.000000 -0.000885  0.000000  0.000369 -0.000000  0.001332
                                -0.000000 -0.002390 -0.000000 -0.001403  0.000000 -0.000285  0.000000  0.001049  0.000000  0.000000
                                 0.000156 -0.000000  0.000000  0.000274  0.000000  0.000000 -0.000018 -0.000102 -0.000505 -0.001971
                                -0.006258 -0.012546 -0.013070  0.014351  0.050297  0.051361  0.044184 -0.004067 -0.002987 -0.000784
                                -0.005468 -0.018419 -0.035553 -0.030444 -0.008133 -0.000843 -0.000169  0.003460 -0.000000  0.012234
                                 0.000000  0.005929 -0.000000  0.000157  0.000000 -0.002291 -0.000000 -0.002654  0.000000

  10.1   2    -1.7334  -33.3439  0.000000  0.000001  0.000002  0.000005  0.000012  0.000025  0.000051  0.000106  0.000227  0.000497
                                 0.001082  0.002216  0.003948  0.004833  0.000128  0.000630 -0.013803 -0.031874 -0.013188  0.008448
                                 0.061336  0.032614  0.202115 -0.175303 -0.081529 -0.120925 -0.056419 -0.048948 -0.034002 -0.000831
                                 0.000944  0.000002  0.000006  0.000025  0.000093  0.000338  0.001163  0.003658  0.010282  0.024048
                                 0.043668  0.049091  0.000694 -0.008542 -0.097806 -0.028707 -0.145523 -0.043365 -0.108141  0.108408
                                 0.008490  0.124877  0.401706  0.228990 -0.011279 -0.009538 -0.019234  0.001230  0.000168 -0.000004
                                 0.000000 -0.000040  0.000000 -0.000236  0.000000 -0.000935  0.000000 -0.002750  0.000000 -0.006128
                                -0.000000  0.000133  0.000000 -0.008979  0.000000 -0.008130  0.000000 -0.006993 -0.000000  0.045125
                                 0.000000 -0.106402 -0.000000  0.248003  0.000000 -0.161639 -0.000000  0.013329 -0.000000  0.011600
                                -0.000000 -0.018944  0.000000 -0.000920 -0.000000 -0.001399 -0.000000  0.000709  0.000000  0.007915
                                 0.000000  0.003991  0.000000  0.001054  0.000000  0.000682 -0.000000  0.003035 -0.000000  0.000000
                                -0.000246  0.000000  0.000000  0.001736 -0.000000  0.000000 -0.000080 -0.000454 -0.002250 -0.008819
                                -0.027975 -0.057883 -0.064682  0.072511  0.251613  0.194488  0.071453 -0.014347 -0.011143 -0.002379
                                -0.016958 -0.057097 -0.104906 -0.083732 -0.015857 -0.002290 -0.000494  0.006984  0.000000  0.027393
                                 0.000000  0.015169 -0.000000  0.000351  0.000000 -0.004124 -0.000000 -0.005656  0.000000

  11.1   2    -1.1387  -25.6240  0.000000  0.000001  0.000002  0.000005  0.000012  0.000024  0.000049  0.000104  0.000221  0.000489
                                 0.001052  0.002192  0.003784  0.005248 -0.001580  0.002517 -0.015146 -0.028244 -0.024506  0.038410
                                -0.003323  0.134911 -0.123540  0.140696 -0.194288 -0.053844 -0.045341 -0.051354  0.011226 -0.008205
                                 0.002129 -0.000001 -0.000004 -0.000017 -0.000065 -0.000235 -0.000810 -0.002544 -0.007164 -0.016722
                                -0.030500 -0.033802 -0.008859  0.020338  0.040785  0.096945 -0.049878  0.214830 -0.108937  0.381823
                                -0.642018  0.260987 -0.422142 -0.036215 -0.164598 -0.062557 -0.000044 -0.002785  0.000819 -0.000009
                                 0.000000 -0.000081 -0.000000 -0.000475  0.000000 -0.001896 -0.000000 -0.005551  0.000000 -0.012994
                                -0.000000  0.001061  0.000000 -0.018199 -0.000000 -0.015586  0.000000 -0.006251 -0.000000  0.047379
                                 0.000000 -0.108565 -0.000000  0.481317  0.000000 -0.474728 -0.000000  0.187569  0.000000  0.031958
                                -0.000000 -0.022736  0.000000  0.005748 -0.000000 -0.001585  0.000000  0.000361 -0.000000  0.009529
                                -0.000000  0.016317 -0.000000 -0.004373 -0.000000  0.000504 -0.000000  0.001724  0.000000  0.000000
                                 0.001432  0.000000  0.000000 -0.000850 -0.000000 -0.000000 -0.000144 -0.000819 -0.004062 -0.015925
                                -0.050659 -0.104987 -0.118025  0.148015  0.485337  0.457614  0.045227 -0.028685 -0.021185  0.001035
                                 0.007131  0.030708  0.032066 -0.045140 -0.005514  0.001856  0.000260 -0.001812  0.000000 -0.001314
                                 0.000000  0.010972  0.000000 -0.000148  0.000000  0.000352  0.000000  0.001650 -0.000000

  12.1   2    -0.5476  -23.6060 -0.000000 -0.000001 -0.000002 -0.000004 -0.000009 -0.000019 -0.000039 -0.000081 -0.000174 -0.000378
                                -0.000831 -0.001681 -0.003063 -0.003419 -0.001027  0.000551  0.009734  0.026458  0.003898  0.010043
                                -0.086158  0.030525 -0.363922  0.335356  0.050588  0.151244  0.042828 -0.004869 -0.042283 -0.005291
                                -0.000242  0.000001  0.000002  0.000008  0.000028  0.000102  0.000351  0.001105  0.003107  0.007276
                                 0.013210  0.014917 -0.000613 -0.001859 -0.029393 -0.019590 -0.004070 -0.092612  0.094176 -0.405646
                                 0.643266 -0.293512  0.199287  0.145412  0.009439  0.028290 -0.045297 -0.003396 -0.000291  0.000025
                                 0.000000  0.000224  0.000000  0.001322  0.000000  0.005248  0.000000  0.015472 -0.000000  0.034921
                                 0.000000 -0.001444 -0.000000  0.049909  0.000000  0.043976 -0.000000  0.017984  0.000000 -0.174368
                                -0.000000  0.405308  0.000000 -1.453676 -0.000000  1.297333  0.000000 -0.437821 -0.000000 -0.147085
                                 0.000000 -0.046442 -0.000000 -0.056582 -0.000000 -0.001717 -0.000000 -0.001719 -0.000000 -0.022562
                                 0.000000 -0.024128  0.000000 -0.035255  0.000000 -0.010419  0.000000 -0.004567  0.000000 -0.000000
                                 0.000194 -0.000000 -0.000000 -0.010992  0.000000 -0.000000 -0.000010 -0.000054 -0.000275 -0.001048
                                -0.003532 -0.005208 -0.000259  0.027533  0.015193  0.161821  0.104375 -0.012340 -0.005562  0.010022
                                 0.073496  0.252608  0.416232  0.283019  0.036908  0.008886  0.002016 -0.008424  0.000000 -0.036964
                                -0.000000 -0.022991  0.000000 -0.000354 -0.000000  0.005544  0.000000  0.008606 -0.000000

  13.1   2    -0.2252  -14.3104  0.000001  0.000002  0.000004  0.000010  0.000022  0.000045  0.000093  0.000196  0.000419  0.000921
                                 0.001993  0.004119  0.007220  0.009463 -0.001483  0.003087 -0.027306 -0.056441 -0.036704  0.047655
                                 0.048713  0.182314  0.015981  0.027315 -0.323823 -0.385290  0.004012  0.282644  0.615367  0.262457
                                -0.001929  0.000000  0.000000  0.000002  0.000006  0.000022  0.000076  0.000238  0.000672  0.001564
                                 0.002872  0.003108  0.001929 -0.003813 -0.000261 -0.018542  0.021825 -0.039040  0.025460 -0.059074
                                 0.084230 -0.030966  0.041557  0.053781 -0.016562 -0.065647 -0.139824 -0.048337  0.001315  0.000006
                                 0.000000  0.000054  0.000000  0.000314  0.000000  0.001265  0.000000  0.003651  0.000000  0.009210
                                 0.000000 -0.001438 -0.000000  0.012483  0.000000  0.009548  0.000000  0.008302  0.000000 -0.062064
                                -0.000000  0.147744  0.000000 -0.518759 -0.000000  0.490964  0.000000 -0.157904 -0.000000 -0.038292
                                -0.000000 -0.057062 -0.000000 -0.053656 -0.000000 -0.013507 -0.000000 -0.001913  0.000000 -0.000141
                                -0.000000  0.001808  0.000000  0.003571  0.000000  0.000920 -0.000000  0.000454  0.000000 -0.000000
                                 0.000941 -0.000000 -0.000000  0.001666  0.000000  0.000000  0.000010  0.000060  0.000297  0.001159
                                 0.003728  0.007425  0.007629 -0.013594 -0.040820 -0.049469 -0.041678  0.003698  0.002249 -0.001323
                                -0.009774 -0.033599 -0.052826 -0.057615 -0.018138 -0.001103 -0.000261 -0.002236 -0.000000 -0.007104
                                 0.000000 -0.000793 -0.000000 -0.000148  0.000000  0.001179 -0.000000  0.001016  0.000000

  14.1   0     0.0210   -4.6297  0.000000  0.000000  0.000001  0.000002  0.000004  0.000008  0.000016  0.000033  0.000069  0.000157
                                 0.000328  0.000712  0.001140  0.002041 -0.001747  0.002181 -0.005979 -0.006724 -0.015820  0.032622
                                -0.043658  0.109200 -0.243424  0.240122 -0.115309  0.007556 -0.152992  0.471357  0.731472  0.675483
                                -0.717612 -0.000000 -0.000000 -0.000001 -0.000005 -0.000019 -0.000059 -0.000215 -0.000507 -0.001486
                                -0.001756 -0.005850  0.066135 -0.109378  0.215781 -0.552378  1.072980 -1.219705  1.153165 -2.661088
                                 3.562470 -2.099593  0.801224 -1.197220  1.159442 -0.294885  1.030332 -0.796850  1.332251  0.000001
                                 0.000000  0.000010  0.000000  0.000052  0.000000  0.000235  0.000000  0.000562  0.000000  0.002920
                                 0.000000 -0.001930 -0.000000  0.003091  0.000000 -0.000113  0.000000  0.014242  0.000000 -0.101264
                                -0.000000  0.304619  0.000000 -0.999644 -0.000000  0.972034  0.000000 -0.231556 -0.000000  0.100746
                                -0.000000 -0.092333 -0.000000  0.151161 -0.000000 -0.044613 -0.000000 -0.141020 -0.000000  0.000885
                                -0.000000  0.000912 -0.000000  0.016938  0.000000  0.006254  0.000000 -0.000011  0.000000  0.000000
                                 0.001836 -0.000000  0.000000  0.001780  0.000000 -0.000000  0.000003  0.000019  0.000097  0.000377
                                 0.001220  0.002337  0.001964 -0.005046 -0.015003 -0.075860 -1.200603  0.002035  0.000934 -0.000851
                                -0.006414 -0.021241 -0.035118  0.024961  0.300511 -0.000537 -0.000159 -0.001338 -0.000000  0.000440
                                -0.000000 -0.011601 -0.000000 -0.000022 -0.000000  0.000970  0.000000 -0.002346  0.000000

  15.1   0     0.0222   -4.5321 -0.000000 -0.000000 -0.000001 -0.000002 -0.000004 -0.000008 -0.000016 -0.000035 -0.000069 -0.000169
                                -0.000316 -0.000798 -0.000945 -0.003531  0.006532 -0.007503  0.010573 -0.001835  0.047072 -0.112561
                                 0.213169 -0.370433  1.087741 -1.058007  0.348468 -0.344819  0.774952 -1.631228  3.273499 -3.252160
                                 2.566149 -0.000000 -0.000000 -0.000000 -0.000002 -0.000006 -0.000019 -0.000059 -0.000172 -0.000388
                                -0.000748 -0.000666 -0.002998  0.005141 -0.008004  0.026258 -0.047905  0.060070 -0.056523  0.138929
                                -0.187412  0.096136 -0.025546 -0.100336  0.122519 -0.174036  0.762094 -0.402495  0.433838 -0.000002
                                -0.000000 -0.000017 -0.000000 -0.000106 -0.000000 -0.000404 -0.000000 -0.001261 -0.000000 -0.001974
                                -0.000000 -0.000876 -0.000000 -0.003389 -0.000000 -0.004492 -0.000000  0.006069  0.000000 -0.036808
                                -0.000000  0.122303  0.000000 -0.397489 -0.000000  0.410495  0.000000 -0.099294 -0.000000  0.134609
                                 0.000000 -0.191531 -0.000000  0.213790  0.000000 -0.080838 -0.000000 -0.067310  0.000000  0.000285
                                 0.000000 -0.002402 -0.000000 -0.024953 -0.000000 -0.005161  0.000000 -0.000191  0.000000 -0.000000
                                -0.001444 -0.000000  0.000000 -0.011745  0.000000 -0.000000  0.000002  0.000012  0.000049  0.000261
                                 0.000437  0.005541  0.017102  0.014267 -0.043468  0.205226 -1.136809 -0.017618 -0.008193 -0.000119
                                -0.001054 -0.001413 -0.005681 -0.046668  0.414129  0.000265 -0.000002  0.000621  0.000000  0.006653
                                 0.000000 -0.001570 -0.000000  0.000040  0.000000 -0.000779 -0.000000 -0.002691 -0.000000

                                   1 2px     1 2px     1 2px     1 2px     1 2px     1 2px     1 2px     1 2px     1 2px     1 2px  
                                   1 2px     1 2px     1 2px     1 2px     1 2px     1 2px     1 2px     1 2px     1 2px     1 2px  
                                   1 2px     1 2px     1 2px     1 2px     1 2px     1 2px     1 2px     1 2px     1 3d1+    1 3d1+ 
                                   1 3d1+    1 3d1+    1 3d1+    1 3d1+    1 3d1+    1 3d1+    1 3d1+    1 3d1+    1 3d1+    1 3d1+ 
                                   1 3d1+    1 3d1+    1 3d1+    1 3d1+    1 3d1+    1 3d1+    1 3d1+    1 3d1+    1 4f1+    1 4f3+ 
                                   1 4f1+    1 4f3+    1 4f1+    1 4f3+    1 4f1+    1 4f3+    1 5g1+    1 5g3+    1 5g1+    1 5g3+ 
                                   1 5g1+    1 5g3+    2 2px     2 2px     2 2px     2 2px     2 2px     2 2px     2 2px     2 2px  
                                   2 3d1+    2 3d1+    2 3d1+    2 3d1+    2 4f1+    2 4f3+    2 4f1+    2 4f3+ 

   1.2   2   -84.3791 -286.7252  0.000014  0.000054  0.000210  0.000776  0.002803  0.009566  0.029702  0.080893  0.181359  0.307738
                                 0.343374  0.167514  0.035693 -0.004559  0.086216 -0.112624  0.094327 -0.052035  0.061494 -0.059871
                                 0.022589 -0.004483  0.001805 -0.001240  0.000123 -0.000035  0.000008 -0.000002  0.000000  0.000001
                                 0.000003  0.000014  0.000057  0.000079 -0.000016  0.000022  0.000000 -0.000003  0.000015 -0.000049
                                 0.000142 -0.000130  0.000023 -0.000003 -0.000003 -0.000003 -0.000003  0.000000  0.000002 -0.000000
                                 0.000001  0.000000 -0.000003 -0.000000 -0.000002  0.000000  0.000001  0.000000 -0.000000 -0.000000
                                -0.000001  0.000000 -0.000000 -0.000001 -0.000001 -0.000003  0.000006  0.000009  0.000000  0.000000
                                -0.000000  0.000001 -0.000003  0.000000  0.000000 -0.000000 -0.000000 -0.000000

   2.2   2   -13.2236  -95.9352 -0.000006 -0.000023 -0.000090 -0.000333 -0.001207 -0.004151 -0.013038 -0.036478 -0.084868 -0.152438
                                -0.171662 -0.014157  0.012417  0.284541  0.034071  0.431005  0.030886  0.290345 -0.052372  0.122980
                                -0.037498  0.011356 -0.004075  0.002968 -0.000354  0.000119 -0.000014  0.000005  0.000000  0.000004
                                 0.000022  0.000084  0.000230  0.000532  0.000060  0.001023  0.001203  0.000871 -0.000227  0.000193
                                 0.000579 -0.000757  0.000227  0.000012  0.000004  0.000021  0.000022 -0.000002 -0.000184 -0.000000
                                 0.000064  0.000000 -0.000024 -0.000000  0.000021  0.000000  0.000017  0.000000 -0.000009 -0.000000
                                -0.000003 -0.000000  0.000000 -0.000002  0.000034  0.000024 -0.000021 -0.000069  0.000008  0.000001
                                -0.000010  0.000019  0.000039  0.000000  0.000008 -0.000000 -0.000029  0.000000

   3.2   2    -7.4384  -85.5836  0.000000  0.000000  0.000000  0.000001  0.000004  0.000014  0.000044  0.000124  0.000290  0.000524
                                 0.000582 -0.000001 -0.000028 -0.001045 -0.000199 -0.001558 -0.000399 -0.000578 -0.000472  0.001611
                                -0.001576  0.001223 -0.001064  0.000161 -0.000462 -0.000198 -0.000071  0.000015  0.000165  0.001477
                                 0.008688  0.034284  0.100356  0.220933 -0.003609  0.327443  0.332142  0.204048 -0.038532  0.117725
                                -0.129370  0.099181 -0.009786  0.000628 -0.000814 -0.000032 -0.000122  0.000012  0.001122  0.000000
                                -0.001087 -0.000000 -0.000056  0.000000 -0.000104 -0.000000 -0.000212  0.000000 -0.000220  0.000000
                                 0.000028 -0.000000  0.000010  0.000103 -0.000046  0.000377  0.000919  0.000346 -0.000064 -0.000003
                                 0.000003 -0.000543 -0.000551 -0.000005  0.000086  0.000000  0.000337 -0.000000

   4.2   2    -1.5521  -35.9236  0.000002  0.000008  0.000031  0.000116  0.000419  0.001446  0.004543  0.012785  0.029865  0.054364
                                 0.060619  0.009641 -0.025531 -0.092434 -0.117516 -0.015813 -0.257897  0.077241 -0.402314  0.735529
                                -0.223866  0.607932  0.286872  0.034202  0.030522 -0.002813  0.000682 -0.000209 -0.000001 -0.000007
                                -0.000040 -0.000154 -0.000459 -0.000905 -0.000151 -0.001489 -0.001702  0.000727 -0.007208  0.035203
                                -0.124704  0.128740 -0.027343  0.003814 -0.012079 -0.002411 -0.000513 -0.000019 -0.001557  0.000000
                                -0.003938  0.000000 -0.006215 -0.000000 -0.001000 -0.000000  0.000919  0.000000 -0.000908 -0.000000
                                -0.001493  0.000000  0.000800  0.005722  0.020099  0.032767  0.025588  0.002967  0.000843  0.000170
                                -0.002813 -0.009281 -0.005675 -0.000153  0.002077  0.000000  0.002025  0.000000

   5.2   2    -0.5916  -21.6190 -0.000000 -0.000001 -0.000005 -0.000019 -0.000068 -0.000235 -0.000739 -0.002084 -0.004863 -0.008880
                                -0.009819 -0.002888  0.006530  0.011003  0.030875 -0.018297  0.066485 -0.031882  0.088162 -0.135837
                                 0.020227 -0.098064 -0.068018 -0.002257 -0.070436 -0.013358 -0.013694  0.002996 -0.000015 -0.000135
                                -0.000795 -0.003158 -0.009303 -0.021004  0.000861 -0.029985 -0.026946 -0.004731  0.035933 -0.017692
                                 0.182220 -0.161086  0.166290  0.140621 -0.080762  0.015483 -0.018206  0.001699  0.015778 -0.000000
                                 0.033419 -0.000000 -0.015849  0.000000 -0.011744  0.000000  0.005392  0.000000  0.003053  0.000000
                                -0.010769  0.000000  0.009983  0.073300  0.249670  0.405717  0.395923  0.065138  0.008262  0.001971
                                -0.007685 -0.039958 -0.062469 -0.000526  0.004956  0.000000  0.011654  0.000000

   6.2   0     0.0097   -7.1272 -0.000000 -0.000001 -0.000004 -0.000013 -0.000049 -0.000164 -0.000528 -0.001443 -0.003508 -0.005963
                                -0.008398  0.028806 -0.046565  0.105503 -0.234817  0.478463 -0.514186  0.498276 -1.110777  1.447903
                                -0.861942  0.253007 -0.511623  0.438150 -0.102991  0.343845 -0.068484  0.835989  0.000005  0.000046
                                 0.000270  0.001073  0.003151  0.007236 -0.000420  0.010257  0.008985  0.002354 -0.021859  0.037775
                                -0.187831  0.183255 -0.088499 -0.036312 -0.042305 -0.073709 -0.047107 -0.066678 -0.000551 -0.000000
                                -0.001430 -0.000000 -0.012136 -0.000000 -0.023501  0.000000 -0.000080 -0.000000  0.000556 -0.000000
                                -0.003989 -0.000000  0.000002 -0.000036  0.000509 -0.000456  0.027426  0.051986  0.000112  0.000007
                                 0.001303  0.004031 -0.008289  0.000079 -0.000906 -0.000000  0.000176  0.000000

   7.2   0     0.0400   -6.2885  0.000000  0.000001  0.000004  0.000014  0.000048  0.000178  0.000510  0.001594  0.003250  0.007419
                                 0.002155  0.105559 -0.176564  0.320382 -0.886478  1.671092 -1.948493  1.801035 -4.156096  5.576377
                                -3.208750  1.323337 -1.572539  1.590090 -0.688550  0.200502 -1.645026  1.434605 -0.000006 -0.000049
                                -0.000304 -0.001149 -0.003628 -0.005140 -0.003140 -0.009361 -0.013584  0.022271 -0.141698  0.444206
                                -1.282326  1.215096 -0.208897  0.178819 -0.183126  0.117879 -0.285528  0.515505  0.000417  0.000000
                                -0.004646  0.000000 -0.036826 -0.000000 -0.071215 -0.000000 -0.000104  0.000000 -0.005157  0.000000
                                -0.023365  0.000000 -0.000486 -0.004057 -0.008295 -0.022389  0.091098  0.329595  0.000599 -0.000035
                                -0.001252 -0.003608 -0.056535 -0.000062  0.000150  0.000000  0.007077 -0.000000

                                   1 2py     1 2py     1 2py     1 2py     1 2py     1 2py     1 2py     1 2py     1 2py     1 2py  
                                   1 2py     1 2py     1 2py     1 2py     1 2py     1 2py     1 2py     1 2py     1 2py     1 2py  
                                   1 2py     1 2py     1 2py     1 2py     1 2py     1 2py     1 2py     1 2py     1 3d1-    1 3d1- 
                                   1 3d1-    1 3d1-    1 3d1-    1 3d1-    1 3d1-    1 3d1-    1 3d1-    1 3d1-    1 3d1-    1 3d1- 
                                   1 3d1-    1 3d1-    1 3d1-    1 3d1-    1 3d1-    1 3d1-    1 3d1-    1 3d1-    1 4f1-    1 4f3- 
                                   1 4f1-    1 4f3-    1 4f1-    1 4f3-    1 4f1-    1 4f3-    1 5g1-    1 5g3-    1 5g1-    1 5g3- 
                                   1 5g1-    1 5g3-    2 2py     2 2py     2 2py     2 2py     2 2py     2 2py     2 2py     2 2py  
                                   2 3d1-    2 3d1-    2 3d1-    2 3d1-    2 4f1-    2 4f3-    2 4f1-    2 4f3- 

   1.3   2   -84.3791 -286.7252  0.000014  0.000054  0.000210  0.000776  0.002803  0.009566  0.029702  0.080893  0.181359  0.307737
                                 0.343374  0.167514  0.035694 -0.004560  0.086218 -0.112627  0.094330 -0.052036  0.061496 -0.059874
                                 0.022590 -0.004483  0.001805 -0.001240  0.000123 -0.000035  0.000008 -0.000002  0.000000  0.000001
                                 0.000003  0.000014  0.000057  0.000079 -0.000016  0.000022  0.000000 -0.000003  0.000015 -0.000049
                                 0.000142 -0.000130  0.000023 -0.000003 -0.000003 -0.000003 -0.000003  0.000000  0.000002 -0.000000
                                 0.000001  0.000000 -0.000003 -0.000000 -0.000002  0.000000  0.000001  0.000000 -0.000000 -0.000000
                                -0.000001  0.000000 -0.000000 -0.000001 -0.000001 -0.000003  0.000006  0.000009  0.000000  0.000000
                                -0.000000  0.000001 -0.000003  0.000000  0.000000  0.000000 -0.000000 -0.000000

   2.3   2   -13.2236  -95.9352 -0.000006 -0.000023 -0.000090 -0.000333 -0.001207 -0.004151 -0.013038 -0.036478 -0.084868 -0.152438
                                -0.171662 -0.014156  0.012417  0.284541  0.034070  0.431007  0.030883  0.290346 -0.052374  0.122983
                                -0.037499  0.011357 -0.004075  0.002968 -0.000354  0.000119 -0.000014  0.000005  0.000000  0.000004
                                 0.000022  0.000084  0.000230  0.000532  0.000060  0.001023  0.001203  0.000871 -0.000227  0.000193
                                 0.000579 -0.000757  0.000227  0.000012  0.000004  0.000021  0.000022 -0.000002 -0.000184 -0.000000
                                 0.000064  0.000000 -0.000024 -0.000000  0.000021  0.000000  0.000017  0.000000 -0.000009 -0.000000
                                -0.000003  0.000000  0.000000 -0.000002  0.000034  0.000024 -0.000021 -0.000069  0.000008  0.000001
                                -0.000010  0.000019  0.000039  0.000000  0.000008 -0.000000 -0.000029  0.000000

   3.3   2    -7.4384  -85.5836  0.000000  0.000000  0.000000  0.000001  0.000004  0.000014  0.000044  0.000124  0.000290  0.000524
                                 0.000582 -0.000001 -0.000028 -0.001045 -0.000199 -0.001558 -0.000399 -0.000578 -0.000472  0.001611
                                -0.001576  0.001223 -0.001064  0.000161 -0.000462 -0.000198 -0.000071  0.000015  0.000165  0.001477
                                 0.008688  0.034284  0.100356  0.220933 -0.003609  0.327443  0.332142  0.204048 -0.038532  0.117725
                                -0.129370  0.099181 -0.009786  0.000628 -0.000814 -0.000032 -0.000122  0.000012  0.001122  0.000000
                                -0.001087 -0.000000 -0.000056  0.000000 -0.000104 -0.000000 -0.000212  0.000000 -0.000220  0.000000
                                 0.000028 -0.000000  0.000010  0.000103 -0.000046  0.000377  0.000919  0.000346 -0.000064 -0.000003
                                 0.000003 -0.000543 -0.000551 -0.000005  0.000086  0.000000  0.000337 -0.000000

   4.3   2    -1.5521  -35.9236  0.000002  0.000008  0.000031  0.000116  0.000419  0.001446  0.004543  0.012785  0.029865  0.054364
                                 0.060619  0.009641 -0.025531 -0.092435 -0.117516 -0.015814 -0.257897  0.077240 -0.402313  0.735528
                                -0.223866  0.607931  0.286872  0.034202  0.030522 -0.002813  0.000682 -0.000209 -0.000001 -0.000007
                                -0.000040 -0.000154 -0.000459 -0.000905 -0.000151 -0.001489 -0.001702  0.000727 -0.007208  0.035203
                                -0.124704  0.128740 -0.027343  0.003814 -0.012079 -0.002411 -0.000513 -0.000019 -0.001557  0.000000
                                -0.003938  0.000000 -0.006215 -0.000000 -0.001000 -0.000000  0.000919  0.000000 -0.000908 -0.000000
                                -0.001493  0.000000  0.000800  0.005722  0.020099  0.032767  0.025588  0.002967  0.000843  0.000170
                                -0.002813 -0.009281 -0.005675 -0.000153  0.002077  0.000000  0.002025  0.000000

   5.3   2    -0.5916  -21.6190 -0.000000 -0.000001 -0.000005 -0.000019 -0.000068 -0.000235 -0.000739 -0.002084 -0.004863 -0.008880
                                -0.009819 -0.002888  0.006530  0.011003  0.030875 -0.018297  0.066485 -0.031882  0.088162 -0.135837
                                 0.020227 -0.098064 -0.068018 -0.002257 -0.070436 -0.013358 -0.013694  0.002996 -0.000015 -0.000135
                                -0.000795 -0.003158 -0.009303 -0.021004  0.000861 -0.029985 -0.026946 -0.004731  0.035933 -0.017692
                                 0.182220 -0.161086  0.166290  0.140621 -0.080762  0.015483 -0.018206  0.001699  0.015778 -0.000000
                                 0.033419 -0.000000 -0.015849  0.000000 -0.011744  0.000000  0.005392  0.000000  0.003053  0.000000
                                -0.010769  0.000000  0.009983  0.073300  0.249670  0.405717  0.395923  0.065138  0.008262  0.001971
                                -0.007685 -0.039958 -0.062469 -0.000526  0.004956  0.000000  0.011654  0.000000

   6.3   0     0.0097   -7.1272 -0.000000 -0.000001 -0.000004 -0.000013 -0.000049 -0.000164 -0.000528 -0.001443 -0.003508 -0.005963
                                -0.008398  0.028806 -0.046565  0.105504 -0.234817  0.478463 -0.514186  0.498277 -1.110777  1.447904
                                -0.861943  0.253007 -0.511623  0.438150 -0.102991  0.343845 -0.068484  0.835989  0.000005  0.000046
                                 0.000270  0.001073  0.003151  0.007236 -0.000420  0.010257  0.008985  0.002354 -0.021859  0.037775
                                -0.187831  0.183255 -0.088499 -0.036312 -0.042305 -0.073709 -0.047107 -0.066678 -0.000551 -0.000000
                                -0.001430 -0.000000 -0.012136 -0.000000 -0.023501  0.000000 -0.000080 -0.000000  0.000556 -0.000000
                                -0.003989 -0.000000  0.000002 -0.000036  0.000509 -0.000456  0.027426  0.051986  0.000112  0.000007
                                 0.001303  0.004031 -0.008289  0.000079 -0.000906 -0.000000  0.000176  0.000000

   7.3   0     0.0400   -6.2885  0.000000  0.000001  0.000004  0.000014  0.000048  0.000178  0.000510  0.001594  0.003250  0.007419
                                 0.002155  0.105559 -0.176564  0.320382 -0.886479  1.671094 -1.948494  1.801036 -4.156098  5.576379
                                -3.208751  1.323338 -1.572539  1.590090 -0.688550  0.200502 -1.645026  1.434605 -0.000006 -0.000049
                                -0.000304 -0.001149 -0.003628 -0.005140 -0.003140 -0.009361 -0.013584  0.022271 -0.141697  0.444206
                                -1.282326  1.215096 -0.208897  0.178819 -0.183126  0.117879 -0.285528  0.515505  0.000417  0.000000
                                -0.004646  0.000000 -0.036826 -0.000000 -0.071215 -0.000000 -0.000104  0.000000 -0.005157  0.000000
                                -0.023365  0.000000 -0.000486 -0.004057 -0.008295 -0.022389  0.091098  0.329595  0.000599 -0.000035
                                -0.001252 -0.003608 -0.056535 -0.000062  0.000150  0.000000  0.007077 -0.000000

                                   1 3d2-    1 3d2-    1 3d2-    1 3d2-    1 3d2-    1 3d2-    1 3d2-    1 3d2-    1 3d2-    1 3d2- 
                                   1 3d2-    1 3d2-    1 3d2-    1 3d2-    1 3d2-    1 3d2-    1 3d2-    1 3d2-    1 3d2-    1 3d2- 
                                   1 4f2-    1 4f2-    1 4f2-    1 4f2-    1 5g2-    1 5g4-    1 5g2-    1 5g4-    1 5g2-    1 5g4- 
                                   2 3d2-    2 3d2-    2 3d2-    2 3d2-    2 4f2-    2 4f2- 

   1.4   2    -7.4399  -85.5304  0.000165  0.001476  0.008683  0.034262  0.100296  0.220770 -0.003561  0.327265  0.332081  0.203863
                                -0.036186  0.111627 -0.108135  0.078263 -0.004860  0.000434 -0.000169  0.000032 -0.000010  0.000002
                                 0.000717 -0.000417  0.000142 -0.000035 -0.000159  0.000000 -0.000026  0.000000  0.000020 -0.000000
                                -0.000003  0.000048 -0.000048  0.000001 -0.000011 -0.000052

   2.4   0     0.0367  -10.1202 -0.000018 -0.000157 -0.000953 -0.003674 -0.011293 -0.019641 -0.005619 -0.031911 -0.038497  0.039461
                                -0.237251  0.766843 -2.030518  1.886113 -0.219202  0.392410 -0.179934  0.394661 -0.229218  0.862099
                                 0.001021  0.000690 -0.003113 -0.008504 -0.000434  0.000000 -0.001632  0.000000 -0.003695  0.000000
                                 0.001898  0.007403  0.003063  0.000136 -0.001081 -0.000852

   3.4   0     0.0568  -12.9442  0.000023  0.000219  0.001215  0.005139  0.013800  0.048055 -0.020453  0.057401  0.022780  0.135745
                                -0.923063  2.560361 -8.068105  7.639675 -1.838679  0.412029 -0.752187  0.256888 -0.823683  1.017577
                                -0.001356 -0.000859  0.005958  0.005471  0.000511 -0.000000  0.002804 -0.000000  0.004422 -0.000000
                                -0.002439 -0.008792 -0.006647 -0.000161  0.001214  0.002130

 HOMO     13.1    -0.225211 =      -6.1283eV
 LUMO      6.2     0.009694 =       0.2638eV
 LUMO-HOMO         0.234905 =       6.3921eV


 **********************************************************************************************************************************
 DATASETS  * FILE   NREC   LENGTH (MB)   RECORD NAMES
              1      22       22.36       500      610      700      900      950      970     1000      129      960     1700   
                                          VAR    BASINP    GEOM    SYMINP    ZMAT    AOBASIS   BASIS     P2S    ABASIS    OPER   
                                         1101     1401     1411     1412     1650     1100     1400     1410     1200     1210   
                                          SR      EKINR    POTR     PVPR    MOLCAS      S      EKIN      POT      H0       H01  
                                         1080     1600   
                                         AOSYM     SMH  

              2       4        3.53       700     1000      520     2100   
                                         GEOM     BASIS   MCVARS     RHF  

 PROGRAMS   *        TOTAL       RHF       INT
 CPU TIMES  *        69.12      3.34     65.51
 REAL TIME  *        74.97 SEC
 DISK USED  *         4.99 GB      
 SF USED    *         0.14 MB      
 GA USED    *         0.00 MB       (max)       0.00 MB       (current)
 **********************************************************************************************************************************
 SETTING SCF            =     -3671.19640806  AU                              
 SETTING _CC_NORM_MAX   =         2.00000000                                  


 PROGRAM * CCSD (Restricted open-shell coupled cluster)     Authors: C. Hampel, H.-J. Werner, 1991, M. Deegan, P.J. Knowles, 1992


 Convergence thresholds:  THRVAR = 1.00D-08  THRDEN = 1.00D-06

 CCSD(T)     terms to be evaluated (factor= 1.000)


 Number of core orbitals:          15 (   8   3   3   1 )
 Number of closed-shell orbitals:   9 (   5   2   2   0 )
 Number of external orbitals:     317 ( 136  73  73  35 )

 Memory could be reduced to 139.73 Mwords without degradation in triples

 Number of N-1 electron functions:              18
 Number of N-2 electron functions:             153
 Number of singly external CSFs:              1944
 Number of doubly external CSFs:           3103347
 Total number of CSFs:                     3105291

 Molecular orbitals read from record     2100.2  Type=RHF/CANONICAL (state 1.1)

 Integral transformation finished. Total CPU:   4.25 sec, npass=  1  Memory used:  14.81 MW

 Starting RMP2 calculation

 Wavefunction is spin-projected

 ITER.      SQ.NORM     CORR.ENERGY   TOTAL ENERGY   ENERGY CHANGE        DEN1      VAR(S)    VAR(P)  DIIS     TIME
   1      1.17922920    -0.64248970 -3671.83889776    -0.64248970    -0.01071287  0.39D-12  0.48D-02  1  1     4.76
   2      1.19458944    -0.65508668 -3671.85149474    -0.01259698    -0.00031749  0.51D-13  0.27D-03  2  2     5.34
   3      1.19872355    -0.65656687 -3671.85297492    -0.00148019    -0.00001690  0.68D-14  0.15D-04  3  3     5.78
   4      1.19964189    -0.65675613 -3671.85316418    -0.00018926    -0.00000033  0.11D-14  0.27D-06  4  4     6.11
   5      1.19969739    -0.65676432 -3671.85317238    -0.00000820    -0.00000001  0.27D-15  0.11D-07  5  5     6.50
   6      1.19969972    -0.65676427 -3671.85317232     0.00000006    -0.00000000  0.60D-16  0.32D-09  6  6     7.21

 Norm of t1 vector:      0.00000270      S-energy:    -0.00000000      T1 diagnostic:  0.00000045
 Norm of t2 vector:      0.44687775      P-energy:    -0.65676427
                                         Alpha-Beta:  -0.47472634
                                         Alpha-Alpha: -0.09101896
                                         Beta-Beta:   -0.09101896

 Spin contamination <S**2-Sz**2-Sz>     0.00000000
  Reference energy                  -3671.196408057515
  RHF-RMP2 correlation energy          -0.656764267356
 !RHF-RMP2 energy                   -3671.853172324872
 (NB above energy spin projected)

 Starting RCCSD calculation

 ITER.      SQ.NORM     CORR.ENERGY   TOTAL ENERGY   ENERGY CHANGE        DEN1      VAR(S)    VAR(P)  DIIS     TIME
   1      1.16127772    -0.61742145 -3671.81382950    -0.61742145    -0.01863783  0.37D-02  0.42D-02  1  1    11.07
   2      1.18422354    -0.63477670 -3671.83118476    -0.01735525    -0.00248446  0.50D-03  0.11D-02  2  2    14.09
   3      1.20041976    -0.63937679 -3671.83578485    -0.00460009    -0.00065862  0.27D-03  0.28D-03  3  3    17.41
   4      1.21590611    -0.64231136 -3671.83871942    -0.00293457    -0.00013031  0.57D-04  0.59D-04  4  4    20.37
   5      1.22317682    -0.64308320 -3671.83949126    -0.00077184    -0.00003403  0.19D-04  0.13D-04  5  5    23.58
   6      1.22766953    -0.64353842 -3671.83994648    -0.00045522    -0.00000844  0.57D-05  0.26D-05  6  6    27.41
   7      1.22934213    -0.64363877 -3671.84004683    -0.00010035    -0.00000212  0.13D-05  0.75D-06  7  7    31.45
   8      1.22993451    -0.64367646 -3671.84008452    -0.00003770    -0.00000068  0.36D-06  0.31D-06  8  8    36.76
   9      1.23016502    -0.64368806 -3671.84009611    -0.00001159    -0.00000022  0.83D-07  0.13D-06  9  9    40.97
  10      1.23021456    -0.64368672 -3671.84009478     0.00000134    -0.00000009  0.26D-07  0.53D-07 10 10    44.77
  11      1.23023014    -0.64368492 -3671.84009298     0.00000179    -0.00000003  0.88D-08  0.21D-07 11 11    50.70
  12      1.23023573    -0.64368395 -3671.84009201     0.00000097    -0.00000001  0.37D-08  0.83D-08 12 12    54.52
  13      1.23023565    -0.64368353 -3671.84009159     0.00000042    -0.00000001  0.24D-08  0.49D-08 13 13    59.24

 Norm of t1 vector:      0.15444599      S-energy:    -0.00000002      T1 diagnostic:  0.02574100
                                                                       D1 diagnostic:  0.08174829
 Norm of t2 vector:      0.45429295      P-energy:    -0.64368351
                                         Alpha-Beta:  -0.48493379
                                         Alpha-Alpha: -0.07937486
                                         Beta-Beta:   -0.07937486

 Doubles amplitudes (print threshold =  0.500E-01):

         I         J         SYM. A    SYM. B    A         B      T(IJ, AB) [Alpha-Beta]

         5         5         2         2         1         1     -0.05713962
         5         5         3         3         1         1     -0.05713962

 Spin contamination <S**2-Sz**2-Sz>     0.00000000

 Memory could be reduced to 143.62 Mwords without degradation in triples
 

  Correlated core orbitals:             9.1      10.1       4.2       4.3
  Orbital energies:                    -2.5833   -1.7334   -1.5521   -1.5521
 
  RCCSD core-core energy               -0.158314933610
  RCCSD core-valence energy            -0.159195531211
  RCCSD valence correlation energy     -0.326173069264
 

 RESULTS
 =======

  Reference energy                  -3671.196408057515
  RCCSD singles energy                 -0.000000023103
  RCCSD pair energy                    -0.643683510982
  RCCSD correlation energy             -0.643683534085
  Triples (T) contribution             -0.034226679763
  Total correlation energy             -0.677910213848
 
  RHF-RCCSD energy                  -3671.840091591600
  RHF-RCCSD[T] energy               -3671.877772950942
  RHF-RCCSD-T energy                -3671.873453202057
 !RHF-RCCSD(T) energy               -3671.874318271363

 Program statistics:

 Available memory in ccsd:               999999162
 Min. memory needed in ccsd:               9269475
 Max. memory used in ccsd:                13027373
 Max. memory used in cckext:              11905262 (13 integral passes)
 Max. memory used in cckint:              14810557 ( 1 integral passes)



 **********************************************************************************************************************************
 DATASETS  * FILE   NREC   LENGTH (MB)   RECORD NAMES
              1      22       22.36       500      610      700      900      950      970     1000      129      960     1700   
                                          VAR    BASINP    GEOM    SYMINP    ZMAT    AOBASIS   BASIS     P2S    ABASIS    OPER   
                                         1101     1401     1411     1412     1650     1100     1400     1410     1200     1210   
                                          SR      EKINR    POTR     PVPR    MOLCAS      S      EKIN      POT      H0       H01  
                                         1080     1600   
                                         AOSYM     SMH  

              2       4        3.53       700     1000      520     2100   
                                         GEOM     BASIS   MCVARS     RHF  

 PROGRAMS   *        TOTAL  RCCSD(T)       RHF       INT
 CPU TIMES  *       170.85    101.66      3.34     65.51
 REAL TIME  *       282.05 SEC
 DISK USED  *        14.23 GB      
 SF USED    *         2.15 GB      
 GA USED    *         0.00 MB       (max)       0.00 MB       (current)
 **********************************************************************************************************************************
 SETTING CCSD           =     -3671.87431827  AU                              
 SETTING BIND           =        -0.23020117  AU                              
 Output type csv         
                                                                                                                                                                                                                                                                

  1.50,SCF,CCSD,BIND
   1.5,   -3671.196408,   -3671.874318,   -0.23020117
                                                  

 RCCSD(T)/USERDEF energy=  -3671.874318271363

        RCCSD(T)        RHF-SCF 
  -3671.87431827  -3671.19640806
 **********************************************************************************************************************************
 Molpro calculation terminated
 Variable memory released
