<?xml version="1.0"?>
<molpro xmlns="http://www.molpro.net/schema/molpro-output"
  xmlns:xsd="http://www.w3.org/1999/XMLSchema"
  xmlns:cml="http://www.xml-cml.org/schema"
  xmlns:stm="http://www.xml-cml.org/schema"
  xmlns:xhtml="http://www.w3.org/1999/xhtml">
 <!--

 Nodes     nprocs
 nid00868    11
 Number of processes for MPI-2 version of Molpro:   nprocs(total)=   12   nprocs(compute)=   11   nprocs(helper)=    1

 Using customized tuning parameters: mindgm=7; mindgv=16; mindgc=1; mindgr=1; noblas=0; minvec=7
 default implementation of scratch files=sf

 --><job>
  <!--

 Variables initialized (889), CPU time= 0.01 sec
 Commands  initialized (702), CPU time= 0.02 sec, 572 directives.
 Default parameters read. Elapsed time= 0.16 sec

 Checking input...
 Passed
1


                                         ***  PROGRAM SYSTEM MOLPRO  ***
                                       Copyright, TTI GmbH Stuttgart, 2015
                                    Version 2015.1 linked Dec 29 2018 15:55:43


 **********************************************************************************************************************************
 LABEL *   Calculation for Zr atom, singlet and triplet
  64 bit mpp version                                                                     DATE: 23-Sep-22          TIME: 12:23:16
 **********************************************************************************************************************************

 SHA1:             19cd028119e0e09f93f0674bd8af7968d9b3eff6
 **********************************************************************************************************************************
  -->
  <!--

Geometry recognized as XYZ


 THRESHOLDS:

 ZERO    =  1.00D-12  ONEINT  =  1.00D-12  TWOINT  =  1.00D-15  PREFAC  =  1.00D-14  LOCALI  =  1.00D-09  EORDER  =  1.00D-04
 ENERGY  =  0.00D+00  ETEST   =  0.00D+00  EDENS   =  0.00D+00  THRDEDEF=  1.00D-06  GRADIENT=  1.00D-02  STEP    =  1.00D-03
 ORBITAL =  1.00D-05  CIVEC   =  1.00D-05  COEFF   =  1.00D-04  PRINTCI =  5.00D-02  PUNCHCI =  9.90D+01  OPTGRAD =  3.00D-04
 OPTENERG=  1.00D-06  OPTSTEP =  3.00D-04  THRGRAD =  1.00D-10  COMPRESS=  1.00D-11  VARMIN  =  1.00D-07  VARMAX  =  1.00D-03
 THRDOUB =  0.00D+00  THRDIV  =  1.00D-05  THRRED  =  1.00D-07  THRPSP  =  1.00D+00  THRDC   =  1.00D-10  THRCS   =  1.00D-10
 THRNRM  =  1.00D-08  THREQ   =  0.00D+00  THRDE   =  1.00D+00  THRREF  =  1.00D-05  SPARFAC =  1.00D+00  THRDLP  =  1.00D-07
 THRDIA  =  1.00D-10  THRDLS  =  1.00D-07  THRGPS  =  0.00D+00  THRKEX  =  0.00D+00  THRDIS  =  2.00D-01  THRVAR  =  1.00D-10
 THRLOC  =  1.00D-06  THRGAP  =  1.00D-06  THRLOCT = -1.00D+00  THRGAPT = -1.00D+00  THRORB  =  1.00D-06  THRMLTP =  0.00D+00
 THRCPQCI=  1.00D-10  KEXTA   =  0.00D+00  THRCOARS=  0.00D+00  SYMTOL  =  1.00D-06  GRADTOL =  1.00D-06  THROVL  =  1.00D-08
 THRORTH =  1.00D-08  GRID    =  1.00D-06  GRIDMAX =  1.00D-03  DTMAX   =  0.00D+00  THROCCDE=  1.00D-01  THROCCDE=  1.00D-01



 THRESHOLDS:

 ZERO    =  1.00D-12  ONEINT  =  1.00D-15  TWOINT  =  1.00D-15  PREFAC  =  1.00D-14  LOCALI  =  1.00D-09  EORDER  =  1.00D-04
 ENERGY  =  0.00D+00  ETEST   =  0.00D+00  EDENS   =  0.00D+00  THRDEDEF=  1.00D-06  GRADIENT=  1.00D-02  STEP    =  1.00D-03
 ORBITAL =  1.00D-05  CIVEC   =  1.00D-05  COEFF   =  1.00D-04  PRINTCI =  5.00D-02  PUNCHCI =  9.90D+01  OPTGRAD =  3.00D-04
 OPTENERG=  1.00D-06  OPTSTEP =  3.00D-04  THRGRAD =  1.00D-10  COMPRESS=  1.00D-11  VARMIN  =  1.00D-07  VARMAX  =  1.00D-03
 THRDOUB =  0.00D+00  THRDIV  =  1.00D-05  THRRED  =  1.00D-07  THRPSP  =  1.00D+00  THRDC   =  1.00D-10  THRCS   =  1.00D-10
 THRNRM  =  1.00D-08  THREQ   =  0.00D+00  THRDE   =  1.00D+00  THRREF  =  1.00D-05  SPARFAC =  1.00D+00  THRDLP  =  1.00D-07
 THRDIA  =  1.00D-10  THRDLS  =  1.00D-07  THRGPS  =  0.00D+00  THRKEX  =  0.00D+00  THRDIS  =  2.00D-01  THRVAR  =  1.00D-10
 THRLOC  =  1.00D-06  THRGAP  =  1.00D-06  THRLOCT = -1.00D+00  THRGAPT = -1.00D+00  THRORB  =  1.00D-06  THRMLTP =  0.00D+00
 THRCPQCI=  1.00D-10  KEXTA   =  0.00D+00  THRCOARS=  0.00D+00  SYMTOL  =  1.00D-06  GRADTOL =  1.00D-06  THROVL  =  1.00D-08
 THRORTH =  1.00D-08  GRID    =  1.00D-06  GRIDMAX =  1.00D-03  DTMAX   =  0.00D+00  THROCCDE=  1.00D-01  THROCCDE=  1.00D-01



 Variable memory set to 1000000000 words,  buffer space   230000 words

 SETTING BASIS          =    USERDEF

 DO I                   =         1.00000000

 Running procedure=ID2S2
  --><jobstep command="RHF-SCF" commandset="SCFPRO">
   <!--


 Recomputing integrals since basis changed


 Using spherical harmonics



 PROGRAM * SEWARD (Integral evaluation for generally contracted gaussian basis sets)     Author: Roland Lindh, 1990

 Geometry written to block  1 of record 700

 Orientation using atomic masses
 Molecule type: Atom
 Symmetry elements: X,Y,Z
 Rotational constants:       0.0000000      0.0000000      0.0000000 GHz  (calculated with average atomic masses)

 Point group  D2h


   --><cml:molecule>
    <cml:symmetry pointGroup="D2h"/>
    <cml:atomArray>
     <cml:atom id="a1" elementType="Zr" x3="0.0" y3="0.0" z3="0.0"/>
    </cml:atomArray>
    <cml:bondArray>
    </cml:bondArray>
   </cml:molecule><!--

 ATOMIC COORDINATES

 NR  ATOM    CHARGE       X              Y              Z

   1  ZR      4.00    0.000000000    0.000000000    0.000000000

 NUCLEAR CHARGE:                    4
 NUMBER OF PRIMITIVE AOS:         320
 NUMBER OF SYMMETRY AOS:          270
 NUMBER OF CONTRACTIONS:          270   (  80Ag  +  36B3u +  36B2u +  26B1g +  36B1u +  26B2g +  26B3g +   4Au  )
 NUMBER OF CORE ORBITALS:           0   (   0Ag  +   0B3u +   0B2u +   0B1g +   0B1u +   0B2g +   0B3g +   0Au  )
 NUMBER OF VALENCE ORBITALS:        6   (   3Ag  +   0B3u +   0B2u +   1B1g +   0B1u +   1B2g +   1B3g +   0Au  )


 NUCLEAR REPULSION ENERGY    0.00000000

 EXTRA SYMMETRY OF AOS IN SYMMETRY 1:   1 1 1 1 1 1 1 1 1 1   1 1 1 1 1 1 1 1 1 1   1 1 1 1 1 1 1 1 1 1   1 2 3 2 3 2 3 2 3 2
                                        3 2 3 2 3 2 3 2 3 2   3 2 3 2 3 2 3 2 3 2   3 2 3 2 3 2 3 2 3 2   3 4 5 6 4 5 6 4 5 6
 EXTRA SYMMETRY OF AOS IN SYMMETRY 2:   1 1 1 1 1 1 1 1 1 1   1 1 1 1 1 1 1 1 1 1   1 1 1 1 1 1 1 1 2 3   2 3 2 3 2 3
 EXTRA SYMMETRY OF AOS IN SYMMETRY 3:   1 1 1 1 1 1 1 1 1 1   1 1 1 1 1 1 1 1 1 1   1 1 1 1 1 1 1 1 2 3   2 3 2 3 2 3
 EXTRA SYMMETRY OF AOS IN SYMMETRY 4:   1 1 1 1 1 1 1 1 1 1   1 1 1 1 1 1 1 1 1 1   2 3 2 3 2 3
 EXTRA SYMMETRY OF AOS IN SYMMETRY 5:   1 1 1 1 1 1 1 1 1 1   1 1 1 1 1 1 1 1 1 1   1 1 1 1 1 1 1 1 2 3   2 3 2 3 2 3
 EXTRA SYMMETRY OF AOS IN SYMMETRY 6:   1 1 1 1 1 1 1 1 1 1   1 1 1 1 1 1 1 1 1 1   2 3 2 3 2 3
 EXTRA SYMMETRY OF AOS IN SYMMETRY 7:   1 1 1 1 1 1 1 1 1 1   1 1 1 1 1 1 1 1 1 1   2 3 2 3 2 3

 Eigenvalues of metric

         1 0.978E-07 0.978E-07 0.530E-06 0.320E-05 0.103E-04 0.108E-04 0.108E-04 0.404E-04
         2 0.122E-07 0.118E-06 0.105E-05 0.811E-05 0.363E-04 0.151E-03 0.670E-03 0.182E-02
         3 0.122E-07 0.118E-06 0.105E-05 0.811E-05 0.363E-04 0.151E-03 0.670E-03 0.182E-02
         4 0.978E-07 0.108E-04 0.404E-04 0.435E-03 0.213E-02 0.598E-02 0.165E-01 0.366E-01
         5 0.122E-07 0.118E-06 0.105E-05 0.811E-05 0.363E-04 0.151E-03 0.670E-03 0.182E-02
         6 0.978E-07 0.108E-04 0.404E-04 0.435E-03 0.213E-02 0.598E-02 0.165E-01 0.366E-01
         7 0.978E-07 0.108E-04 0.404E-04 0.435E-03 0.213E-02 0.598E-02 0.165E-01 0.366E-01
         8 0.202E+00 0.539E+00 0.125E+01 0.201E+01


 Contracted 2-electron integrals neglected if value below      1.0D-15
 AO integral compression algorithm  1   Integral accuracy      1.0D-15

     873.726 MB (compressed) written to integral file ( 59.1%)

     Node minimum: 35.389 MB, node maximum: 132.383 MB


 NUMBER OF SORTED TWO-ELECTRON INTEGRALS:    8026469.     BUFFER LENGTH:  32768
 NUMBER OF SEGMENTS:   1  SEGMENT LENGTH:    8026469      RECORD LENGTH: 524288

 Memory used in sort:       8.58 MW

 SORT1 READ   184612842. AND WROTE     5601092. INTEGRALS IN     17 RECORDS. CPU TIME:     4.93 SEC, REAL TIME:     5.31 SEC
 SORT2 READ    61598160. AND WROTE    87854953. INTEGRALS IN   5555 RECORDS. CPU TIME:     0.45 SEC, REAL TIME:     0.95 SEC

 Node minimum:     7950913.  Node maximum:     8026469. integrals

 OPERATOR DM      FOR CENTER  0  COORDINATES:    0.000000    0.000000    0.000000


 **********************************************************************************************************************************
 DATASETS  * FILE   NREC   LENGTH (MB)   RECORD NAMES
              1      19       20.48       500      610      700      900      950      970     1000      129      960     1100
                                          VAR    BASINP    GEOM    SYMINP    ZMAT    AOBASIS   BASIS     P2S    ABASIS      S
                                         1400     1410     1420     1200     1210     1080     1600     1650     1700
                                           T        V       ECP      H0       H01     AOSYM     SMH    MOLCAS    OPER

 PROGRAMS   *        TOTAL       INT
 CPU TIMES  *        46.07     45.57
 REAL TIME  *        48.44 SEC
 DISK USED  *         1.61 GB
 GA USED    *         0.00 MB       (max)       0.00 MB       (current)
 **********************************************************************************************************************************


 PROGRAM * RHF-SCF (OPEN SHELL)       Authors: W. Meyer, H.-J. Werner


 NUMBER OF ELECTRONS:       7+    5-    SPACE SYMMETRY=1    SPIN SYMMETRY: Triplet
 CONVERGENCE THRESHOLDS:    1.00E-05 (Density)    1.00E-07 (Energy)
 MAX. NUMBER OF ITERATIONS:       60
 INTERPOLATION TYPE:            DIIS
 INTERPOLATION STEPS:              2 (START)      1 (STEP)
 LEVEL SHIFTS:                 -0.60 (CLOSED) -0.30 (OPEN)

 Number of closed-shell orbitals:    5 (   2   1   1   0   1   0   0   0 )
 Number of open-shell orbitals:      2 (   2   0   0   0   0   0   0   0 )



 Extra symmetries of mos in symmetry 1:   1   1   3   2
 Orbital guess generated from atomic densities. Full valence occupancy:    3   0   0   1   0   1   1   0


 Molecular orbital dump at record        4202.2

 ITERATION    DDIFF          GRAD             ENERGY        2-EL.EN.            DIPOLE MOMENTS         DIIS   ORB.
    1      0.000D+00      0.000D+00        -0.21682332     11.621721    0.00000    0.00000    0.00000    0    start
    2      0.000D+00      0.957D-02        -0.48703665     12.537059    0.00000    0.00000    0.00000    1    diag,B
    3      0.226D+01      0.547D-02        -0.57947324     12.634520    0.00000    0.00000    0.00000    2    diag,B
    4      0.256D+01      0.448D-02        -0.71874391     12.176083    0.00000    0.00000    0.00000    3    diag,B
    5      0.648D+01      0.180D-02        -0.73132387     11.951508    0.00000    0.00000    0.00000    4    diag,B
    6      0.175D+01      0.993D-03        -0.73513968     11.848782    0.00000    0.00000    0.00000    5    diag,B
    7      0.601D+00      0.476D-03        -0.73636836     11.790966    0.00000    0.00000    0.00000    6    fixocc
    8      0.274D+00      0.227D-03        -0.73665083     11.780879    0.00000    0.00000    0.00000    7    diag,B
    9      0.801D-01      0.104D-03        -0.73669083     11.785355    0.00000    0.00000    0.00000    8    diag,B
   10      0.489D-01      0.482D-04        -0.73669883     11.787670    0.00000    0.00000    0.00000    9    orth
   11      0.381D-01      0.214D-04        -0.73670103     11.790789    0.00000    0.00000    0.00000    9    diag,B
   12      0.286D-01      0.578D-05        -0.73670115     11.791137    0.00000    0.00000    0.00000    9    diag,B
   13      0.197D-01      0.174D-05        -0.73670116     11.791190    0.00000    0.00000    0.00000    9    diag,B
   14      0.393D-02      0.670D-06        -0.73670116     11.791191    0.00000    0.00000    0.00000    9    diag,B
   15      0.227D-03      0.246D-06        -0.73670116     11.791178    0.00000    0.00000    0.00000    9    diag,B
   16      0.192D-03      0.998D-07        -0.73670116     11.791176    0.00000    0.00000    0.00000    9    diag,B
   17      0.161D-03      0.418D-07        -0.73670116     11.791175    0.00000    0.00000    0.00000    9    diag,B
   18      0.424D-04      0.348D-07        -0.73670116     11.791173    0.00000    0.00000    0.00000    9    diag,B
   19      0.126D-04      0.668D-07        -0.73670116     11.791175    0.00000    0.00000    0.00000    9    diag,B
   20      0.117D-04      0.429D-07        -0.73670116     11.791174    0.00000    0.00000    0.00000    9    orth
   21      0.947D-05      0.715D-07        -0.73670116     11.791174    0.00000    0.00000    0.00000    0    orth

 Final alpha occupancy:   4   1   1   0   1   0   0   0
 Final beta  occupancy:   2   1   1   0   1   0   0   0

 !RHF STATE 1.1 Energy                 -0.736701159137
   --><property name="Energy" method="RHF" principal="true" stateSymmetry="1" stateNumber="1"
     value="-0.736701159137423"/><!--
 Nuclear energy                         0.00000000
 One-electron energy                   -6.63228832
 Two-electron energy                    5.89558716
 Virial quotient                       -0.22464446
 !RHF STATE 1.1 Dipole moment           0.00000000     0.00000000     0.00000000
 Dipole moment /Debye                   0.00000000     0.00000000     0.00000000
   --><property name="Dipole moment" method="RHF" principal="true" stateSymmetry="1"
     stateNumber="1" value="0.0 0.0 0.0"/><!--

 ELECTRON ORBITALS
 =================


   Orb  Occ    Energy  Couls-En    Coefficients

                                   1 1s      1 1s      1 1s      1 1s      1 1s      1 1s      1 1s      1 1s      1 1s      1 1s
                                   1 1s      1 1s      1 1s      1 1s      1 1s      1 1s      1 1s      1 1s      1 1s      1 1s
                                   1 1s      1 1s      1 1s      1 1s      1 1s      1 1s      1 1s      1 1s      1 1s      1 1s
                                   1 1s      1 3d0     1 3d2+    1 3d0     1 3d2+    1 3d0     1 3d2+    1 3d0     1 3d2+    1 3d0
                                   1 3d2+    1 3d0     1 3d2+    1 3d0     1 3d2+    1 3d0     1 3d2+    1 3d0     1 3d2+    1 3d0
                                   1 3d2+    1 3d0     1 3d2+    1 3d0     1 3d2+    1 3d0     1 3d2+    1 3d0     1 3d2+    1 3d0
                                   1 3d2+    1 3d0     1 3d2+    1 3d0     1 3d2+    1 3d0     1 3d2+    1 3d0     1 3d2+    1 3d0
                                   1 3d2+    1 5g0     1 5g4+    1 5g2+    1 5g0     1 5g4+    1 5g2+    1 5g0     1 5g4+    1 5g2+


   1.1   2     0.4032   -0.5463  0.000000 -0.000000  0.000000 -0.000000  0.000000 -0.000000  0.000000 -0.000000  0.000001 -0.000002
                                 0.000007 -0.000020  0.000072 -0.000453  0.001507 -0.001679  0.001396 -0.002763  0.010047 -0.028316
                                 0.068930 -0.124920  0.536085 -0.573394  0.284892 -0.607258  0.273474 -0.148633  1.102809 -0.191420
                                 0.329262 -0.000000  0.000000  0.000000 -0.000000 -0.000000  0.000000  0.000000 -0.000000 -0.000000
                                 0.000000  0.000000 -0.000000 -0.000000  0.000000  0.000000 -0.000000 -0.000000  0.000000  0.000000
                                -0.000000 -0.000000  0.000000  0.000001 -0.000000 -0.000001  0.000001  0.000001 -0.000001 -0.000000
                                 0.000000  0.000000 -0.000000 -0.000000  0.000000  0.000000 -0.000000 -0.000000  0.000000  0.000000
                                 0.000000  0.000638  0.000540 -0.000000  0.001066  0.000901  0.000000  0.000054  0.000046 -0.000000

   2.1   2     0.4665    0.1540  0.000000 -0.000000  0.000000 -0.000000  0.000000 -0.000000  0.000001 -0.000003  0.000010 -0.000030
                                 0.000087 -0.000261  0.000932 -0.005828  0.019337 -0.021477  0.018003 -0.035688  0.125026 -0.319558
                                 0.675932 -1.025549  3.242848 -3.108270  0.809309 -1.097838  2.094191 -3.630891  4.597068 -5.179744
                                 3.289530  0.000000  0.000000 -0.000000 -0.000000  0.000000  0.000000 -0.000000 -0.000000  0.000000
                                 0.000000 -0.000000 -0.000000  0.000000  0.000000 -0.000000 -0.000000  0.000000  0.000000 -0.000000
                                -0.000000  0.000000  0.000000 -0.000001 -0.000000  0.000002 -0.000000 -0.000002  0.000000  0.000000
                                -0.000000 -0.000000  0.000000  0.000000 -0.000000 -0.000000  0.000000  0.000000 -0.000000 -0.000000
                                 0.000000 -0.000142 -0.000120  0.000000 -0.000206 -0.000174 -0.000000 -0.000042 -0.000036  0.000000

   3.1   +     0.3039   -0.9228  0.000000 -0.000000  0.000000  0.000000 -0.000000  0.000000 -0.000000  0.000000 -0.000000  0.000000
                                -0.000000  0.000000 -0.000000  0.000000 -0.000000  0.000000 -0.000000  0.000000 -0.000000  0.000000
                                -0.000000  0.000000 -0.000001  0.000001 -0.000000  0.000000 -0.000001  0.000001 -0.000001  0.000001
                                -0.000000  0.000000 -0.000001 -0.000002  0.000004  0.000014 -0.000023 -0.000073  0.000125  0.000348
                                -0.000595 -0.006785  0.011610  0.008415 -0.014399 -0.007927  0.013564  0.003891 -0.006658  0.002884
                                -0.004935  0.079071 -0.135304 -0.228945  0.391764  1.185885 -2.029253 -1.188342  2.033458  0.466292
                                -0.797905  0.127312 -0.217852  0.096141 -0.164514  0.080184 -0.137207  0.000947 -0.001620  0.004704
                                -0.008050  0.000893 -0.001057  0.002367  0.002281 -0.002699  0.006046  0.001291 -0.001527  0.003421

   4.1   +     0.3039   -0.9228 -0.000000 -0.000000  0.000000 -0.000000  0.000000 -0.000000  0.000000 -0.000000  0.000000 -0.000000
                                 0.000000 -0.000000  0.000000 -0.000000  0.000000 -0.000000  0.000000 -0.000000  0.000000 -0.000000
                                 0.000000 -0.000000  0.000000 -0.000000  0.000000  0.000000 -0.000000 -0.000000 -0.000000 -0.000000
                                 0.000000  0.000001  0.000000 -0.000004 -0.000002  0.000023  0.000014 -0.000125 -0.000073  0.000595
                                 0.000348 -0.011610 -0.006785  0.014400  0.008415 -0.013564 -0.007927  0.006658  0.003891  0.004935
                                 0.002884  0.135304  0.079071 -0.391766 -0.228945  2.029258  1.185885 -2.033462 -1.188342  0.797906
                                 0.466292  0.217852  0.127312  0.164514  0.096141  0.137207  0.080183  0.001620  0.000947  0.008050
                                 0.004704  0.001528 -0.001808 -0.001383  0.003903 -0.004618 -0.003533  0.002208 -0.002613 -0.001999

   5.1   0     0.5771    0.2973  0.000000 -0.000000  0.000000 -0.000000  0.000000 -0.000000  0.000000 -0.000000  0.000000 -0.000000
                                 0.000000 -0.000000  0.000000 -0.000000  0.000000 -0.000000  0.000000 -0.000000  0.000000 -0.000000
                                 0.000000 -0.000000  0.000001 -0.000001  0.000000 -0.000000  0.000000 -0.000000  0.000000 -0.000001
                                 0.000000 -0.000002 -0.000000  0.000013  0.000001 -0.000069 -0.000006  0.000329  0.000028 -0.001699
                                -0.000143  0.030791  0.002599 -0.039410 -0.003327  0.021519  0.001816 -0.040772 -0.003442  0.269304
                                 0.022733 -1.777451 -0.150039  5.133693  0.433348-15.439170 -1.303260 14.538161  1.227204 -3.052607
                                -0.257679  1.294997  0.109314 -1.372332 -0.115842  0.993873  0.083895 -1.272923 -0.107450  1.490810
                                 0.125842 -0.000052  0.000062  0.000007 -0.000102  0.000120  0.000013 -0.000060  0.000071  0.000008

   6.1   0     0.5771    0.2973  0.000000 -0.000000  0.000000 -0.000000  0.000000 -0.000000  0.000000 -0.000000  0.000000 -0.000000
                                 0.000000 -0.000000  0.000000 -0.000000  0.000000 -0.000000  0.000000 -0.000000  0.000000 -0.000000
                                 0.000000  0.000000 -0.000000  0.000000 -0.000000  0.000000 -0.000000  0.000000 -0.000000  0.000000
                                -0.000000  0.000000 -0.000002 -0.000001  0.000013  0.000006 -0.000069 -0.000028  0.000329  0.000143
                                -0.001699 -0.002599  0.030791  0.003327 -0.039410 -0.001816  0.021519  0.003442 -0.040772 -0.022732
                                 0.269304  0.150038 -1.777456 -0.433344  5.133708  1.303248-15.439215 -1.227192 14.538204  0.257676
                                -3.052617 -0.109313  1.295000  0.115841 -1.372335 -0.083895  0.993875  0.107449 -1.272924 -0.125842
                                 1.490811  0.000004 -0.000005  0.000081  0.000009 -0.000010  0.000157  0.000005 -0.000006  0.000093

                                   1 2px     1 2px     1 2px     1 2px     1 2px     1 2px     1 2px     1 2px     1 2px     1 2px
                                   1 2px     1 2px     1 2px     1 2px     1 2px     1 2px     1 2px     1 2px     1 2px     1 2px
                                   1 2px     1 2px     1 2px     1 2px     1 2px     1 2px     1 2px     1 2px     1 4f1+    1 4f3+
                                   1 4f1+    1 4f3+    1 4f1+    1 4f3+    1 4f1+    1 4f3+

   1.2   2     0.4686    0.1928 -0.000000  0.000000 -0.000000  0.000001 -0.000004  0.000016 -0.000057  0.000192 -0.000630  0.002275
                                -0.011614  0.245038 -0.407852  0.784871 -2.071987  3.984531 -4.571497  4.276538 -9.801251 13.067071
                                -7.568173  2.916911 -3.840123  3.715685 -1.228118  1.214602 -1.779006  1.851931 -0.000042  0.000055
                                -0.000131  0.000169 -0.000239  0.000308 -0.000039  0.000051

   2.2   0     0.6356   -0.0131  0.000000 -0.000000  0.000000 -0.000001  0.000003 -0.000011  0.000039 -0.000129  0.000423 -0.001531
                                 0.007816 -0.164963  0.274632 -0.529144  1.398525 -2.693603  3.095870 -2.905230  6.671394 -8.885876
                                 5.115216 -1.931496  2.440960 -2.453856  0.930912 -0.511917  1.607449 -0.641732 -0.001727  0.002230
                                -0.005610  0.007242 -0.010565  0.013640 -0.006801  0.008780

   3.2   0     0.7546    0.2604 -0.000000  0.000000 -0.000000  0.000002 -0.000007  0.000030 -0.000110  0.000370 -0.001213  0.004384
                                -0.022392  0.472681 -0.786860  1.515018 -4.001618  7.699946 -8.840272  8.281426-19.055288 25.487807
                               -14.869645  5.835536 -8.049881  7.781501 -2.588007  3.441049 -2.890820  0.889804 -0.002255  0.002912
                                -0.007750  0.010005 -0.012977  0.016754 -0.021152  0.027307

                                   1 2py     1 2py     1 2py     1 2py     1 2py     1 2py     1 2py     1 2py     1 2py     1 2py
                                   1 2py     1 2py     1 2py     1 2py     1 2py     1 2py     1 2py     1 2py     1 2py     1 2py
                                   1 2py     1 2py     1 2py     1 2py     1 2py     1 2py     1 2py     1 2py     1 4f1-    1 4f3-
                                   1 4f1-    1 4f3-    1 4f1-    1 4f3-    1 4f1-    1 4f3-

   1.3   2     0.4686    0.1928 -0.000000  0.000000 -0.000000  0.000001 -0.000004  0.000016 -0.000057  0.000192 -0.000630  0.002275
                                -0.011614  0.245037 -0.407850  0.784867 -2.071976  3.984512 -4.571477  4.276522 -9.801222 13.067037
                                -7.568156  2.916907 -3.840120  3.715683 -1.228118  1.214602 -1.779006  1.851931 -0.000042 -0.000055
                                -0.000131 -0.000169 -0.000239 -0.000308 -0.000039 -0.000051

   2.3   0     0.6356   -0.0131  0.000000 -0.000000  0.000000 -0.000001  0.000003 -0.000011  0.000039 -0.000129  0.000423 -0.001531
                                 0.007816 -0.164962  0.274631 -0.529141  1.398517 -2.693589  3.095855 -2.905218  6.671372 -8.885850
                                 5.115204 -1.931493  2.440958 -2.453854  0.930912 -0.511917  1.607449 -0.641732 -0.001727 -0.002230
                                -0.005610 -0.007242 -0.010565 -0.013640 -0.006801 -0.008780

   3.3   0     0.7546    0.2604 -0.000000  0.000000 -0.000000  0.000002 -0.000007  0.000030 -0.000110  0.000370 -0.001213  0.004384
                                -0.022392  0.472678 -0.786856  1.515009 -4.001597  7.699907 -8.840231  8.281392-19.055226 25.487733
                               -14.869610  5.835526 -8.049875  7.781496 -2.588006  3.441049 -2.890820  0.889804 -0.002255 -0.002912
                                -0.007750 -0.010005 -0.012977 -0.016754 -0.021152 -0.027307

                                   1 3d2-    1 3d2-    1 3d2-    1 3d2-    1 3d2-    1 3d2-    1 3d2-    1 3d2-    1 3d2-    1 3d2-
                                   1 3d2-    1 3d2-    1 3d2-    1 3d2-    1 3d2-    1 3d2-    1 3d2-    1 3d2-    1 3d2-    1 3d2-
                                   1 5g2-    1 5g4-    1 5g2-    1 5g4-    1 5g2-    1 5g4-

   1.4   0     0.5768    0.2950 -0.000002  0.000012 -0.000068  0.000321 -0.001661  0.030070 -0.038515  0.020701 -0.040332  0.269271
                                -1.767557  5.104909-15.303188 14.402881 -3.002667  1.306190 -1.359448  1.004520 -1.267252  1.491375
                                -0.000030  0.000000 -0.000105 -0.000000 -0.000074  0.000000

   2.4   0     0.6873   -0.2596 -0.000001  0.000009 -0.000047  0.000235 -0.001178  0.021902 -0.027718  0.019006 -0.022923  0.118113
                                -0.898377  2.613491 -8.481705  8.089114 -1.960416  0.461488 -0.832635  0.258292 -0.913422  0.343225
                                 0.000906 -0.000000  0.002584  0.000000  0.002020 -0.000000

                                   1 2pz     1 2pz     1 2pz     1 2pz     1 2pz     1 2pz     1 2pz     1 2pz     1 2pz     1 2pz
                                   1 2pz     1 2pz     1 2pz     1 2pz     1 2pz     1 2pz     1 2pz     1 2pz     1 2pz     1 2pz
                                   1 2pz     1 2pz     1 2pz     1 2pz     1 2pz     1 2pz     1 2pz     1 2pz     1 4f0     1 4f2+
                                   1 4f0     1 4f2+    1 4f0     1 4f2+    1 4f0     1 4f2+

   1.5   2     0.4686    0.1928 -0.000000  0.000000 -0.000000  0.000001 -0.000004  0.000016 -0.000057  0.000192 -0.000630  0.002275
                                -0.011614  0.245037 -0.407850  0.784867 -2.071978  3.984515 -4.571481  4.276525 -9.801229 13.067046
                                -7.568161  2.916908 -3.840121  3.715684 -1.228118  1.214602 -1.779006  1.851931  0.000069 -0.000000
                                 0.000213 -0.000000  0.000390 -0.000000  0.000064 -0.000000

   2.5   0     0.6356   -0.0131  0.000000 -0.000000  0.000000 -0.000001  0.000003 -0.000011  0.000039 -0.000129  0.000423 -0.001531
                                 0.007816 -0.164962  0.274631 -0.529141  1.398518 -2.693591  3.095858 -2.905220  6.671377 -8.885857
                                 5.115207 -1.931494  2.440959 -2.453854  0.930912 -0.511917  1.607449 -0.641732  0.002820  0.000000
                                 0.009161 -0.000000  0.017253  0.000000  0.011106  0.000000

   3.5   0     0.7546    0.2604 -0.000000  0.000000 -0.000000  0.000002 -0.000007  0.000030 -0.000110  0.000370 -0.001213  0.004384
                                -0.022392  0.472678 -0.786856  1.515010 -4.001599  7.699913 -8.840238  8.281399-19.055240 25.487750
                               -14.869619  5.835528 -8.049877  7.781498 -2.588006  3.441049 -2.890820  0.889804  0.003683  0.000000
                                 0.012655 -0.000000  0.021192  0.000000  0.034540  0.000000

                                   1 3d1+    1 3d1+    1 3d1+    1 3d1+    1 3d1+    1 3d1+    1 3d1+    1 3d1+    1 3d1+    1 3d1+
                                   1 3d1+    1 3d1+    1 3d1+    1 3d1+    1 3d1+    1 3d1+    1 3d1+    1 3d1+    1 3d1+    1 3d1+
                                   1 5g1+    1 5g3+    1 5g1+    1 5g3+    1 5g1+    1 5g3+

   1.6   0     0.5768    0.2950 -0.000002  0.000012 -0.000068  0.000321 -0.001661  0.030070 -0.038515  0.020701 -0.040332  0.269271
                                -1.767557  5.104907-15.303184 14.402877 -3.002667  1.306190 -1.359448  1.004520 -1.267252  1.491375
                                 0.000011  0.000028  0.000037  0.000098  0.000026  0.000069

   2.6   0     0.6873   -0.2596 -0.000001  0.000009 -0.000047  0.000235 -0.001178  0.021902 -0.027718  0.019006 -0.022923  0.118113
                                -0.898377  2.613490 -8.481703  8.089113 -1.960416  0.461488 -0.832635  0.258292 -0.913422  0.343225
                                -0.000320 -0.000847 -0.000913 -0.002417 -0.000714 -0.001890

                                   1 3d1-    1 3d1-    1 3d1-    1 3d1-    1 3d1-    1 3d1-    1 3d1-    1 3d1-    1 3d1-    1 3d1-
                                   1 3d1-    1 3d1-    1 3d1-    1 3d1-    1 3d1-    1 3d1-    1 3d1-    1 3d1-    1 3d1-    1 3d1-
                                   1 5g1-    1 5g3-    1 5g1-    1 5g3-    1 5g1-    1 5g3-

   1.7   0     0.5768    0.2950 -0.000002  0.000012 -0.000068  0.000321 -0.001661  0.030070 -0.038515  0.020701 -0.040332  0.269271
                                -1.767556  5.104906-15.303182 14.402876 -3.002666  1.306190 -1.359448  1.004520 -1.267252  1.491375
                                 0.000011 -0.000028  0.000037 -0.000098  0.000026 -0.000069

   2.7   0     0.6873   -0.2596 -0.000001  0.000009 -0.000047  0.000235 -0.001178  0.021902 -0.027718  0.019006 -0.022923  0.118113
                                -0.898377  2.613490 -8.481702  8.089112 -1.960415  0.461488 -0.832635  0.258292 -0.913422  0.343225
                                -0.000320  0.000847 -0.000913  0.002417 -0.000714  0.001890

                                   1 4f2-    1 4f2-    1 4f2-    1 4f2-

   1.8   0     0.8659    0.4333 -0.005507  0.045730 -0.120630  1.055625

   2.8   0     1.3349    0.9923  0.073655 -0.022394  1.175230 -0.544755

 HOMO      1.3     0.468600 =      12.7513eV
 LUMO      1.6     0.576782 =      15.6950eV
 LUMO-HOMO         0.108181 =       2.9438eV


 **********************************************************************************************************************************
 DATASETS  * FILE   NREC   LENGTH (MB)   RECORD NAMES
              1      19       20.51       500      610      700      900      950      970     1000      129      960     1100
                                          VAR    BASINP    GEOM    SYMINP    ZMAT    AOBASIS   BASIS     P2S    ABASIS      S
                                         1400     1410     1420     1200     1210     1080     1600     1650     1700
                                           T        V       ECP      H0       H01     AOSYM     SMH    MOLCAS    OPER

              2       5        5.73       200      700     1000      520     4202
                                        OPTIONS   GEOM     BASIS   MCVARS     RHF

 PROGRAMS   *        TOTAL       RHF       INT
 CPU TIMES  *        47.37      1.28     45.57
 REAL TIME  *        49.98 SEC
 DISK USED  *         1.92 GB
 SF USED    *         0.05 MB
 GA USED    *         0.00 MB       (max)       0.00 MB       (current)
 **********************************************************************************************************************************
   -->
   <time start="12:23:17" end="12:24:06" cpu="47.37" system="1.59" real="49.98"/>
   <storage units="megabyte" memory="8001.84" sf="0.05" df="309.47" eaf="1610.21" ga="0.0"/>
  </jobstep><!--
  --><jobstep command="POP" commandset="POP">
   <!--


 PROGRAM * POP (Mulliken population analysis)


 Density matrix read from record         4202.2  Type=RHF/CHARGE (state 1.1)

 Population analysis by basis function type

 Unique atom        s        p        d        f        g    Total    Charge
   1  ZR      3.99999  6.00000  1.99977  0.00000  0.00024 12.00000  - 8.00000


 **********************************************************************************************************************************
 DATASETS  * FILE   NREC   LENGTH (MB)   RECORD NAMES
              1      19       20.51       500      610      700      900      950      970     1000      129      960     1100
                                          VAR    BASINP    GEOM    SYMINP    ZMAT    AOBASIS   BASIS     P2S    ABASIS      S
                                         1400     1410     1420     1200     1210     1080     1600     1650     1700
                                           T        V       ECP      H0       H01     AOSYM     SMH    MOLCAS    OPER

              2       5        5.73       200      700     1000      520     4202
                                        OPTIONS   GEOM     BASIS   MCVARS     RHF

 PROGRAMS   *        TOTAL       POP       RHF       INT
 CPU TIMES  *        47.38      0.00      1.28     45.57
 REAL TIME  *        49.99 SEC
 DISK USED  *         1.92 GB
 SF USED    *         0.05 MB
 GA USED    *         0.00 MB       (max)       0.00 MB       (current)
 **********************************************************************************************************************************
   -->
   <time start="12:24:06" end="12:24:06" cpu="0.01" system="0.0" real="0.01"/>
   <storage units="megabyte" memory="8001.84" sf="0.05" df="309.47" eaf="1610.21" ga="0.0"/>
  </jobstep><!--
  --><jobstep command="MULTI" commandset="MULTI">
   <!--


 PROGRAM * MULTI (Direct Multiconfiguration SCF)       Authors: P.J. Knowles, H.-J. Werner (1984)     S.T. Elbert (1988)


 Number of closed-shell orbitals:   5 (   2   1   1   0   1   0   0   0 )
 Number of active  orbitals:        5 (   2   0   0   1   0   1   1   0 )
 Number of external orbitals:     260 (  76  35  35  25  35  25  25   4 )

 State symmetry 1

 Number of electrons:     2    Spin symmetry=Triplet   Space symmetry=1
 Number of states:        1
 Number of CSFs:          1   (1 determinants, 10 intermediate states)

 State symmetry 2

 Number of electrons:     2    Spin symmetry=Triplet   Space symmetry=4
 Number of states:        3
 Number of CSFs:          3   (3 determinants, 10 intermediate states)

 State symmetry 3

 Number of electrons:     2    Spin symmetry=Triplet   Space symmetry=6
 Number of states:        3
 Number of CSFs:          3   (3 determinants, 10 intermediate states)

 State symmetry 4

 Number of electrons:     2    Spin symmetry=Triplet   Space symmetry=7
 Number of states:        3
 Number of CSFs:          3   (3 determinants, 10 intermediate states)

 Molecular orbitals read from record     4202.2  Type=RHF/CANONICAL (state 1.1)
 *** IN SYMMETRY 1 ORBITAL  1 SYMMETRY CONTAMINATION OF 0.757D-03 HAS BEEN REMOVED
 *** IN SYMMETRY 1 ORBITAL  2 SYMMETRY CONTAMINATION OF 0.247D-04 HAS BEEN REMOVED
 *** IN SYMMETRY 1 ORBITAL  3 SYMMETRY CONTAMINATION OF 0.370D+00 HAS BEEN REMOVED
 *** IN SYMMETRY 1 ORBITAL  4 SYMMETRY CONTAMINATION OF 0.370D+00 HAS BEEN REMOVED

 EXTRA SYMMETRY OF MOS IN SYMMETRY 1:   1 1 3 2 2 3 1 2 3 2   3 1 4 6 5 2 3 1 3 2   1 5 6 1 3 2 1 3 2 4   6 5 3 2 1 3 2 1 3 2
                                        1 3 2 1 3 2 1 2 3 1   2 3 1 1 3 2 1 2 3 1   3 2 1 1 3 2 1 1 3 2   1 1 1 1 1 1 1 1 1 4
 *** IN SYMMETRY 2 ORBITAL  1 SYMMETRY CONTAMINATION OF 0.163D-04 HAS BEEN REMOVED
 EXTRA SYMMETRY OF MOS IN SYMMETRY 2:   1 1 1 3 2 1 1 2 1 1   2 1 1 1 2 1 1 1 1 1   1 1 1 1 1 1 1 1 1 1   1 1 1 3 3 3
 *** IN SYMMETRY 3 ORBITAL  1 SYMMETRY CONTAMINATION OF 0.163D-04 HAS BEEN REMOVED
 EXTRA SYMMETRY OF MOS IN SYMMETRY 3:   1 1 1 3 2 1 1 2 1 1   2 1 1 1 2 1 1 1 1 1   1 1 1 1 1 1 1 1 1 1   1 1 1 3 3 3
 EXTRA SYMMETRY OF MOS IN SYMMETRY 4:   1 1 1 1 3 2 1 1 3 2   1 1 3 2 1 1 1 1 1 1   1 1 1 1 1 1
 *** IN SYMMETRY 5 ORBITAL  1 SYMMETRY CONTAMINATION OF 0.116D-04 HAS BEEN REMOVED
 EXTRA SYMMETRY OF MOS IN SYMMETRY 5:   1 1 1 2 3 1 1 3 1 1   3 1 1 1 3 1 1 1 1 1   1 1 1 1 1 1 1 1 1 1   1 1 1 2 2 2
 EXTRA SYMMETRY OF MOS IN SYMMETRY 6:   1 1 1 1 2 3 1 1 2 3   1 1 2 3 1 1 1 1 1 1   1 1 1 1 1 1
 EXTRA SYMMETRY OF MOS IN SYMMETRY 7:   1 1 1 1 2 3 1 1 2 3   1 1 2 3 1 1 1 1 1 1   1 1 1 1 1 1

 Wavefunction dump at record             5202.2

 Convergence thresholds  0.10E-01 (gradient)  0.10E-05 (energy)  0.10E-02 (step length)

 Weight factors for state symmetry  1:    0.10000
 Weight factors for state symmetry  2:    0.10000   0.10000   0.10000
 Weight factors for state symmetry  3:    0.10000   0.10000   0.10000
 Weight factors for state symmetry  4:    0.10000   0.10000   0.10000

 Number of orbital rotations:      488   (     4 Core/Active    257 Core/Virtual   0 Active/Active    227 Active/Virtual)
 Total number of variables:        516


 ITER. MIC  NCI  NEG     ENERGY(VAR)     ENERGY(PROJ)   ENERGY CHANGE     GRAD(0)  GRAD(ORB)   GRAD(CI)     STEP       TIME

   1   69   16    6      -0.42364053      -0.80913846   -0.38549793    0.41583909 1.45297327 0.00000000  0.17D+01      0.44
   2   72   20    8      30.63694227      -0.71349434  -31.35043661   *********** 0.62645712 0.00000000  0.39D+00      0.81
   3   46   20    0      -0.71992314      -0.72343867   -0.00351552    0.62812271 0.00000001 0.00000000  0.11D+00      1.17
   4   50   20    0      -0.72368385      -0.72373488   -0.00005103    0.00380502 0.00000000 0.00000000  0.15D-01      1.56
   5   64   20    0      -0.72373540      -0.72373541   -0.00000001    0.00005683 0.00000000 0.00000000  0.23D-03      1.92

 ** WVFN ****  CONVERGENCE REACHED, FINAL GRADIENT:  0.37D-06



 Results for state 1.1
 =====================

 !MCSCF STATE 1.1 Energy               -0.736255977543
   --><property name="Energy" method="MCSCF" principal="true" stateSymmetry="1" stateNumber="1"
     value="-0.736255977542838"/><!--
 Nuclear energy                         0.00000000
 Kinetic energy                         3.25422244
 One electron energy                   -6.63005157
 Two electron energy                    5.89379560
 Virial ratio                           1.22624636

 !MCSCF STATE 1.1 Dipole moment         0.00000000     0.00000000     0.00000000
 Dipole moment /Debye                   0.00000000     0.00000000     0.00000000
   --><property name="Dipole moment" method="MCSCF" principal="true" stateSymmetry="1"
     stateNumber="1" value="0.0 0.0 0.0"/><!--



 Results for state 1.4
 =====================

 !MCSCF STATE 1.4 Energy               -0.736255977548
   --><property name="Energy" method="MCSCF" principal="true" stateSymmetry="4" stateNumber="1"
     value="-0.736255977547503"/><!--
 Nuclear energy                         0.00000000
 Kinetic energy                         3.25422244
 One electron energy                   -6.63005157
 Two electron energy                    5.89379560
 Virial ratio                           1.22624636

 !MCSCF STATE 1.4 Dipole moment         0.00000000     0.00000000     0.00000000
 Dipole moment /Debye                   0.00000000     0.00000000     0.00000000
   --><property name="Dipole moment" method="MCSCF" principal="true" stateSymmetry="4"
     stateNumber="1" value="0.0 0.0 0.0"/><!--

 Results for state 2.4
 =====================

 !MCSCF STATE 2.4 Energy               -0.736255977530
   --><property name="Energy" method="MCSCF" principal="true" stateSymmetry="4" stateNumber="2"
     value="-0.736255977529676"/><!--
 Nuclear energy                         0.00000000
 Kinetic energy                         3.25422244
 One electron energy                   -6.63005157
 Two electron energy                    5.89379560
 Virial ratio                           1.22624636

 !MCSCF STATE 2.4 Dipole moment         0.00000000     0.00000000     0.00000000
 Dipole moment /Debye                   0.00000000     0.00000000     0.00000000
   --><property name="Dipole moment" method="MCSCF" principal="true" stateSymmetry="4"
     stateNumber="2" value="0.0 0.0 0.0"/><!--

 Results for state 3.4
 =====================

 !MCSCF STATE 3.4 Energy               -0.694520759263
   --><property name="Energy" method="MCSCF" principal="true" stateSymmetry="4" stateNumber="3"
     value="-0.694520759262979"/><!--
 Nuclear energy                         0.00000000
 Kinetic energy                         3.25422244
 One electron energy                   -6.63005157
 Two electron energy                    5.93553081
 Virial ratio                           1.21342142

 !MCSCF STATE 3.4 Dipole moment         0.00000000     0.00000000     0.00000000
 Dipole moment /Debye                   0.00000000     0.00000000     0.00000000
   --><property name="Dipole moment" method="MCSCF" principal="true" stateSymmetry="4"
     stateNumber="3" value="0.0 0.0 0.0"/><!--



 Results for state 1.6
 =====================

 !MCSCF STATE 1.6 Energy               -0.736255977538
   --><property name="Energy" method="MCSCF" principal="true" stateSymmetry="6" stateNumber="1"
     value="-0.736255977537873"/><!--
 Nuclear energy                         0.00000000
 Kinetic energy                         3.25422244
 One electron energy                   -6.63005157
 Two electron energy                    5.89379560
 Virial ratio                           1.22624636

 !MCSCF STATE 1.6 Dipole moment         0.00000000     0.00000000     0.00000000
 Dipole moment /Debye                   0.00000000     0.00000000     0.00000000
   --><property name="Dipole moment" method="MCSCF" principal="true" stateSymmetry="6"
     stateNumber="1" value="0.0 0.0 0.0"/><!--

 Results for state 2.6
 =====================

 !MCSCF STATE 2.6 Energy               -0.736255977532
   --><property name="Energy" method="MCSCF" principal="true" stateSymmetry="6" stateNumber="2"
     value="-0.73625597753188"/><!--
 Nuclear energy                         0.00000000
 Kinetic energy                         3.25422244
 One electron energy                   -6.63005157
 Two electron energy                    5.89379560
 Virial ratio                           1.22624636

 !MCSCF STATE 2.6 Dipole moment         0.00000000     0.00000000     0.00000000
 Dipole moment /Debye                   0.00000000     0.00000000     0.00000000
   --><property name="Dipole moment" method="MCSCF" principal="true" stateSymmetry="6"
     stateNumber="2" value="0.0 0.0 0.0"/><!--

 Results for state 3.6
 =====================

 !MCSCF STATE 3.6 Energy               -0.694520759258
   --><property name="Energy" method="MCSCF" principal="true" stateSymmetry="6" stateNumber="3"
     value="-0.694520759257637"/><!--
 Nuclear energy                         0.00000000
 Kinetic energy                         3.25422244
 One electron energy                   -6.63005157
 Two electron energy                    5.93553081
 Virial ratio                           1.21342142

 !MCSCF STATE 3.6 Dipole moment         0.00000000     0.00000000     0.00000000
 Dipole moment /Debye                   0.00000000     0.00000000     0.00000000
   --><property name="Dipole moment" method="MCSCF" principal="true" stateSymmetry="6"
     stateNumber="3" value="0.0 0.0 0.0"/><!--



 Results for state 1.7
 =====================

 !MCSCF STATE 1.7 Energy               -0.736255977536
   --><property name="Energy" method="MCSCF" principal="true" stateSymmetry="7" stateNumber="1"
     value="-0.736255977536103"/><!--
 Nuclear energy                         0.00000000
 Kinetic energy                         3.25422244
 One electron energy                   -6.63005157
 Two electron energy                    5.89379560
 Virial ratio                           1.22624636

 !MCSCF STATE 1.7 Dipole moment         0.00000000     0.00000000     0.00000000
 Dipole moment /Debye                   0.00000000     0.00000000     0.00000000
   --><property name="Dipole moment" method="MCSCF" principal="true" stateSymmetry="7"
     stateNumber="1" value="0.0 0.0 0.0"/><!--

 Results for state 2.7
 =====================

 !MCSCF STATE 2.7 Energy               -0.736255977534
   --><property name="Energy" method="MCSCF" principal="true" stateSymmetry="7" stateNumber="2"
     value="-0.736255977534138"/><!--
 Nuclear energy                         0.00000000
 Kinetic energy                         3.25422244
 One electron energy                   -6.63005157
 Two electron energy                    5.89379560
 Virial ratio                           1.22624636

 !MCSCF STATE 2.7 Dipole moment         0.00000000     0.00000000     0.00000000
 Dipole moment /Debye                   0.00000000     0.00000000     0.00000000
   --><property name="Dipole moment" method="MCSCF" principal="true" stateSymmetry="7"
     stateNumber="2" value="0.0 0.0 0.0"/><!--

 Results for state 3.7
 =====================

 !MCSCF STATE 3.7 Energy               -0.694520759262
   --><property name="Energy" method="MCSCF" principal="true" stateSymmetry="7" stateNumber="3"
     value="-0.694520759261603"/><!--
 Nuclear energy                         0.00000000
 Kinetic energy                         3.25422244
 One electron energy                   -6.63005157
 Two electron energy                    5.93553081
 Virial ratio                           1.21342142

 !MCSCF STATE 3.7 Dipole moment         0.00000000     0.00000000     0.00000000
 Dipole moment /Debye                   0.00000000     0.00000000     0.00000000
   --><property name="Dipole moment" method="MCSCF" principal="true" stateSymmetry="7"
     stateNumber="3" value="0.0 0.0 0.0"/><!--

 State-averaged charge density matrix saved on record  5202.2 (density set 1)


 NATURAL ORBITALS (state averaged)
 =================================

   Orb     Occ        Energy       Coefficients

                                   1 1s      1 1s      1 1s      1 1s      1 1s      1 1s      1 1s      1 1s      1 1s      1 1s
                                   1 1s      1 1s      1 1s      1 1s      1 1s      1 1s      1 1s      1 1s      1 1s      1 1s
                                   1 1s      1 1s      1 1s      1 1s      1 1s      1 1s      1 1s      1 1s      1 1s      1 1s
                                   1 1s      1 3d0     1 3d2+    1 3d0     1 3d2+    1 3d0     1 3d2+    1 3d0     1 3d2+    1 3d0
                                   1 3d2+    1 3d0     1 3d2+    1 3d0     1 3d2+    1 3d0     1 3d2+    1 3d0     1 3d2+    1 3d0
                                   1 3d2+    1 3d0     1 3d2+    1 3d0     1 3d2+    1 3d0     1 3d2+    1 3d0     1 3d2+    1 3d0
                                   1 3d2+    1 3d0     1 3d2+    1 3d0     1 3d2+    1 3d0     1 3d2+    1 3d0     1 3d2+    1 3d0
                                   1 3d2+    1 5g0     1 5g4+    1 5g2+    1 5g0     1 5g4+    1 5g2+    1 5g0     1 5g4+    1 5g2+


   1.1  2.00000     0.402502     0.000000 -0.000000  0.000000 -0.000000  0.000000 -0.000000  0.000000 -0.000000  0.000001 -0.000002
                                 0.000007 -0.000020  0.000070 -0.000440  0.001463 -0.001629  0.001355 -0.002680  0.009756 -0.027578
                                 0.067389 -0.122626  0.529073 -0.566796  0.283548 -0.607304  0.271541 -0.139757  1.095159 -0.185062
                                 0.323306  0.000000  0.000000  0.000000  0.000000  0.000000  0.000000  0.000000  0.000000  0.000000
                                 0.000000  0.000000  0.000000  0.000000  0.000000  0.000000  0.000000  0.000000  0.000000  0.000000
                                 0.000000  0.000000  0.000000  0.000000  0.000000  0.000000  0.000000  0.000000  0.000000  0.000000
                                 0.000000  0.000000  0.000000  0.000000  0.000000  0.000000  0.000000  0.000000  0.000000  0.000000
                                 0.000000  0.000000  0.000000  0.000000  0.000000  0.000000  0.000000  0.000000  0.000000  0.000000

   2.1  2.00000     0.466489     0.000000 -0.000000  0.000000 -0.000000  0.000000 -0.000000  0.000001 -0.000003  0.000010 -0.000030
                                 0.000087 -0.000261  0.000932 -0.005828  0.019338 -0.021478  0.018004 -0.035691  0.125036 -0.319592
                                 0.676026 -1.025736  3.243755 -3.109261  0.809813 -1.098616  2.093978 -3.630949  4.598415 -5.178267
                                 3.289696  0.000000  0.000000  0.000000  0.000000  0.000000  0.000000  0.000000  0.000000  0.000000
                                 0.000000  0.000000  0.000000  0.000000  0.000000  0.000000  0.000000  0.000000  0.000000  0.000000
                                 0.000000  0.000000  0.000000  0.000000  0.000000  0.000000  0.000000  0.000000  0.000000  0.000000
                                 0.000000  0.000000  0.000000  0.000000  0.000000  0.000000  0.000000  0.000000  0.000000  0.000000
                                 0.000000  0.000000  0.000000  0.000000  0.000000  0.000000  0.000000  0.000000  0.000000  0.000000

   3.1  0.40000     0.657300     0.000000  0.000000  0.000000  0.000000  0.000000  0.000000  0.000000  0.000000  0.000000  0.000000
                                 0.000000  0.000000  0.000000  0.000000  0.000000  0.000000  0.000000  0.000000  0.000000  0.000000
                                 0.000000  0.000000  0.000000  0.000000  0.000000  0.000000  0.000000  0.000000  0.000000  0.000000
                                 0.000000  0.000001  0.000000 -0.000005  0.000000  0.000027  0.000000 -0.000144  0.000000  0.000685
                                 0.000000 -0.013359  0.000000  0.016567  0.000000 -0.015623  0.000000  0.007651  0.000000  0.005933
                                 0.000000  0.154971  0.000000 -0.448159  0.000000  2.327750  0.000000 -2.332874  0.000000  0.916116
                                 0.000000  0.249898  0.000000  0.192695  0.000000  0.164817  0.000000  0.003926  0.000000  0.010298
                                 0.000000  0.000000  0.000000  0.000000  0.000000  0.000000  0.000000  0.000000  0.000000  0.000000

   4.1  0.40000     0.657300     0.000000  0.000000  0.000000  0.000000  0.000000  0.000000  0.000000  0.000000  0.000000  0.000000
                                 0.000000  0.000000  0.000000  0.000000  0.000000  0.000000  0.000000  0.000000  0.000000  0.000000
                                 0.000000  0.000000  0.000000  0.000000  0.000000  0.000000  0.000000  0.000000  0.000000  0.000000
                                 0.000000  0.000000 -0.000001  0.000000  0.000005  0.000000 -0.000027  0.000000  0.000144  0.000000
                                -0.000685  0.000000  0.013359  0.000000 -0.016567  0.000000  0.015623  0.000000 -0.007651  0.000000
                                -0.005933  0.000000 -0.154971  0.000000  0.448159  0.000000 -2.327749  0.000000  2.332873  0.000000
                                -0.916116  0.000000 -0.249898  0.000000 -0.192695  0.000000 -0.164817  0.000000 -0.003926  0.000000
                                -0.010298  0.000000  0.000000  0.000000  0.000000  0.000000  0.000000  0.000000  0.000000  0.000000

                                   1 2px     1 2px     1 2px     1 2px     1 2px     1 2px     1 2px     1 2px     1 2px     1 2px
                                   1 2px     1 2px     1 2px     1 2px     1 2px     1 2px     1 2px     1 2px     1 2px     1 2px
                                   1 2px     1 2px     1 2px     1 2px     1 2px     1 2px     1 2px     1 2px     1 4f1+    1 4f3+
                                   1 4f1+    1 4f3+    1 4f1+    1 4f3+    1 4f1+    1 4f3+

   1.2  2.00000     0.468603    -0.000000  0.000000 -0.000000  0.000001 -0.000004  0.000016 -0.000057  0.000192 -0.000629  0.002275
                                -0.011614  0.245035 -0.407847  0.784864 -2.071974  3.984515 -4.571487  4.276536 -9.801259 13.067083
                                -7.568180  2.916914 -3.840142  3.715675 -1.228051  1.214642 -1.778967  1.851907  0.000000  0.000000
                                 0.000000  0.000000  0.000000  0.000000  0.000000  0.000000

                                   1 2py     1 2py     1 2py     1 2py     1 2py     1 2py     1 2py     1 2py     1 2py     1 2py
                                   1 2py     1 2py     1 2py     1 2py     1 2py     1 2py     1 2py     1 2py     1 2py     1 2py
                                   1 2py     1 2py     1 2py     1 2py     1 2py     1 2py     1 2py     1 2py     1 4f1-    1 4f3-
                                   1 4f1-    1 4f3-    1 4f1-    1 4f3-    1 4f1-    1 4f3-

   1.3  2.00000     0.468603    -0.000000  0.000000 -0.000000  0.000001 -0.000004  0.000016 -0.000057  0.000192 -0.000629  0.002275
                                -0.011614  0.245035 -0.407847  0.784865 -2.071975  3.984517 -4.571488  4.276537 -9.801259 13.067084
                                -7.568180  2.916914 -3.840142  3.715675 -1.228051  1.214642 -1.778967  1.851907  0.000000  0.000000
                                 0.000000  0.000000  0.000000  0.000000  0.000000  0.000000

                                   1 3d2-    1 3d2-    1 3d2-    1 3d2-    1 3d2-    1 3d2-    1 3d2-    1 3d2-    1 3d2-    1 3d2-
                                   1 3d2-    1 3d2-    1 3d2-    1 3d2-    1 3d2-    1 3d2-    1 3d2-    1 3d2-    1 3d2-    1 3d2-
                                   1 5g2-    1 5g4-    1 5g2-    1 5g4-    1 5g2-    1 5g4-

   1.4  0.40000     0.657300     0.000001 -0.000005  0.000027 -0.000144  0.000685 -0.013359  0.016567 -0.015623  0.007651  0.005933
                                 0.154971 -0.448160  2.327751 -2.332875  0.916116  0.249898  0.192695  0.164817  0.003926  0.010298
                                 0.000000  0.000000  0.000000  0.000000  0.000000  0.000000

                                   1 2pz     1 2pz     1 2pz     1 2pz     1 2pz     1 2pz     1 2pz     1 2pz     1 2pz     1 2pz
                                   1 2pz     1 2pz     1 2pz     1 2pz     1 2pz     1 2pz     1 2pz     1 2pz     1 2pz     1 2pz
                                   1 2pz     1 2pz     1 2pz     1 2pz     1 2pz     1 2pz     1 2pz     1 2pz     1 4f0     1 4f2+
                                   1 4f0     1 4f2+    1 4f0     1 4f2+    1 4f0     1 4f2+

   1.5  2.00000     0.468603    -0.000000  0.000000 -0.000000  0.000001 -0.000004  0.000016 -0.000057  0.000192 -0.000629  0.002275
                                -0.011614  0.245034 -0.407845  0.784861 -2.071965  3.984499 -4.571470  4.276522 -9.801232 13.067052
                                -7.568165  2.916910 -3.840139  3.715673 -1.228051  1.214642 -1.778967  1.851907  0.000000  0.000000
                                 0.000000  0.000000  0.000000  0.000000  0.000000  0.000000

                                   1 3d1+    1 3d1+    1 3d1+    1 3d1+    1 3d1+    1 3d1+    1 3d1+    1 3d1+    1 3d1+    1 3d1+
                                   1 3d1+    1 3d1+    1 3d1+    1 3d1+    1 3d1+    1 3d1+    1 3d1+    1 3d1+    1 3d1+    1 3d1+
                                   1 5g1+    1 5g3+    1 5g1+    1 5g3+    1 5g1+    1 5g3+

   1.6  0.40000     0.657300     0.000001 -0.000005  0.000027 -0.000144  0.000685 -0.013359  0.016567 -0.015623  0.007651  0.005933
                                 0.154971 -0.448160  2.327751 -2.332874  0.916116  0.249898  0.192695  0.164817  0.003926  0.010298
                                 0.000000  0.000000  0.000000  0.000000  0.000000  0.000000

                                   1 3d1-    1 3d1-    1 3d1-    1 3d1-    1 3d1-    1 3d1-    1 3d1-    1 3d1-    1 3d1-    1 3d1-
                                   1 3d1-    1 3d1-    1 3d1-    1 3d1-    1 3d1-    1 3d1-    1 3d1-    1 3d1-    1 3d1-    1 3d1-
                                   1 5g1-    1 5g3-    1 5g1-    1 5g3-    1 5g1-    1 5g3-

   1.7  0.40000     0.657300     0.000001 -0.000005  0.000027 -0.000144  0.000685 -0.013359  0.016567 -0.015623  0.007651  0.005933
                                 0.154971 -0.448159  2.327750 -2.332874  0.916116  0.249898  0.192695  0.164817  0.003926  0.010298
                                 0.000000  0.000000  0.000000  0.000000  0.000000  0.000000

 Total charge:  -8.000000000000


 EXTRA SYMMETRY OF MOS IN SYMMETRY 1:   1 1 2 3 2 3 1 3 2 3   2 1 5 4 6 2 3 1 2 3   6 4 5 1 2 3 1 2 3 5   6 4 2 3 1 2 3 1 2 3
                                        1 2 3 1 2 3 1 2 3 1   2 3 1 1 2 3 1 3 2 1   2 3 1 1 2 3 1 1 2 3   1 1 1 1 1 1 1 1 1 1
 EXTRA SYMMETRY OF MOS IN SYMMETRY 2:   1 1 1 2 3 1 3 2 1 3   2 1 1 3 2 1 1 1 1 1   1 1 1 1 1 1 1 1 1 1   1 1 1 1 1 1
 EXTRA SYMMETRY OF MOS IN SYMMETRY 3:   1 1 1 3 2 1 3 2 1 3   2 1 1 3 2 1 1 1 1 1   1 1 1 1 1 1 1 1 1 1   1 1 1 1 1 1
 EXTRA SYMMETRY OF MOS IN SYMMETRY 5:   1 1 1 3 2 1 3 2 1 3   2 1 1 3 2 1 1 1 1 1   1 1 1 1 1 1 1 1 1 1   1 1 1 1 1 1
 EXTRA SYMMETRY OF MOS IN SYMMETRY 6:   1 1 1 1 3 2 1 1 3 2   1 1 3 2 1 1 1 1 1 1   1 1 1 1 1 1
 EXTRA SYMMETRY OF MOS IN SYMMETRY 7:   1 1 1 1 3 2 1 1 3 2   1 1 3 2 1 1 1 1 1 1   1 1 1 1 1 1

 Natural orbital dump (state averaged) at molpro section  5202.2    (Orbital set 2)


 CI vector for state symmetry 1
 ==============================

 aa 0 0 0          1.0000000

 TOTAL ENERGIES                        -0.73625598

 CI vector for state symmetry 2
 ==============================

 a0 a 0 0          0.9998690   0.0161867   0.0000000
 0a a 0 0         -0.0072389   0.4471550   0.8944272
 00 0 a a         -0.0144779   0.8943100  -0.4472136

 TOTAL ENERGIES                        -0.73625598    -0.73625598    -0.69452076

 CI vector for state symmetry 3
 ==============================

 0a 0 a 0          0.0585513   0.8925087   0.4472136
 00 a 0 a          0.8788056   0.1664352  -0.4472136
 a0 0 a 0          0.4735741  -0.4191987   0.7745967

 TOTAL ENERGIES                        -0.73625598    -0.73625598    -0.69452076

 CI vector for state symmetry 4
 ==============================

 0a 0 0 a          0.2309298   0.8641015  -0.4472136
 00 a a 0          0.7789302  -0.4396222  -0.4472136
 a0 0 0 a          0.5830430   0.2450732   0.7745967

 TOTAL ENERGIES                        -0.73625598    -0.73625598    -0.69452076



 **********************************************************************************************************************************
 DATASETS  * FILE   NREC   LENGTH (MB)   RECORD NAMES
              1      20       27.23       500      610      700      900      950      970     1000      129      960     1100
                                          VAR    BASINP    GEOM    SYMINP    ZMAT    AOBASIS   BASIS     P2S    ABASIS      S
                                         1400     1410     1420     1200     1210     1080     1600     1650     1700     1380
                                           T        V       ECP      H0       H01     AOSYM     SMH    MOLCAS    OPER     JKOP

              2       6        8.68       200      700     1000      520     4202     5202
                                        OPTIONS   GEOM     BASIS   MCVARS     RHF     MCSCF

 PROGRAMS   *        TOTAL     MULTI       POP       RHF       INT
 CPU TIMES  *        49.73      2.33      0.00      1.28     45.57
 REAL TIME  *        52.54 SEC
 DISK USED  *         1.92 GB
 SF USED    *        34.61 MB
 GA USED    *         0.00 MB       (max)       0.00 MB       (current)
 **********************************************************************************************************************************
   -->
   <time start="12:24:06" end="12:24:09" cpu="2.35" system="0.16" real="2.55"/>
   <storage units="megabyte" memory="8001.84" sf="34.61" df="309.47" eaf="1610.21" ga="0.0"/>
  </jobstep><!--
  --><jobstep command="RHF-SCF" commandset="SCFPRO">
   <!--


 PROGRAM * RHF-SCF (OPEN SHELL)       Authors: W. Meyer, H.-J. Werner


 NUMBER OF ELECTRONS:       7+    5-    SPACE SYMMETRY=1    SPIN SYMMETRY: Triplet
 CONVERGENCE THRESHOLDS:    1.00E-05 (Density)    1.00E-07 (Energy)
 MAX. NUMBER OF ITERATIONS:        0
 INTERPOLATION TYPE:            DIIS
 INTERPOLATION STEPS:              2 (START)      1 (STEP)
 LEVEL SHIFTS:                 -0.60 (CLOSED) -0.30 (OPEN)

 Number of closed-shell orbitals:    5 (   2   1   1   0   1   0   0   0 )
 Number of open-shell orbitals:      2 (   2   0   0   0   0   0   0   0 )



 Extra symmetries of mos in symmetry 1:   1   1   3   2
 Molecular orbitals read from record     5202.2  Type=MCSCF/NATURAL (state averaged)

 Molecular orbital dump at record        2101.2

 ITERATION    DDIFF          GRAD             ENERGY        2-EL.EN.            DIPOLE MOMENTS         DIIS   ORB.
    1      0.000D+00      0.000D+00        -0.73625598     11.787591    0.00000    0.00000    0.00000    0    start

 Final alpha occupancy:   4   1   1   0   1   0   0   0
 Final beta  occupancy:   2   1   1   0   1   0   0   0

 !RHF STATE 1.1 Energy                 -0.736255978065
   --><property name="Energy" method="RHF" principal="true" stateSymmetry="1" stateNumber="1"
     value="-0.736255978065321"/><!--
 Nuclear energy                         0.00000000
 One-electron energy                   -6.63005157
 Two-electron energy                    5.89379560
 Virial quotient                       -0.22624636
 !RHF STATE 1.1 Dipole moment           0.00000000     0.00000000     0.00000000
 Dipole moment /Debye                   0.00000000     0.00000000     0.00000000
   --><property name="Dipole moment" method="RHF" principal="true" stateSymmetry="1"
     stateNumber="1" value="0.0 0.0 0.0"/><!--

 Orbital energies:

         1.1          2.1          3.1          4.1          5.1          6.1
      0.402502     0.466489     0.657300     0.657300     0.577205     0.577205

         1.2          2.2          3.2
      0.468603     0.641890     0.762952

         1.3          2.3          3.3
      0.468603     0.641890     0.762952

         1.4          2.4
      0.657300     0.577205

         1.5          2.5          3.5
      0.468603     0.641890     0.762952

         1.6          2.6
      0.657300     0.577205

         1.7          2.7
      0.657300     0.577205

         1.8          2.8
      0.866199     1.331739

 HOMO      4.1     0.657300 =      17.8861eV
 LUMO      5.1     0.577205 =      15.7065eV
 LUMO-HOMO        -0.080096 =      -2.1795eV


 **********************************************************************************************************************************
 DATASETS  * FILE   NREC   LENGTH (MB)   RECORD NAMES
              1      20       27.23       500      610      700      900      950      970     1000      129      960     1100
                                          VAR    BASINP    GEOM    SYMINP    ZMAT    AOBASIS   BASIS     P2S    ABASIS      S
                                         1400     1410     1420     1200     1210     1080     1600     1650     1700     1380
                                           T        V       ECP      H0       H01     AOSYM     SMH    MOLCAS    OPER     JKOP

              2       7       12.09       200      700     1000      520     4202     5202     2101
                                        OPTIONS   GEOM     BASIS   MCVARS     RHF     MCSCF     RHF

 PROGRAMS   *        TOTAL       RHF     MULTI       POP       RHF       INT
 CPU TIMES  *        49.80      0.06      2.33      0.00      1.28     45.57
 REAL TIME  *        52.63 SEC
 DISK USED  *         1.92 GB
 SF USED    *        34.61 MB
 GA USED    *         0.00 MB       (max)       0.00 MB       (current)
 **********************************************************************************************************************************
   -->
   <time start="12:24:09" end="12:24:09" cpu="0.07" system="0.0" real="0.09"/>
   <storage units="megabyte" memory="8001.84" sf="34.61" df="309.47" eaf="1610.21" ga="0.0"/>
  </jobstep><!--
 SETTING SCF(1)         =        -0.73625598  AU
 SETTING _CC_NORM_MAX   =         2.00000000
  --><jobstep command="RCCSD(T)" commandset="CCSD">
   <!--


 PROGRAM * CCSD (Restricted open-shell coupled cluster)     Authors: C. Hampel, H.-J. Werner, 1991, M. Deegan, P.J. Knowles, 1992


 Input parameters for THRESH:

 THRDIS =    1.000000
 ONEINT =    1.00D-15
 TWOINT =    1.00D-15
 ENERGY =    1.00D-05
 COEFF  =    0.001000

 Convergence thresholds:  THRVAR = 1.00D-06  THRDEN = 1.00D-05

 CCSD(T)     terms to be evaluated (factor= 1.000)


 Number of closed-shell orbitals:   5 (   2   1   1   0   1   0   0   0 )
 Number of active  orbitals:        2 (   2   0   0   0   0   0   0   0 )
 Number of external orbitals:     263 (  76  35  35  26  35  26  26   4 )

 Memory could be reduced to 35.35 Mwords without degradation in triples

 Number of N-1 electron functions:              12
 Number of N-2 electron functions:              66
 Number of singly external CSFs:               678
 Number of doubly external CSFs:            494774
 Total number of CSFs:                      495452

 Molecular orbitals read from record     2101.2  Type=RHF/CANONICAL (state 1.1)

 Integral transformation finished. Total CPU:   0.88 sec, npass=  1  Memory used:   4.70 MW

 Starting RMP2 calculation

 Wavefunction is spin-projected

 ITER.      SQ.NORM     CORR.ENERGY   TOTAL ENERGY   ENERGY CHANGE        DEN1      VAR(S)    VAR(P)  DIIS     TIME
   1      1.09304246    -0.07657397    -0.81282994    -0.07657397    -0.01040189  0.84D-04  0.11D-01  1  1     1.20
   2      1.16433592    -0.09401992    -0.83027589    -0.01744595    -0.00133638  0.17D-05  0.17D-02  2  2     1.25
   3      1.21518583    -0.10107665    -0.83733263    -0.00705673    -0.00012040  0.83D-06  0.14D-03  3  3     1.31
   4      1.22814254    -0.10217708    -0.83843306    -0.00110043    -0.00000715  0.45D-07  0.74D-05  4  4     1.38
   5      1.22976845    -0.10227429    -0.83853027    -0.00009721    -0.00000037  0.25D-08  0.37D-06  5  5     1.46
   6      1.22991861    -0.10228583    -0.83854180    -0.00001153    -0.00000002  0.19D-09  0.23D-07  6  6     1.54
   7      1.22993458    -0.10228783    -0.83854381    -0.00000200    -0.00000000  0.25D-10  0.21D-08  6  1     1.61

 Norm of t1 vector:      0.03477637      S-energy:    -0.00123094      T1 diagnostic:  0.00302366
 Norm of t2 vector:      0.47825222      P-energy:    -0.10105689
                                         Alpha-Beta:  -0.07418220
                                         Alpha-Alpha: -0.02105811
                                         Beta-Beta:   -0.00581659

 Spin contamination <S**2-Sz**2-Sz>     0.00000000
  Reference energy                     -0.736255977681
   --><property name="energy" method="Reference" stateSymmetry="1" stateNumber="1"
     value="-0.736255977680809"/><!--
  RHF-RMP2 correlation energy          -0.102287829594
   --><property name="energy" method="RHF-RMP2 correlation" stateSymmetry="1" stateNumber="1"
     value="-0.102287829593545"/><!--
 !RHF-RMP2 energy                      -0.838543807274
   --><property name="energy" method="RHF-RMP2" principal="true" stateSymmetry="1"
     stateNumber="1" value="-0.838543807274354"/><!--
 (NB above energy spin projected)

 Starting RCCSD calculation

 ITER.      SQ.NORM     CORR.ENERGY   TOTAL ENERGY   ENERGY CHANGE        DEN1      VAR(S)    VAR(P)  DIIS     TIME
   1      1.09709726    -0.07819044    -0.81444641    -0.07819044    -0.01255229  0.27D-03  0.12D-01  1  1     2.03
   2      1.18262356    -0.09878887    -0.83504485    -0.02059844    -0.00216913  0.19D-03  0.22D-02  2  2     2.37
   3      1.24628112    -0.10742522    -0.84368119    -0.00863634    -0.00035250  0.60D-04  0.33D-03  3  3     2.73
   4      1.27660554    -0.11060865    -0.84686463    -0.00318344    -0.00009381  0.22D-04  0.84D-04  4  4     3.09
   5      1.28654796    -0.11119823    -0.84745421    -0.00058958    -0.00003061  0.80D-05  0.26D-04  5  5     3.43
   6      1.29328714    -0.11160687    -0.84786285    -0.00040864    -0.00000964  0.23D-05  0.77D-05  6  6     3.80
   7      1.29654270    -0.11178948    -0.84804546    -0.00018261    -0.00000307  0.66D-06  0.24D-05  7  7     4.17
   8      1.29739609    -0.11177967    -0.84803565     0.00000980    -0.00000092  0.22D-06  0.67D-06  8  8     4.55

 Norm of t1 vector:      0.09981116      S-energy:    -0.00113308      T1 diagnostic:  0.01904022
                                                                       D1 diagnostic:  0.05063159
 Norm of t2 vector:      0.53612855      P-energy:    -0.11064660
                                         Alpha-Beta:  -0.08526113
                                         Alpha-Alpha: -0.02095791
                                         Beta-Beta:   -0.00442756

 Doubles amplitudes (print threshold =  0.500E-01):

         I         J         SYM. A    SYM. B    A         B      T(IJ, AB) [Alpha-Alpha]

         6         5         1         4         4         2      0.05193089
         6         5         4         1         2         4     -0.05193089

         I         J         SYM. A    SYM. B    A         B      T(IJ, AB) [Beta-Beta]

         6         5         1         4         4         2      0.05193089
         6         5         4         1         2         4     -0.05193089

         I         J         SYM. A    SYM. B    A         B      T(IJ, AB) [Alpha-Beta]

         1         1         2         2         1         1     -0.07715345
         1         1         3         3         1         1     -0.07715345
         1         1         5         5         1         1     -0.07715376
         2         2         1         1         3         3     -0.05365284
         2         2         1         1         4         4     -0.05365288
         2         2         4         4         2         2     -0.05362922
         2         2         6         6         2         2     -0.05362920
         2         2         7         7         2         2     -0.05362920
         4         1         4         4         1         1      0.05412874
         5         5         1         1         4         4     -0.08198349
         5         5         4         4         2         2     -0.08215695
         5         5         6         6         2         2     -0.08215694
         6         6         1         1         4         4     -0.08198349
         6         6         4         4         2         2     -0.08215695
         6         6         7         7         2         2     -0.08215694
         7         7         1         1         3         3     -0.10706721
         7         7         6         6         2         2     -0.08215695
         7         7         7         7         2         2     -0.08215695
         6         5         7         6         2         2     -0.05071452
         5         6         6         7         2         2     -0.05071452
         7         5         6         1         2         4     -0.05065863
         7         5         7         4         2         2     -0.05071453
         5         7         1         6         4         2     -0.05065863
         5         7         4         7         2         2     -0.05071453
         7         6         6         4         2         2     -0.05071453
         7         6         7         1         2         4      0.05065863
         6         7         1         7         4         2      0.05065863
         6         7         4         6         2         2     -0.05071453

 Spin contamination <S**2-Sz**2-Sz>     0.00000000

 Memory could be reduced to 36.25 Mwords without degradation in triples


 RESULTS
 =======

  Reference energy                     -0.736255977681
   --><property name="energy" method="Reference" stateSymmetry="1" stateNumber="1"
     value="-0.736255977680809"/><!--
  RCCSD singles energy                 -0.001133076485
   --><property name="energy" method="RCCSD singles" stateSymmetry="1" stateNumber="1"
     value="-0.113307648477474E-02"/><!--
  RCCSD pair energy                    -0.110646597466
   --><property name="energy" method="RCCSD pair" stateSymmetry="1" stateNumber="1"
     value="-0.110646597465612"/><!--
  RCCSD correlation energy             -0.111779673950
   --><property name="energy" method="RCCSD correlation" stateSymmetry="1" stateNumber="1"
     value="-0.111779673950387"/><!--
  Triples (T) contribution             -0.007835012458
   --><property name="contribution" method="Triples (T)" stateSymmetry="1" stateNumber="1"
     value="-0.783501245845449E-02"/><!--
  Total correlation energy             -0.119614686409
   --><property name="energy" method="Total correlation" stateSymmetry="1" stateNumber="1"
     value="-0.119614686408842"/><!--

  RHF-RCCSD energy                     -0.848035651631
   --><property name="energy" method="RHF-RCCSD" stateSymmetry="1" stateNumber="1"
     value="-0.848035651631196"/><!--
  RHF-RCCSD[T] energy                  -0.855853552629
   --><property name="energy" method="RHF-RCCSD[T]" stateSymmetry="1" stateNumber="1"
     value="-0.855853552629223"/><!--
  RHF-RCCSD-T energy                   -0.855869033977
   --><property name="energy" method="RHF-RCCSD-T" stateSymmetry="1" stateNumber="1"
     value="-0.855869033976877"/><!--
 !RHF-RCCSD(T) energy                  -0.855870664090
   --><property name="energy" method="RHF-RCCSD(T)" principal="true" stateSymmetry="1"
     stateNumber="1" value="-0.855870664089651"/><!--

 Program statistics:

 Available memory in ccsd:               999999438
 Min. memory needed in ccsd:               1690488
 Max. memory used in ccsd:                 2256166
 Max. memory used in cckext:               1837018 ( 8 integral passes)
 Max. memory used in cckint:               4700626 ( 1 integral passes)



 **********************************************************************************************************************************
 DATASETS  * FILE   NREC   LENGTH (MB)   RECORD NAMES
              1      20       27.23       500      610      700      900      950      970     1000      129      960     1100
                                          VAR    BASINP    GEOM    SYMINP    ZMAT    AOBASIS   BASIS     P2S    ABASIS      S
                                         1400     1410     1420     1200     1210     1080     1600     1650     1700     1380
                                           T        V       ECP      H0       H01     AOSYM     SMH    MOLCAS    OPER     JKOP

              2       7       12.09       200      700     1000      520     4202     5202     2101
                                        OPTIONS   GEOM     BASIS   MCVARS     RHF     MCSCF     RHF

 PROGRAMS   *        TOTAL  RCCSD(T)       RHF     MULTI       POP       RHF       INT
 CPU TIMES  *        59.34      9.50      0.06      2.33      0.00      1.28     45.57
 REAL TIME  *        64.04 SEC
 DISK USED  *         2.95 GB
 SF USED    *       479.07 MB
 GA USED    *         0.00 MB       (max)       0.00 MB       (current)
 **********************************************************************************************************************************
   -->
   <time start="12:24:09" end="12:24:20" cpu="9.54" system="1.04" real="11.41"/>
   <storage units="megabyte" memory="8001.84" sf="479.07" df="1343.07" eaf="1610.21"
     ga="0.0"/>
  </jobstep><!--
 SETTING CCSD(1)        =        -0.85587066  AU

 DO I                   =         2.00000000

 Running procedure=ID3S1
  --><jobstep command="RHF-SCF" commandset="SCFPRO">
   <!--


 PROGRAM * RHF-SCF (OPEN SHELL)       Authors: W. Meyer, H.-J. Werner


 NUMBER OF ELECTRONS:       8+    4-    SPACE SYMMETRY=1    SPIN SYMMETRY: Quintet
 CONVERGENCE THRESHOLDS:    1.00E-05 (Density)    1.00E-07 (Energy)
 MAX. NUMBER OF ITERATIONS:       60
 INTERPOLATION TYPE:            DIIS
 INTERPOLATION STEPS:              2 (START)      1 (STEP)
 LEVEL SHIFTS:                 -0.60 (CLOSED) -0.30 (OPEN)

 Number of closed-shell orbitals:    4 (   1   1   1   0   1   0   0   0 )
 Number of open-shell orbitals:      4 (   1   0   0   1   0   1   1   0 )



 Extra symmetries of mos in symmetry 1:   1   1   3   2
     Symmetry restrictions:    1             1
 Orbital guess generated from atomic densities. Full valence occupancy:    3   0   0   1   0   1   1   0


 Molecular orbital dump at record        4202.2

 ITERATION    DDIFF          GRAD             ENERGY        2-EL.EN.            DIPOLE MOMENTS         DIIS   ORB.
    1      0.000D+00      0.000D+00        -0.22950015     12.073853    0.00000    0.00000    0.00000    0    start
    2      0.000D+00      0.996D-02        -0.44476006     13.147546    0.00000    0.00000    0.00000    1    diag,B
    3      0.255D+01      0.583D-02        -0.50568053     12.918371    0.00000    0.00000    0.00000    2    diag,B
    4      0.243D+01      0.468D-02        -0.61592571     12.612662    0.00000    0.00000    0.00000    3    diag,B
    5      0.693D+01      0.237D-02        -0.65321936     12.563310    0.00000    0.00000    0.00000    4    diag,B
    6      0.289D+01      0.158D-02        -0.67433733     12.479147    0.00000    0.00000    0.00000    5    diag,B
    7      0.583D+00      0.131D-02        -0.69315769     12.373762    0.00000    0.00000    0.00000    6    fixocc
    8      0.242D+00      0.131D-02        -0.69663491     12.354384    0.00000    0.00000    0.00000    7    diag,B
    9      0.559D-01      0.131D-02        -0.70520857     12.300631    0.00000    0.00000    0.00000    8    diag,B
     Orbital  1.1 strongly deviates from fixed occupation: 1.75464  (now: 2.00)
     Orbital  2.1 strongly deviates from fixed occupation: 1.19834  (now: 1.00)
     Note:  Use {hf,nitord=N} to fix occupations at iteration N
            Use {gthresh,occdev=1.0} to suppress deviation warnings
   10      0.222D+00      0.128D-02        -0.73585396     12.211124    0.00000    0.00000    0.00000    9    orth
   11      0.179D+01      0.889D-03        -0.73643403     12.191259    0.00000    0.00000    0.00000    9    diag,B
   12      0.221D+00      0.801D-03        -0.73849096     12.157530    0.00000    0.00000    0.00000    9    diag,B
   13      0.413D+00      0.421D-03        -0.73951117     12.091150    0.00000    0.00000    0.00000    9    diag,B
   14      0.204D+00      0.156D-03        -0.73962499     12.073967    0.00000    0.00000    0.00000    9    diag,B
   15      0.806D-01      0.701D-04        -0.73963139     12.066524    0.00000    0.00000    0.00000    9    diag,B
   16      0.286D-01      0.595D-04        -0.73965282     12.072658    0.00000    0.00000    0.00000    9    diag,B
   17      0.707D-01      0.307D-04        -0.73965749     12.071802    0.00000    0.00000    0.00000    9    diag,B
   18      0.154D-01      0.142D-04        -0.73965866     12.070677    0.00000    0.00000    0.00000    9    diag,B
   19      0.192D-01      0.470D-05        -0.73965880     12.070915    0.00000    0.00000    0.00000    9    diag,B
   20      0.121D-02      0.404D-06        -0.73965880     12.070920    0.00000    0.00000    0.00000    9    orth
   21      0.124D-03      0.235D-06        -0.73965880     12.070931    0.00000    0.00000    0.00000    9    diag,B
   22      0.284D-03      0.883D-07        -0.73965880     12.070935    0.00000    0.00000    0.00000    9    diag,B
   23      0.136D-03      0.914D-07        -0.73965880     12.070936    0.00000    0.00000    0.00000    9    diag,B
   24      0.345D-04      0.579D-07        -0.73965880     12.070937    0.00000    0.00000    0.00000    9    diag,B
   25      0.441D-04      0.325D-07        -0.73965880     12.070938    0.00000    0.00000    0.00000    9    diag,B
   26      0.120D-03      0.626D-07        -0.73965880     12.070939    0.00000    0.00000    0.00000    9    diag,B
   27      0.288D-04      0.922D-07        -0.73965880     12.070939    0.00000    0.00000    0.00000    9    diag,B
   28      0.242D-04      0.109D-06        -0.73965880     12.070939    0.00000    0.00000    0.00000    9    diag,B
[...]
                                -0.000061 -0.000000 -0.000173  0.000000 -0.000122 -0.000000

   3.4   0     0.7520    0.3220  0.000002 -0.000015  0.000083 -0.000390  0.002035 -0.036594  0.047011 -0.023597  0.051736 -0.360703
                                 2.327425 -6.743732 20.060871-18.885631  3.855604 -1.915964  1.913895 -1.649397  2.342472 -0.693250
                                -0.000285 -0.000000 -0.000596  0.000000 -0.000332 -0.000000

                                   1 2pz     1 2pz     1 2pz     1 2pz     1 2pz     1 2pz     1 2pz     1 2pz     1 2pz     1 2pz
                                   1 2pz     1 2pz     1 2pz     1 2pz     1 2pz     1 2pz     1 2pz     1 2pz     1 2pz     1 2pz
                                   1 2pz     1 2pz     1 2pz     1 2pz     1 2pz     1 2pz     1 2pz     1 2pz     1 4f0     1 4f2+
                                   1 4f0     1 4f2+    1 4f0     1 4f2+    1 4f0     1 4f2+

   1.5   2     0.4689    0.1939 -0.000000  0.000000 -0.000000  0.000001 -0.000004  0.000016 -0.000058  0.000193 -0.000632  0.002283
                                -0.011654  0.245848 -0.409186  0.787334 -2.078272  3.996197 -4.584433  4.288019 -9.825633 13.098229
                                -7.584917  2.922353 -3.844954  3.721627 -1.231895  1.210482 -1.783120  1.854202 -0.000057  0.000000
                                -0.000171 -0.000000 -0.000459  0.000000 -0.000275 -0.000000

   2.5   0     0.6327   -0.0227  0.000000 -0.000000  0.000000 -0.000001  0.000002 -0.000010  0.000037 -0.000123  0.000404 -0.001459
                                 0.007447 -0.157145  0.261610 -0.504008  1.332006 -2.565349  2.948344 -2.766666  6.351882 -8.458460
                                 4.866156 -1.834618  2.318153 -2.337156  0.886215 -0.449077  1.548645 -0.613776 -0.002507  0.000000
                                -0.008183  0.000000 -0.019637  0.000000 -0.020027  0.000000

   3.5   0     0.7548    0.2705 -0.000000  0.000000 -0.000000  0.000002 -0.000007  0.000031 -0.000112  0.000376 -0.001233  0.004457
                                -0.022762  0.480432 -0.799738  1.539639 -4.066290  7.823754 -8.981808  8.413307-19.356113 25.887848
                               -15.099869  5.922606 -8.148591  7.877906 -2.640141  3.480350 -2.933857  0.908802 -0.002900 -0.000000
                                -0.010706  0.000000 -0.020486 -0.000000 -0.046508  0.000000

                                   1 3d1+    1 3d1+    1 3d1+    1 3d1+    1 3d1+    1 3d1+    1 3d1+    1 3d1+    1 3d1+    1 3d1+
                                   1 3d1+    1 3d1+    1 3d1+    1 3d1+    1 3d1+    1 3d1+    1 3d1+    1 3d1+    1 3d1+    1 3d1+
                                   1 5g1+    1 5g3+    1 5g1+    1 5g3+    1 5g1+    1 5g3+

   1.6   +     0.3875   -0.7962  0.000001 -0.000004  0.000024 -0.000127  0.000606 -0.011815  0.014654 -0.013746  0.006712  0.005205
                                 0.137074 -0.407605  2.105643 -2.116118  0.823178  0.223744  0.225767  0.235032  0.027542  0.027662
                                -0.000370 -0.000979 -0.001181 -0.003124 -0.001146 -0.003031

   2.6   0     0.5774    0.2969 -0.000002  0.000013 -0.000071  0.000335 -0.001729  0.031356 -0.040120  0.022045 -0.041268  0.271255
                                -1.794452  5.183199-15.610109 14.702612 -3.096697  1.298972 -1.390741  0.991478 -1.286216  1.498532
                                 0.000022  0.000058  0.000061  0.000162  0.000043  0.000114

   3.6   0     0.7520    0.3220  0.000002 -0.000015  0.000083 -0.000390  0.002035 -0.036594  0.047010 -0.023597  0.051736 -0.360703
                                 2.327424 -6.743728 20.060861-18.885622  3.855603 -1.915964  1.913895 -1.649397  2.342472 -0.693250
                                 0.000101  0.000267  0.000211  0.000558  0.000117  0.000310

                                   1 3d1-    1 3d1-    1 3d1-    1 3d1-    1 3d1-    1 3d1-    1 3d1-    1 3d1-    1 3d1-    1 3d1-
                                   1 3d1-    1 3d1-    1 3d1-    1 3d1-    1 3d1-    1 3d1-    1 3d1-    1 3d1-    1 3d1-    1 3d1-
                                   1 5g1-    1 5g3-    1 5g1-    1 5g3-    1 5g1-    1 5g3-

   1.7   +     0.3875   -0.7962  0.000001 -0.000004  0.000024 -0.000127  0.000606 -0.011815  0.014654 -0.013746  0.006712  0.005205
                                 0.137074 -0.407605  2.105643 -2.116118  0.823179  0.223744  0.225767  0.235032  0.027542  0.027662
                                -0.000370  0.000979 -0.001181  0.003124 -0.001146  0.003031

   2.7   0     0.5774    0.2969 -0.000002  0.000013 -0.000071  0.000335 -0.001729  0.031356 -0.040120  0.022045 -0.041268  0.271255
                                -1.794453  5.183200-15.610113 14.702617 -3.096698  1.298972 -1.390741  0.991478 -1.286216  1.498532
                                 0.000022 -0.000058  0.000061 -0.000162  0.000043 -0.000114

   3.7   0     0.7520    0.3220  0.000002 -0.000015  0.000083 -0.000390  0.002035 -0.036594  0.047011 -0.023597  0.051736 -0.360703
                                 2.327425 -6.743731 20.060868-18.885628  3.855603 -1.915964  1.913895 -1.649397  2.342472 -0.693250
                                 0.000101 -0.000267  0.000211 -0.000558  0.000117 -0.000310

                                   1 4f2-    1 4f2-    1 4f2-    1 4f2-

   1.8   0     0.8609    0.4214 -0.002570  0.052061 -0.089675  1.040150

   2.8   0     1.3110    0.9683  0.078366  0.000992  1.159967 -0.570650

 HOMO      1.5     0.468902 =      12.7595eV
 LUMO      3.1     0.576936 =      15.6992eV
 LUMO-HOMO         0.108034 =       2.9398eV


 **********************************************************************************************************************************
 DATASETS  * FILE   NREC   LENGTH (MB)   RECORD NAMES
              1      20       27.23       500      610      700      900      950      970     1000      129      960     1100
                                          VAR    BASINP    GEOM    SYMINP    ZMAT    AOBASIS   BASIS     P2S    ABASIS      S
                                         1400     1410     1420     1200     1210     1080     1600     1650     1700     1380
                                           T        V       ECP      H0       H01     AOSYM     SMH    MOLCAS    OPER     JKOP

              2       7       12.09       200      700     1000      520     4202     5202     2101
                                        OPTIONS   GEOM     BASIS   MCVARS     RHF     MCSCF     RHF

 PROGRAMS   *        TOTAL       RHF  RCCSD(T)       RHF     MULTI       POP       RHF       INT
 CPU TIMES  *        60.72      1.37      9.50      0.06      2.33      0.00      1.28     45.57
 REAL TIME  *        65.62 SEC
 DISK USED  *         2.95 GB
 SF USED    *       479.07 MB
 GA USED    *         0.00 MB       (max)       0.00 MB       (current)
 **********************************************************************************************************************************
   -->
   <time start="12:24:20" end="12:24:22" cpu="1.38" system="0.19" real="1.58"/>
   <storage units="megabyte" memory="8001.84" sf="479.07" df="1343.07" eaf="1610.21"
     ga="0.0"/>
  </jobstep><!--
  --><jobstep command="POP" commandset="POP">
   <!--


 PROGRAM * POP (Mulliken population analysis)


 Density matrix read from record         4202.2  Type=RHF/CHARGE (state 1.1)

 Population analysis by basis function type

 Unique atom        s        p        d        f        g    Total    Charge
   1  ZR      2.99976  6.00000  2.99989  0.00000  0.00035 12.00000  - 8.00000


 **********************************************************************************************************************************
 DATASETS  * FILE   NREC   LENGTH (MB)   RECORD NAMES
              1      20       27.23       500      610      700      900      950      970     1000      129      960     1100
                                          VAR    BASINP    GEOM    SYMINP    ZMAT    AOBASIS   BASIS     P2S    ABASIS      S
                                         1400     1410     1420     1200     1210     1080     1600     1650     1700     1380
                                           T        V       ECP      H0       H01     AOSYM     SMH    MOLCAS    OPER     JKOP

              2       7       12.09       200      700     1000      520     4202     5202     2101
                                        OPTIONS   GEOM     BASIS   MCVARS     RHF     MCSCF     RHF

 PROGRAMS   *        TOTAL       POP       RHF  RCCSD(T)       RHF     MULTI       POP       RHF       INT
 CPU TIMES  *        60.73      0.00      1.37      9.50      0.06      2.33      0.00      1.28     45.57
 REAL TIME  *        65.63 SEC
 DISK USED  *         2.95 GB
 SF USED    *       479.07 MB
 GA USED    *         0.00 MB       (max)       0.00 MB       (current)
 **********************************************************************************************************************************
   -->
   <time start="12:24:22" end="12:24:22" cpu="0.01" system="0.0" real="0.01"/>
   <storage units="megabyte" memory="8001.84" sf="479.07" df="1343.07" eaf="1610.21"
     ga="0.0"/>
  </jobstep><!--
  --><jobstep command="MULTI" commandset="MULTI">
   <!--


 PROGRAM * MULTI (Direct Multiconfiguration SCF)       Authors: P.J. Knowles, H.-J. Werner (1984)     S.T. Elbert (1988)


 Number of closed-shell orbitals:   4 (   1   1   1   0   1   0   0   0 )
 Number of active  orbitals:        6 (   3   0   0   1   0   1   1   0 )
 Number of external orbitals:     260 (  76  35  35  25  35  25  25   4 )

 State symmetry 1

 Orbital occupancy restrictions for symmetry 4
  1      1       200000

 Number of electrons:     4    Spin symmetry=Quintet   Space symmetry=4
 Number of states:        3
 Number of CSFs:          3

 State symmetry 2

 Orbital occupancy restrictions for symmetry 6
  1      1       200000

 Number of electrons:     4    Spin symmetry=Quintet   Space symmetry=6
 Number of states:        3
 Number of CSFs:          3

 State symmetry 3

 Orbital occupancy restrictions for symmetry 7
  1      1       200000

 Number of electrons:     4    Spin symmetry=Quintet   Space symmetry=7
 Number of states:        3
 Number of CSFs:          3

 State symmetry 4

 Orbital occupancy restrictions for symmetry 1
  1      1       200000

 Number of electrons:     4    Spin symmetry=Quintet   Space symmetry=1
 Number of states:        1
 Number of CSFs:          1

 Maximum number of shells:             1
 Maximum number of spin couplings:     1

 Storage for configuration lists      60, coupling coefficients      4, address lists    405

 Molecular orbitals read from record     4202.2  Type=RHF/CANONICAL (state 1.1)
 *** IN SYMMETRY 1 ORBITAL  2 SYMMETRY CONTAMINATION OF 0.634D-02 HAS BEEN REMOVED
 *** IN SYMMETRY 1 ORBITAL  3 SYMMETRY CONTAMINATION OF 0.663D-01 HAS BEEN REMOVED
 *** IN SYMMETRY 1 ORBITAL  4 SYMMETRY CONTAMINATION OF 0.663D-01 HAS BEEN REMOVED

 EXTRA SYMMETRY OF MOS IN SYMMETRY 1:   1 1 3 2 2 3 1 2 3 1   2 3 6 5 4 2 3 1 2 3   6 5 1 1 2 3 1 2 3 5   6 4 2 3 1 2 3 1 2 3
                                        1 2 3 1 2 3 1 2 3 1   2 3 1 1 2 3 1 2 3 1   2 3 1 1 2 3 1 1 3 2   1 1 1 1 1 1 1 1 1 4
 *** IN SYMMETRY 2 ORBITAL  1 SYMMETRY CONTAMINATION OF 0.213D-04 HAS BEEN REMOVED
 EXTRA SYMMETRY OF MOS IN SYMMETRY 2:   1 1 1 2 1 1 2 1 1 2   1 1 1 2 3 1 1 1 1 1   1 1 1 1 1 1 1 1 1 1   1 1 1 3 3 3
 *** IN SYMMETRY 3 ORBITAL  1 SYMMETRY CONTAMINATION OF 0.213D-04 HAS BEEN REMOVED
 EXTRA SYMMETRY OF MOS IN SYMMETRY 3:   1 1 1 2 1 1 2 1 1 2   1 1 1 2 3 1 1 1 1 1   1 1 1 1 1 1 1 1 1 1   1 1 1 3 3 3
 *** IN SYMMETRY 4 ORBITAL  1 SYMMETRY CONTAMINATION OF 0.119D-02 HAS BEEN REMOVED
 EXTRA SYMMETRY OF MOS IN SYMMETRY 4:   1 1 1 1 2 3 1 1 2 3   1 1 2 3 1 1 1 1 1 1   1 1 1 1 1 1
 *** IN SYMMETRY 5 ORBITAL  1 SYMMETRY CONTAMINATION OF 0.152D-04 HAS BEEN REMOVED
 EXTRA SYMMETRY OF MOS IN SYMMETRY 5:   1 1 1 3 2 1 3 1 1 3   1 1 1 3 1 1 1 1 1 1   1 1 1 1 1 1 1 1 1 1   1 1 1 2 2 2
 *** IN SYMMETRY 6 ORBITAL  1 SYMMETRY CONTAMINATION OF 0.154D-02 HAS BEEN REMOVED
 EXTRA SYMMETRY OF MOS IN SYMMETRY 6:   1 1 1 1 3 2 1 1 3 2   1 1 3 2 1 1 1 1 1 1   1 1 1 1 1 1
 *** IN SYMMETRY 7 ORBITAL  1 SYMMETRY CONTAMINATION OF 0.154D-02 HAS BEEN REMOVED
 EXTRA SYMMETRY OF MOS IN SYMMETRY 7:   1 1 1 1 3 2 1 1 3 2   1 1 3 2 1 1 1 1 1 1   1 1 1 1 1 1

 Wavefunction dump at record             5202.2

 Convergence thresholds  0.10E-01 (gradient)  0.10E-05 (energy)  0.10E-02 (step length)

 Weight factors for state symmetry  1:    0.10000   0.10000   0.10000
 Weight factors for state symmetry  2:    0.10000   0.10000   0.10000
 Weight factors for state symmetry  3:    0.10000   0.10000   0.10000
 Weight factors for state symmetry  4:    0.10000

 Eigenvalues of redundancy matrix
   1-  3    0.000000    1.000265    2.711637

 Non-redundant active-active orbital rotations:
     1  2  3  4  5
  2  +
  3  +
  4
  5
  6

 Number of orbital rotations:      489   (     3 Core/Active    181 Core/Virtual   2 Active/Active    303 Active/Virtual)
 Total number of variables:        517


 ITER. MIC  NCI  NEG     ENERGY(VAR)     ENERGY(PROJ)   ENERGY CHANGE     GRAD(0)  GRAD(ORB)   GRAD(CI)     STEP       TIME

   1   50   28    0      -0.53658220      -0.79610394   -0.25952174    0.23305247 1.25916878 0.00000000  0.14D+01      0.52
   2   36   32    0       1.95769522      -0.72279710   -2.68049231   *********** 0.00005935 0.00000000  0.40D+00      1.07
   3   34   32    0      -0.72671012      -0.72827753   -0.00156741    0.02250184 0.00000395 0.00000000  0.81D-01      1.58
   4   45   32    0      -0.72833452      -0.72834030   -0.00000579    0.00125480 0.00000000 0.00000000  0.49D-02      2.10
   5   59   20    0      -0.72834032      -0.72834032    0.00000000    0.00000498 0.00000000 0.00000000  0.20D-04      2.49

 ** WVFN ****  CONVERGENCE REACHED, FINAL GRADIENT:  0.19D-06



 Results for state 1.4
 =====================

 !MCSCF STATE 1.4 Energy               -0.739216991335
   --><property name="Energy" method="MCSCF" principal="true" stateSymmetry="4" stateNumber="1"
     value="-0.739216991334875"/><!--
 Nuclear energy                         0.00000000
 Kinetic energy                         3.91732344
 One electron energy                   -6.76986405
 Two electron energy                    6.03064706
 Virial ratio                           1.18870461

 !MCSCF STATE 1.4 Dipole moment         0.00000000     0.00000000     0.00000000
 Dipole moment /Debye                   0.00000000     0.00000000     0.00000000
   --><property name="Dipole moment" method="MCSCF" principal="true" stateSymmetry="4"
     stateNumber="1" value="0.0 0.0 0.0"/><!--

 Results for state 2.4
 =====================

 !MCSCF STATE 2.4 Energy               -0.739216991334
   --><property name="Energy" method="MCSCF" principal="true" stateSymmetry="4" stateNumber="2"
     value="-0.739216991333609"/><!--
 Nuclear energy                         0.00000000
 Kinetic energy                         3.91732344
 One electron energy                   -6.76986405
 Two electron energy                    6.03064706
 Virial ratio                           1.18870461

 !MCSCF STATE 2.4 Dipole moment         0.00000000     0.00000000     0.00000000
 Dipole moment /Debye                   0.00000000     0.00000000     0.00000000
   --><property name="Dipole moment" method="MCSCF" principal="true" stateSymmetry="4"
     stateNumber="2" value="0.0 0.0 0.0"/><!--

 Results for state 3.4
 =====================

 !MCSCF STATE 3.4 Energy               -0.702961422368
   --><property name="Energy" method="MCSCF" principal="true" stateSymmetry="4" stateNumber="3"
     value="-0.702961422368076"/><!--
 Nuclear energy                         0.00000000
 Kinetic energy                         3.91732344
 One electron energy                   -6.76986405
 Two electron energy                    6.06690263
 Virial ratio                           1.17944942

 !MCSCF STATE 3.4 Dipole moment         0.00000000     0.00000000     0.00000000
 Dipole moment /Debye                   0.00000000     0.00000000     0.00000000
   --><property name="Dipole moment" method="MCSCF" principal="true" stateSymmetry="4"
     stateNumber="3" value="0.0 0.0 0.0"/><!--



 Results for state 1.6
 =====================

 !MCSCF STATE 1.6 Energy               -0.739216991336
   --><property name="Energy" method="MCSCF" principal="true" stateSymmetry="6" stateNumber="1"
     value="-0.739216991335965"/><!--
 Nuclear energy                         0.00000000
 Kinetic energy                         3.91732344
 One electron energy                   -6.76986405
 Two electron energy                    6.03064706
 Virial ratio                           1.18870461

 !MCSCF STATE 1.6 Dipole moment         0.00000000     0.00000000     0.00000000
 Dipole moment /Debye                   0.00000000     0.00000000     0.00000000
   --><property name="Dipole moment" method="MCSCF" principal="true" stateSymmetry="6"
     stateNumber="1" value="0.0 0.0 0.0"/><!--

 Results for state 2.6
 =====================

 !MCSCF STATE 2.6 Energy               -0.739216991333
   --><property name="Energy" method="MCSCF" principal="true" stateSymmetry="6" stateNumber="2"
     value="-0.739216991333474"/><!--
 Nuclear energy                         0.00000000
 Kinetic energy                         3.91732344
 One electron energy                   -6.76986405
 Two electron energy                    6.03064706
 Virial ratio                           1.18870461

 !MCSCF STATE 2.6 Dipole moment         0.00000000     0.00000000     0.00000000
 Dipole moment /Debye                   0.00000000     0.00000000     0.00000000
   --><property name="Dipole moment" method="MCSCF" principal="true" stateSymmetry="6"
     stateNumber="2" value="0.0 0.0 0.0"/><!--

 Results for state 3.6
 =====================

 !MCSCF STATE 3.6 Energy               -0.702961422364
   --><property name="Energy" method="MCSCF" principal="true" stateSymmetry="6" stateNumber="3"
     value="-0.70296142236422"/><!--
 Nuclear energy                         0.00000000
 Kinetic energy                         3.91732344
 One electron energy                   -6.76986405
 Two electron energy                    6.06690263
 Virial ratio                           1.17944942

 !MCSCF STATE 3.6 Dipole moment         0.00000000     0.00000000     0.00000000
 Dipole moment /Debye                   0.00000000     0.00000000     0.00000000
   --><property name="Dipole moment" method="MCSCF" principal="true" stateSymmetry="6"
     stateNumber="3" value="0.0 0.0 0.0"/><!--



 Results for state 1.7
 =====================

 !MCSCF STATE 1.7 Energy               -0.739216991336
   --><property name="Energy" method="MCSCF" principal="true" stateSymmetry="7" stateNumber="1"
     value="-0.739216991336075"/><!--
 Nuclear energy                         0.00000000
 Kinetic energy                         3.91732344
 One electron energy                   -6.76986405
 Two electron energy                    6.03064706
 Virial ratio                           1.18870461

 !MCSCF STATE 1.7 Dipole moment         0.00000000     0.00000000     0.00000000
 Dipole moment /Debye                   0.00000000     0.00000000     0.00000000
   --><property name="Dipole moment" method="MCSCF" principal="true" stateSymmetry="7"
     stateNumber="1" value="0.0 0.0 0.0"/><!--

 Results for state 2.7
 =====================

 !MCSCF STATE 2.7 Energy               -0.739216991334
   --><property name="Energy" method="MCSCF" principal="true" stateSymmetry="7" stateNumber="2"
     value="-0.739216991334291"/><!--
 Nuclear energy                         0.00000000
 Kinetic energy                         3.91732344
 One electron energy                   -6.76986405
 Two electron energy                    6.03064706
 Virial ratio                           1.18870461

