<?xml version="1.0"?>
<molpro xmlns="http://www.molpro.net/schema/molpro-output"
  xmlns:xsd="http://www.w3.org/1999/XMLSchema"
  xmlns:cml="http://www.xml-cml.org/schema"
  xmlns:stm="http://www.xml-cml.org/schema"
  xmlns:xhtml="http://www.w3.org/1999/xhtml">
 <!--

 Nodes     nprocs
 nid00747    11
 Number of processes for MPI-2 version of Molpro:   nprocs(total)=   12   nprocs(compute)=   11   nprocs(helper)=    1

 Using customized tuning parameters: mindgm=7; mindgv=16; mindgc=1; mindgr=1; noblas=0; minvec=7
 default implementation of scratch files=sf

 --><job>
  <!--

 Variables initialized (889), CPU time= 0.02 sec
 Commands  initialized (702), CPU time= 0.02 sec, 572 directives.
 Default parameters read. Elapsed time= 0.14 sec

 Checking input...
 Passed
1


                                         ***  PROGRAM SYSTEM MOLPRO  ***
                                       Copyright, TTI GmbH Stuttgart, 2015
                                    Version 2015.1 linked Dec 29 2018 15:55:43


 **********************************************************************************************************************************
 LABEL *   Calculation for Y atom, singlet and triplet
  64 bit mpp version                                                                     DATE: 06-May-23          TIME: 09:46:23
 **********************************************************************************************************************************

 SHA1:             19cd028119e0e09f93f0674bd8af7968d9b3eff6
 **********************************************************************************************************************************
  -->
  <!--

 THRESHOLDS:

 ZERO    =  1.00D-12  ONEINT  =  1.00D-12  TWOINT  =  1.00D-15  PREFAC  =  1.00D-14  LOCALI  =  1.00D-09  EORDER  =  1.00D-04
 ENERGY  =  0.00D+00  ETEST   =  0.00D+00  EDENS   =  0.00D+00  THRDEDEF=  1.00D-06  GRADIENT=  1.00D-02  STEP    =  1.00D-03
 ORBITAL =  1.00D-05  CIVEC   =  1.00D-05  COEFF   =  1.00D-04  PRINTCI =  5.00D-02  PUNCHCI =  9.90D+01  OPTGRAD =  3.00D-04
 OPTENERG=  1.00D-06  OPTSTEP =  3.00D-04  THRGRAD =  1.00D-10  COMPRESS=  1.00D-11  VARMIN  =  1.00D-07  VARMAX  =  1.00D-03
 THRDOUB =  0.00D+00  THRDIV  =  1.00D-05  THRRED  =  1.00D-07  THRPSP  =  1.00D+00  THRDC   =  1.00D-10  THRCS   =  1.00D-10
 THRNRM  =  1.00D-08  THREQ   =  0.00D+00  THRDE   =  1.00D+00  THRREF  =  1.00D-05  SPARFAC =  1.00D+00  THRDLP  =  1.00D-07
 THRDIA  =  1.00D-10  THRDLS  =  1.00D-07  THRGPS  =  0.00D+00  THRKEX  =  0.00D+00  THRDIS  =  2.00D-01  THRVAR  =  1.00D-10
 THRLOC  =  1.00D-06  THRGAP  =  1.00D-06  THRLOCT = -1.00D+00  THRGAPT = -1.00D+00  THRORB  =  1.00D-06  THRMLTP =  0.00D+00
 THRCPQCI=  1.00D-10  KEXTA   =  0.00D+00  THRCOARS=  0.00D+00  SYMTOL  =  1.00D-06  GRADTOL =  1.00D-06  THROVL  =  1.00D-08
 THRORTH =  1.00D-08  GRID    =  1.00D-06  GRIDMAX =  1.00D-03  DTMAX   =  0.00D+00  THROCCDE=  1.00D-01  THROCCDE=  1.00D-01



 THRESHOLDS:

 ZERO    =  1.00D-12  ONEINT  =  1.00D-12  TWOINT  =  1.00D-15  PREFAC  =  1.00D-14  LOCALI  =  1.00D-09  EORDER  =  1.00D-04
 ENERGY  =  0.00D+00  ETEST   =  0.00D+00  EDENS   =  0.00D+00  THRDEDEF=  1.00D-06  GRADIENT=  1.00D-02  STEP    =  1.00D-03
 ORBITAL =  1.00D-05  CIVEC   =  1.00D-05  COEFF   =  1.00D-04  PRINTCI =  5.00D-02  PUNCHCI =  9.90D+01  OPTGRAD =  3.00D-04
 OPTENERG=  1.00D-06  OPTSTEP =  3.00D-04  THRGRAD =  1.00D-10  COMPRESS=  1.00D-11  VARMIN  =  1.00D-07  VARMAX  =  1.00D-03
 THRDOUB =  0.00D+00  THRDIV  =  1.00D-05  THRRED  =  1.00D-07  THRPSP  =  1.00D+00  THRDC   =  1.00D-10  THRCS   =  1.00D-10
 THRNRM  =  1.00D-08  THREQ   =  0.00D+00  THRDE   =  1.00D+00  THRREF  =  1.00D-05  SPARFAC =  1.00D+00  THRDLP  =  1.00D-07
 THRDIA  =  1.00D-10  THRDLS  =  1.00D-07  THRGPS  =  0.00D+00  THRKEX  =  0.00D+00  THRDIS  =  2.00D-01  THRVAR  =  1.00D-10
 THRLOC  =  1.00D-06  THRGAP  =  1.00D-06  THRLOCT = -1.00D+00  THRGAPT = -1.00D+00  THRORB  =  1.00D-06  THRMLTP =  0.00D+00
 THRCPQCI=  1.00D-10  KEXTA   =  0.00D+00  THRCOARS=  0.00D+00  SYMTOL  =  1.00D-06  GRADTOL =  1.00D-06  THROVL  =  1.00D-15
 THRORTH =  1.00D-08  GRID    =  1.00D-06  GRIDMAX =  1.00D-03  DTMAX   =  0.00D+00  THROCCDE=  1.00D-01  THROCCDE=  1.00D-01



 Variable memory set to 1000000000 words,  buffer space   230000 words

 SETTING BASIS          =    USERDEF
 SETTING LU_CCSD        =       -40.31910530
 SETTING O_CCSD         =       -15.86622096
 SETTING NE             =        17.00000000
 SETTING SYMM           =         1.00000000
 SETTING SS             =         1.00000000
 SETTING A1             =         5.00000000
 SETTING B1             =         2.00000000
 SETTING B2             =         2.00000000
 SETTING A2             =     0.00000000D+00

Geometry recognized as XYZ

  --><jobstep command="RHF-SCF" commandset="SCFPRO">
   <!--


 Recomputing integrals since basis changed


 Using spherical harmonics



 PROGRAM * SEWARD (Integral evaluation for generally contracted gaussian basis sets)     Author: Roland Lindh, 1990

 Geometry written to block  1 of record 700


 Point group  C2v


   --><cml:molecule>
    <cml:symmetry pointGroup="C2v"/>
    <cml:atomArray>
     <cml:atom id="a1" elementType="Lu" x3="0.0" y3="0.0" z3="0.0"/>
     <cml:atom id="a2" elementType="O" x3="0.0" y3="0.0" z3="2.3"/>
    </cml:atomArray>
    <cml:bondArray>
     <cml:bond atomRefs2="a1 a2"/>
    </cml:bondArray>
   </cml:molecule><!--

 ATOMIC COORDINATES

 NR  ATOM    CHARGE       X              Y              Z

   1  LU     11.00    0.000000000    0.000000000    0.000000000
   2  O       6.00    0.000000000    0.000000000    4.346370086

 Bond lengths in Bohr (Angstrom)

 1-2  4.346370086
     ( 2.300000000)

 NUCLEAR CHARGE:                   17
 NUMBER OF PRIMITIVE AOS:         584
 NUMBER OF SYMMETRY AOS:          451
 NUMBER OF CONTRACTIONS:          451   ( 180A1  + 108B1  + 108B2  +  55A2  )
 NUMBER OF CORE ORBITALS:           0   (   0A1  +   0B1  +   0B2  +   0A2  )
 NUMBER OF VALENCE ORBITALS:       14   (   7A1  +   3B1  +   3B2  +   1A2  )


 NUCLEAR REPULSION ENERGY   15.18508518

 EXTRA SYMMETRY OF AOS IN SYMMETRY 1:   1 1 1 1 1 1 1 1 1 1   1 1 1 1 1 1 1 1 1 1   1 1 1 1 1 1 1 1 1 1   1 1 1 1 1 1 1 1 1 1
                                        1 1 1 1 1 1 1 1 1 1   1 1 1 1 1 1 1 1 1 2   1 2 1 2 1 2 1 2 1 2   1 2 1 2 1 2 1 2 1 2
                                        1 2 1 2 1 2 1 2 1 2   1 2 1 2 1 2 1 2 1 2   1 2 1 2 1 2 1 2 1 2   1 2 1 2 1 2 1 2 1 2
                                        1 3 2 1 3 2 1 3 2 1   3 2 1 3 2 1 3 2 2 3   1 2 3 1 2 3 1 1 1 1   1 1 1 1 1 1 1 1 1 1
                                        1 1 1 1 1 1 1 1 1 2   1 2 1 2 1 2 1 2 1 2
 EXTRA SYMMETRY OF AOS IN SYMMETRY 2:   1 1 1 1 1 1 1 1 1 1   1 1 1 1 1 1 1 1 1 1   1 1 1 1 1 1 1 1 1 1   1 1 1 1 1 1 1 1 1 1
                                        1 1 1 1 1 1 2 1 2 1   2 1 2 1 2 1 2 1 2 1   2 1 2 1 2 1 2 1 2 1   2 1 2 1 2 1 2 1 2 1
                                        2 1 2 1 2 3 1 2 3 1   2 3 1 1 1 1 1 1 1 1   1 1 1 1 1 2 1 2
 EXTRA SYMMETRY OF AOS IN SYMMETRY 3:   1 1 1 1 1 1 1 1 1 1   1 1 1 1 1 1 1 1 1 1   1 1 1 1 1 1 1 1 1 1   1 1 1 1 1 1 1 1 1 1
                                        1 1 1 1 1 1 2 1 2 1   2 1 2 1 2 1 2 1 2 1   2 1 2 1 2 1 2 1 2 1   2 1 2 1 2 1 2 1 2 1
                                        2 1 2 1 2 3 1 2 3 1   2 3 1 1 1 1 1 1 1 1   1 1 1 1 1 2 1 2
 EXTRA SYMMETRY OF AOS IN SYMMETRY 4:   1 1 1 1 1 1 1 1 1 1   1 1 1 1 1 1 1 1 1 1   1 1 1 1 1 1 1 1 1 1   1 1 2 1 2 1 2 1 2 1
                                        2 1 2 2 1 2 1 2 1 1   1 1 1 1 1

 Eigenvalues of metric

         1 0.863E-05 0.121E-04 0.369E-04 0.478E-04 0.678E-04 0.747E-04 0.105E-03 0.186E-03
         2 0.122E-04 0.175E-04 0.105E-03 0.490E-03 0.644E-03 0.156E-02 0.220E-02 0.335E-02
         3 0.122E-04 0.175E-04 0.105E-03 0.490E-03 0.644E-03 0.156E-02 0.220E-02 0.335E-02
         4 0.701E-03 0.220E-02 0.838E-02 0.144E-01 0.215E-01 0.328E-01 0.344E-01 0.520E-01


 Contracted 2-electron integrals neglected if value below      1.0D-15
 AO integral compression algorithm  1   Integral accuracy      1.0D-15

     3558.867 MB (compressed) written to integral file ( 32.4%)

     Node minimum: 245.629 MB, node maximum: 406.847 MB


 NUMBER OF SORTED TWO-ELECTRON INTEGRALS:  120345949.     BUFFER LENGTH:  32768
 NUMBER OF SEGMENTS:   4  SEGMENT LENGTH:   31993849      RECORD LENGTH: 524288

 Memory used in sort:      32.55 MW

 SORT1 READ  1374547738. AND WROTE    41189655. INTEGRALS IN    120 RECORDS. CPU TIME:    28.15 SEC, REAL TIME:    41.28 SEC
 SORT2 READ   446856433. AND WROTE  1323827515. INTEGRALS IN  13002 RECORDS. CPU TIME:     4.34 SEC, REAL TIME:    17.04 SEC

 Node minimum:   120327112.  Node maximum:   120451591. integrals

 OPERATOR DM      FOR CENTER  0  COORDINATES:    0.000000    0.000000    0.000000


 **********************************************************************************************************************************
 DATASETS  * FILE   NREC   LENGTH (MB)   RECORD NAMES
              1      19       22.40       500      610      700      900      950      970     1000      129      960     1100
                                          VAR    BASINP    GEOM    SYMINP    ZMAT    AOBASIS   BASIS     P2S    ABASIS      S
                                         1400     1410     1420     1200     1210     1080     1600     1650     1700
                                           T        V       ECP      H0       H01     AOSYM     SMH    MOLCAS    OPER

 PROGRAMS   *        TOTAL       INT
 CPU TIMES  *        94.18     93.83
 REAL TIME  *       122.87 SEC
 DISK USED  *         8.88 GB
 GA USED    *         0.00 MB       (max)       0.00 MB       (current)
 **********************************************************************************************************************************


 PROGRAM * RHF-SCF (CLOSED SHELL)       Authors: W. Meyer, H.-J. Werner


 NUMBER OF ELECTRONS:       8+    8-    SPACE SYMMETRY=1    SPIN SYMMETRY: Singlet
 CONVERGENCE THRESHOLDS:    1.00E-05 (Density)    1.00E-07 (Energy)
 MAX. NUMBER OF ITERATIONS:      200
 INTERPOLATION TYPE:            DIIS
 INTERPOLATION STEPS:              2 (START)      1 (STEP)
 LEVEL SHIFTS:                  0.00 (CLOSED)  0.00 (OPEN)

 Number of closed-shell orbitals:    8 (   4   2   2   0 )


 Orbital guess generated from atomic densities. Full valence occupancy:    7   3   3   1

 Molecular orbital dump at record        2202.2

 ITERATION    DDIFF          GRAD             ENERGY        2-EL.EN.            DIPOLE MOMENTS         DIIS   ORB.
    1      0.000D+00      0.000D+00       -55.04135877    101.604090    0.00000    0.00000   -7.79794    0    start
    2      0.000D+00      0.154D-01       -48.98726362     94.162152    0.00000    0.00000   22.92073    1    diag
    3      0.176D-01      0.496D-01       -55.34940724     98.977972    0.00000    0.00000   -5.89565    2    diag
    4      0.158D-01      0.504D-02       -55.39328308     98.390018    0.00000    0.00000   -4.63450    3    diag
    5      0.260D-02      0.193D-02       -55.39974414     98.019013    0.00000    0.00000   -4.09041    4    diag
    6      0.982D-03      0.411D-03       -55.40098576     97.904249    0.00000    0.00000   -3.92079    5    diag
    7      0.575D-03      0.430D-03       -55.40194750     97.850725    0.00000    0.00000   -3.82930    6    diag
    8      0.463D-03      0.433D-03       -55.40495153     97.615282    0.00000    0.00000   -3.42920    7    diag
    9      0.170D-02      0.390D-03       -55.40632304     97.414569    0.00000    0.00000   -3.06446    8    diag
   10      0.130D-02      0.254D-03       -55.40636457     97.489353    0.00000    0.00000   -3.18989    9    orth
   11      0.415D-03      0.167D-03       -55.40656476     97.359113    0.00000    0.00000   -2.97168    9    diag
   12      0.650D-03      0.341D-04       -55.40656669     97.375343    0.00000    0.00000   -3.00619    9    diag
   13      0.684D-04      0.194D-04       -55.40657179     97.355521    0.00000    0.00000   -2.97749    9    diag
   14      0.890D-04      0.394D-05       -55.40657201     97.352317    0.00000    0.00000   -2.97332    9    diag
   15      0.168D-04      0.119D-05       -55.40657201     97.351186    0.00000    0.00000   -2.97142    9    diag
   16      0.510D-05      0.125D-05       -55.40657201     97.352059    0.00000    0.00000   -2.97231    0    orth

 Final occupancy:   4   2   2   0

 !RHF STATE 1.1 Energy                -55.406572010136
   --><property name="Energy" method="RHF" principal="true" stateSymmetry="1" stateNumber="1"
     value="-55.4065720101356"/><!--
 Nuclear energy                        15.18508518
 One-electron energy                 -119.26768649
 Two-electron energy                   48.67602929
 Virial quotient                       -2.27274988
 !RHF STATE 1.1 Dipole moment           0.00000000     0.00000000    -2.97230905
 Dipole moment /Debye                   0.00000000     0.00000000    -7.55436124
   --><property name="Dipole moment" method="RHF" principal="true" stateSymmetry="1"
     stateNumber="1" value="0.0 0.0 -2.97230905283718"/><!--

 ELECTRON ORBITALS
 =================


   Orb  Occ    Energy  Couls-En    Coefficients

                                   1 1s      1 1s      1 1s      1 1s      1 1s      1 1s      1 1s      1 1s      1 1s      1 1s
                                   1 1s      1 1s      1 1s      1 1s      1 1s      1 1s      1 1s      1 1s      1 1s      1 1s
                                   1 1s      1 1s      1 1s      1 1s      1 1s      1 1s      1 1s      1 1s      1 1s      1 1s
                                   1 1s      1 2pz     1 2pz     1 2pz     1 2pz     1 2pz     1 2pz     1 2pz     1 2pz     1 2pz
                                   1 2pz     1 2pz     1 2pz     1 2pz     1 2pz     1 2pz     1 2pz     1 2pz     1 2pz     1 2pz
                                   1 2pz     1 2pz     1 2pz     1 2pz     1 2pz     1 2pz     1 2pz     1 2pz     1 3d0     1 3d2+
                                   1 3d0     1 3d2+    1 3d0     1 3d2+    1 3d0     1 3d2+    1 3d0     1 3d2+    1 3d0     1 3d2+
                                   1 3d0     1 3d2+    1 3d0     1 3d2+    1 3d0     1 3d2+    1 3d0     1 3d2+    1 3d0     1 3d2+
                                   1 3d0     1 3d2+    1 3d0     1 3d2+    1 3d0     1 3d2+    1 3d0     1 3d2+    1 3d0     1 3d2+
                                   1 3d0     1 3d2+    1 3d0     1 3d2+    1 4f0     1 4f2+    1 4f0     1 4f2+    1 4f0     1 4f2+
                                   1 4f0     1 4f2+    1 4f0     1 4f2+    1 4f0     1 4f2+    1 4f0     1 4f2+    1 4f0     1 4f2+
                                   1 4f0     1 4f2+    1 4f0     1 4f2+    1 4f0     1 4f2+    1 4f0     1 4f2+    1 4f0     1 4f2+
                                   1 5g0     1 5g4+    1 5g2+    1 5g0     1 5g4+    1 5g2+    1 5g0     1 5g4+    1 5g2+    1 5g0
                                   1 5g4+    1 5g2+    1 5g0     1 5g4+    1 5g2+    1 5g0     1 5g4+    1 5g2+    1 6h2+    1 6h4+
                                   1 6h0     1 6h2+    1 6h4+    1 6h0     1 6h2+    1 6h4+    1 6h0     2 1s      2 1s      2 1s
                                   2 1s      2 1s      2 1s      2 1s      2 1s      2 1s      2 1s      2 1s      2 1s      2 1s
                                   2 2pz     2 2pz     2 2pz     2 2pz     2 2pz     2 2pz     2 2pz     2 2pz     2 3d0     2 3d2+
                                   2 3d0     2 3d2+    2 3d0     2 3d2+    2 3d0     2 3d2+    2 4f0     2 4f2+    2 4f0     2 4f2+


   1.1   2    -2.8969  -12.2999 -0.000000  0.000000 -0.000000  0.000000 -0.000000  0.000000 -0.000001  0.000003 -0.000007  0.000018
                                -0.000044  0.000106 -0.000248  0.000557 -0.001195  0.002457 -0.004612  0.007213 -0.007579 -0.001086
                                 0.189223 -0.376032 -0.255777  0.158289  0.778315  0.310622  0.046038 -0.024787  0.024165 -0.017311
                                 0.005484 -0.000000  0.000000 -0.000000  0.000000 -0.000000  0.000000 -0.000000  0.000000 -0.000000
                                 0.000000 -0.000001  0.000002 -0.000005  0.000012 -0.000024  0.000079 -0.000656  0.001326  0.000856
                                -0.000534 -0.004963 -0.002270 -0.010259  0.003106 -0.002455  0.002516 -0.003134 -0.000000  0.000000
                                 0.000000 -0.000000 -0.000000  0.000000  0.000001 -0.000000 -0.000003  0.000000  0.000009 -0.000000
                                -0.000023  0.000000  0.000052 -0.000000 -0.000113  0.000000  0.000222 -0.000000 -0.000001  0.000000
                                 0.000188 -0.000000 -0.005610  0.000000 -0.004451  0.000000  0.001656 -0.000000 -0.002031  0.000000
                                 0.003762 -0.000000 -0.001494  0.000000  0.000000  0.000000 -0.000000 -0.000000  0.000000  0.000000
                                -0.000001 -0.000000  0.000004  0.000000 -0.000008  0.000000 -0.000011  0.000000 -0.000081  0.000000
                                -0.000370  0.000000 -0.000120  0.000000  0.000206 -0.000000  0.000390  0.000000 -0.000108 -0.000000
                                 0.000001  0.000000 -0.000000 -0.000005 -0.000000  0.000000  0.000039  0.000000 -0.000000  0.000267
                                 0.000000 -0.000000  0.000103 -0.000000  0.000000  0.000001  0.000000 -0.000000 -0.000000  0.000000
                                 0.000003  0.000000 -0.000000 -0.000026 -0.000000 -0.000000  0.000104 -0.000000  0.000000 -0.000000
                                 0.000001 -0.000007  0.000228 -0.000254  0.000755  0.001418  0.001399 -0.002402 -0.000327 -0.000378
                                -0.000026 -0.000213 -0.000663 -0.001080 -0.001222  0.000731 -0.000013  0.000007  0.000056 -0.000000
                                 0.000384  0.000000  0.000588  0.000000  0.000008  0.000000 -0.000003  0.000000 -0.000363 -0.000000

   2.1   2    -1.6766   -9.7713 -0.000000  0.000000 -0.000000  0.000000 -0.000000  0.000000 -0.000000  0.000000 -0.000000  0.000001
                                -0.000001  0.000003 -0.000007  0.000017 -0.000035  0.000073 -0.000137  0.000214 -0.000227  0.000088
                                 0.004519 -0.009321 -0.008041  0.006941  0.031523 -0.002862 -0.016104  0.000406 -0.016695 -0.006284
                                 0.004323 -0.000000  0.000000 -0.000000  0.000000 -0.000000  0.000000 -0.000000  0.000001 -0.000002
                                 0.000007 -0.000020  0.000054 -0.000147  0.000471 -0.002614  0.021622  0.001662 -0.069747 -0.105364
                                 0.177924  0.529423 -0.024355  0.400061 -0.010315  0.067624 -0.016530  0.011051 -0.000000  0.000000
                                 0.000000 -0.000000 -0.000000  0.000000  0.000001 -0.000000 -0.000004  0.000000  0.000011 -0.000000
                                -0.000028  0.000000  0.000066 -0.000000 -0.000146  0.000000  0.000285 -0.000000  0.000251 -0.000000
                                -0.000347  0.000000 -0.007593  0.000000 -0.013661  0.000000 -0.005251 -0.000000 -0.002937  0.000000
                                -0.004879 -0.000000  0.003180  0.000000  0.000000 -0.000000 -0.000000  0.000000  0.000000 -0.000000
                                -0.000000  0.000000  0.000004 -0.000000 -0.000006 -0.000000 -0.000108 -0.000000  0.000001 -0.000000
                                -0.003078 -0.000000 -0.001705 -0.000000 -0.000807 -0.000000 -0.002051  0.000000  0.000737 -0.000000
                                -0.000001  0.000000  0.000000  0.000007 -0.000000 -0.000000 -0.000023  0.000000 -0.000000  0.000284
                                -0.000000 -0.000000 -0.000992 -0.000000 -0.000000  0.000382  0.000000  0.000000  0.000000 -0.000000
                                 0.000008  0.000000  0.000000 -0.000143 -0.000000 -0.000000  0.000424 -0.000000  0.000000 -0.000002
                                 0.000014 -0.000127  0.004916 -0.009787  0.016633  0.048368  0.035876  0.022510 -0.004377 -0.007896
                                -0.000321 -0.002722 -0.008284 -0.014416 -0.014890 -0.007043 -0.000099  0.000086  0.000474 -0.000000
                                 0.003096  0.000000  0.003198 -0.000000  0.000027  0.000000 -0.000329 -0.000000 -0.001249  0.000000

   3.1   2    -1.3174   -8.6574  0.000000 -0.000000  0.000000 -0.000000  0.000000 -0.000000  0.000000 -0.000000  0.000000 -0.000001
                                 0.000002 -0.000004  0.000010 -0.000023  0.000050 -0.000103  0.000193 -0.000304  0.000323  0.000086
                                -0.008996  0.018525  0.011585 -0.007307 -0.051358 -0.027866  0.046375 -0.004198 -0.026256  0.001761
                                 0.005045  0.000000 -0.000000  0.000000 -0.000000  0.000000 -0.000000  0.000000 -0.000000  0.000000
                                -0.000002  0.000004 -0.000012  0.000033 -0.000102  0.000492 -0.003862  0.000833  0.009754  0.016759
                                -0.029676 -0.071801 -0.024394 -0.035929  0.059240 -0.011591 -0.025650 -0.052324 -0.000000  0.000000
                                 0.000000 -0.000000 -0.000000  0.000000  0.000000 -0.000000 -0.000001  0.000000  0.000004 -0.000000
                                -0.000011  0.000000  0.000023 -0.000000 -0.000026  0.000000  0.000036 -0.000000 -0.001511  0.000000
                                 0.002475 -0.000000  0.010295  0.000000  0.023221 -0.000000 -0.001167 -0.000000 -0.022973  0.000000
                                 0.018380 -0.000000 -0.000812  0.000000  0.000000 -0.000000 -0.000001  0.000000  0.000003 -0.000000
                                -0.000010 -0.000000  0.000023  0.000000 -0.000066 -0.000000  0.000390 -0.000000  0.000250 -0.000000
                                 0.002744 -0.000000  0.004158 -0.000000 -0.008546  0.000000  0.001783 -0.000000  0.002020  0.000000
                                 0.000008  0.000000 -0.000000 -0.000038  0.000000  0.000000  0.000330  0.000000 -0.000000  0.000988
                                 0.000000 -0.000000 -0.004215  0.000000  0.000000  0.003100 -0.000000 -0.000000  0.000000 -0.000000
                                 0.000018 -0.000000  0.000000 -0.000119  0.000000 -0.000000  0.000750 -0.000000  0.000004 -0.000026
                                 0.000165 -0.001427  0.054235 -0.101030  0.188982  0.546694  0.407446  0.044712 -0.053122 -0.088095
                                -0.000159 -0.001080 -0.004956 -0.007761 -0.041729 -0.016280 -0.000330  0.000040 -0.000530  0.000000
                                 0.002436  0.000000  0.009690  0.000000 -0.000277  0.000000  0.000059 -0.000000 -0.002493 -0.000000

   4.1   2    -0.5090   -6.3631 -0.000000  0.000000 -0.000000  0.000000 -0.000000  0.000000 -0.000000  0.000001 -0.000002  0.000005
                                -0.000012  0.000029 -0.000068  0.000154 -0.000330  0.000679 -0.001279  0.002012 -0.002139 -0.000047
                                 0.054423 -0.113367 -0.078604  0.057555  0.330629  0.264268 -0.086658 -0.480110 -0.268855  0.111494
                                -0.061923 -0.000000  0.000000 -0.000000  0.000000 -0.000000  0.000000 -0.000000  0.000000 -0.000000
                                 0.000000 -0.000000  0.000001 -0.000002  0.000008 -0.000097  0.001020  0.000550 -0.004626 -0.006288
                                 0.012672  0.028643  0.026460 -0.001444  0.419785 -0.021321  0.079873 -0.410038  0.000000  0.000000
                                -0.000000 -0.000000  0.000000  0.000000 -0.000001 -0.000000  0.000003  0.000000 -0.000010 -0.000000
                                 0.000025  0.000000 -0.000046 -0.000000 -0.000040  0.000000  0.000178 -0.000000  0.008530 -0.000000
                                -0.014554  0.000000 -0.068722  0.000000 -0.133486  0.000000 -0.088093  0.000000  0.069962 -0.000000
                                -0.038898  0.000000  0.000477 -0.000000 -0.000000  0.000000  0.000001  0.000000 -0.000003 -0.000000
                                 0.000010  0.000000 -0.000019 -0.000000  0.000061  0.000000 -0.000546 -0.000000 -0.000722  0.000000
                                -0.003208  0.000000 -0.011407  0.000000  0.003823 -0.000000  0.012708  0.000000 -0.005183 -0.000000
                                -0.000006 -0.000000 -0.000000  0.000025  0.000000  0.000000 -0.000330 -0.000000  0.000000 -0.004174
                                -0.000000 -0.000000  0.006042 -0.000000 -0.000000 -0.002308  0.000000  0.000000  0.000000  0.000000
                                -0.000034 -0.000000  0.000000  0.000296 -0.000000  0.000000 -0.001772 -0.000000  0.000001 -0.000004
                                 0.000027 -0.000233  0.008963 -0.015982  0.033676  0.104167  0.103676 -0.046419 -0.009563 -0.014796
                                 0.006254  0.053480  0.174246  0.282746  0.239571  0.064759  0.003388 -0.001650 -0.002990  0.000000
                                -0.012073  0.000000 -0.016599  0.000000 -0.000309  0.000000  0.002415 -0.000000  0.004429 -0.000000

   5.1   0    -0.2523   -5.0307  0.000000 -0.000000  0.000000 -0.000000  0.000000 -0.000000  0.000000 -0.000001  0.000001 -0.000004
                                 0.000009 -0.000021  0.000050 -0.000112  0.000240 -0.000495  0.000931 -0.001463  0.001553 -0.000252
                                -0.035907  0.074642  0.057001 -0.045526 -0.211272 -0.169792 -0.059509  0.306548  0.434329  0.062046
                                 0.119310  0.000000 -0.000000  0.000000 -0.000000  0.000000 -0.000000  0.000000 -0.000000  0.000001
                                -0.000002  0.000005 -0.000014  0.000036 -0.000088  0.000048  0.001155  0.005581 -0.017827 -0.017290
                                 0.033123  0.129914 -0.026037  0.129186 -0.100614 -0.104659 -0.274174  0.040602  0.000000 -0.000000
                                -0.000000  0.000000  0.000000 -0.000000 -0.000002  0.000000  0.000006 -0.000000 -0.000017  0.000000
                                 0.000044 -0.000000 -0.000089  0.000000  0.000041 -0.000000  0.000021  0.000000  0.009279 -0.000000
                                -0.015915  0.000000 -0.069650  0.000000 -0.139385  0.000000 -0.142560  0.000000  0.018212  0.000000
                                -0.070161  0.000000  0.019920 -0.000000 -0.000000  0.000000  0.000001 -0.000000 -0.000005  0.000000
                                 0.000016 -0.000000 -0.000037 -0.000000  0.000103 -0.000000 -0.000583  0.000000 -0.000353  0.000000
                                -0.003860  0.000000 -0.007294  0.000000  0.010537  0.000000  0.000039  0.000000  0.001192  0.000000
                                -0.000004  0.000000  0.000000  0.000014  0.000000 -0.000000 -0.000197  0.000000  0.000000 -0.001040
                                 0.000000 -0.000000  0.003476  0.000000  0.000000 -0.002490 -0.000000  0.000000 -0.000000 -0.000000
                                -0.000023  0.000000  0.000000  0.000178 -0.000000 -0.000000 -0.001270 -0.000000  0.000000 -0.000000
                                 0.000002 -0.000018  0.000910 -0.002306  0.003910  0.016320  0.018904  0.047860 -0.000631 -0.001472
                                 0.004809  0.041112  0.134946  0.218026  0.197601  0.056009  0.002718 -0.001267 -0.001574  0.000000
                                -0.006396  0.000000 -0.010294  0.000000 -0.000152  0.000000  0.001734  0.000000  0.003684  0.000000

   6.1   0    -0.1646   -5.1784 -0.000000  0.000000 -0.000000  0.000000 -0.000000  0.000000 -0.000000  0.000000 -0.000000  0.000000
                                -0.000000  0.000000 -0.000000  0.000000 -0.000000  0.000000 -0.000000  0.000000 -0.000000  0.000000
                                 0.000000 -0.000000 -0.000000  0.000000  0.000000  0.000000 -0.000000 -0.000000 -0.000000 -0.000000
                                 0.000000 -0.000000 -0.000000  0.000000 -0.000000  0.000000 -0.000000 -0.000000  0.000000 -0.000000
                                 0.000000 -0.000000  0.000000 -0.000000  0.000000 -0.000000  0.000000  0.000000 -0.000000 -0.000000
                                 0.000000  0.000000 -0.000000  0.000000 -0.000001 -0.000000 -0.000000  0.000001 -0.000000  0.000000
                                 0.000000 -0.000000 -0.000000  0.000000  0.000000 -0.000001 -0.000000  0.000002  0.000000 -0.000006
                                -0.000000  0.000013 -0.000000  0.000004  0.000000 -0.000400 -0.000000  0.001050 -0.000000  0.023978
                                 0.000000 -0.041020  0.000000 -0.204223  0.000000 -0.375940  0.000000 -0.414976  0.000000 -0.126320
                                -0.000000 -0.057909  0.000000 -0.099318  0.000000 -0.000000 -0.000000  0.000001  0.000000 -0.000004
                                -0.000000  0.000014  0.000000 -0.000049 -0.000000  0.000097 -0.000000  0.000235 -0.000000  0.001470
                                -0.000000  0.002381 -0.000000  0.017039 -0.000000  0.039004 -0.000000  0.016213 -0.000000  0.016975
                                -0.000000 -0.000000  0.000018  0.000000  0.000000 -0.000087 -0.000000  0.000000  0.000572 -0.000000
                                 0.000000  0.009118 -0.000000 -0.000000  0.007258 -0.000000  0.000000  0.000405 -0.000005 -0.000000
                                -0.000000  0.000034  0.000000 -0.000000  0.000026 -0.000000 -0.000000  0.000000 -0.000000  0.000000
                                -0.000000  0.000000  0.000000 -0.000000  0.000000  0.000000  0.000000  0.000000  0.000000 -0.000000
                                 0.000000  0.000000  0.000000  0.000000  0.000000  0.000000  0.000000 -0.000000  0.000000 -0.000524
                                 0.000000 -0.002391 -0.000000 -0.002975  0.000000 -0.000046  0.000000  0.000189  0.000000  0.001081

                                   1 2px     1 2px     1 2px     1 2px     1 2px     1 2px     1 2px     1 2px     1 2px     1 2px
                                   1 2px     1 2px     1 2px     1 2px     1 2px     1 2px     1 2px     1 2px     1 2px     1 2px
                                   1 2px     1 2px     1 2px     1 2px     1 2px     1 2px     1 2px     1 3d1+    1 3d1+    1 3d1+
                                   1 3d1+    1 3d1+    1 3d1+    1 3d1+    1 3d1+    1 3d1+    1 3d1+    1 3d1+    1 3d1+    1 3d1+
                                   1 3d1+    1 3d1+    1 3d1+    1 3d1+    1 3d1+    1 4f1+    1 4f3+    1 4f1+    1 4f3+    1 4f1+
                                   1 4f3+    1 4f1+    1 4f3+    1 4f1+    1 4f3+    1 4f1+    1 4f3+    1 4f1+    1 4f3+    1 4f1+
                                   1 4f3+    1 4f1+    1 4f3+    1 4f1+    1 4f3+    1 4f1+    1 4f3+    1 4f1+    1 4f3+    1 4f1+
                                   1 4f3+    1 5g1+    1 5g3+    1 5g1+    1 5g3+    1 5g1+    1 5g3+    1 5g1+    1 5g3+    1 5g1+
                                   1 5g3+    1 5g1+    1 5g3+    1 6h1+    1 6h3+    1 6h5+    1 6h1+    1 6h3+    1 6h5+    1 6h1+
                                   1 6h3+    1 6h5+    2 2px     2 2px     2 2px     2 2px     2 2px     2 2px     2 2px     2 2px
                                   2 3d1+    2 3d1+    2 3d1+    2 3d1+    2 4f1+    2 4f3+    2 4f1+    2 4f3+

   1.2   2    -1.6891   -9.7054 -0.000000  0.000000 -0.000000  0.000000 -0.000000  0.000000 -0.000000  0.000001 -0.000002  0.000006
                                -0.000018  0.000050 -0.000138  0.000446 -0.002555  0.021375  0.002700 -0.071569 -0.106213  0.179364
                                 0.535106 -0.016047  0.403562  0.052817  0.061355 -0.006203 -0.050650 -0.000000  0.000000 -0.000000
                                 0.000001 -0.000002  0.000006 -0.000016  0.000037 -0.000085  0.000166  0.000318 -0.000459 -0.005459
                                -0.012421 -0.002446  0.000853 -0.001048  0.000119 -0.000000 -0.000000  0.000000  0.000000 -0.000001
                                -0.000000  0.000005  0.000000 -0.000009 -0.000000  0.000028  0.000000 -0.000246 -0.000000 -0.000095
                                -0.000000 -0.003511  0.000000 -0.002603  0.000000  0.000336 -0.000000 -0.000527  0.000000  0.000027
                                -0.000000 -0.000003  0.000000  0.000016 -0.000000 -0.000087 -0.000000 -0.000117  0.000000 -0.000102
                                -0.000000 -0.000089  0.000000  0.000002  0.000000 -0.000000 -0.000077  0.000000  0.000000  0.000145
                                -0.000000  0.000000  0.000085  0.000737  0.002201  0.003664  0.002684  0.000682  0.000010 -0.000023
                                -0.000149 -0.000943 -0.000830 -0.000018  0.000095  0.000000  0.000526 -0.000000

   2.2   2    -0.5899   -7.0446  0.000000 -0.000000  0.000000 -0.000000  0.000000 -0.000000  0.000000 -0.000000  0.000000 -0.000000
                                 0.000001 -0.000001  0.000004 -0.000015  0.000111 -0.001047 -0.000346  0.004159  0.005804 -0.010971
                                -0.032018 -0.000327 -0.031995 -0.051038  0.033465  0.037707  0.045304 -0.000000  0.000000 -0.000000
                                 0.000001 -0.000004  0.000012 -0.000032  0.000067 -0.000069  0.000083 -0.004575  0.007723  0.032871
                                 0.066010  0.073842 -0.039132  0.071196 -0.030725 -0.000000 -0.000000  0.000001  0.000000 -0.000006
                                -0.000000  0.000022  0.000000 -0.000073 -0.000000  0.000156  0.000000  0.000121 -0.000000  0.001864
                                -0.000000  0.001630 -0.000000  0.016490 -0.000000  0.006583 -0.000000  0.004486  0.000000 -0.001772
                                -0.000000  0.000008 -0.000000 -0.000034  0.000000  0.000434 -0.000000  0.006335  0.000000 -0.005292
                                 0.000000  0.003512 -0.000000  0.000073  0.000000 -0.000000 -0.000611 -0.000000  0.000000  0.002292
                                 0.000000 -0.000000  0.009813  0.084484  0.277108  0.433411  0.357833  0.046551  0.005274 -0.002584
                                -0.002680 -0.011464 -0.024892 -0.000276  0.002493 -0.000000  0.007303  0.000000

   3.2   0    -0.1695   -4.0461 -0.000000  0.000000 -0.000000  0.000000 -0.000000  0.000000 -0.000000  0.000000 -0.000000  0.000000
                                -0.000001  0.000003 -0.000008  0.000009  0.000220 -0.002849 -0.003431  0.017708  0.020857 -0.039565
                                -0.142218  0.031794 -0.153384 -0.014453  0.103309  0.454946  0.306016  0.000000 -0.000000  0.000000
                                -0.000000  0.000001 -0.000003  0.000006  0.000007 -0.000249  0.000646  0.014348 -0.024535 -0.122901
                                -0.219736 -0.254988 -0.174664  0.040892 -0.141118 -0.000000 -0.000000  0.000000  0.000000 -0.000002
                                -0.000000  0.000006  0.000000 -0.000028 -0.000000  0.000047  0.000000  0.000354 -0.000000  0.001175
                                 0.000000  0.003776 -0.000000  0.014178 -0.000000  0.018302  0.000000  0.003890  0.000000  0.006986
                                 0.000000  0.000016 -0.000000 -0.000079  0.000000  0.000515  0.000000  0.008204 -0.000000  0.005807
                                -0.000000  0.000317 -0.000000  0.000002  0.000000  0.000000 -0.000002 -0.000000 -0.000000  0.000122
                                 0.000000  0.000000  0.000614  0.005275  0.017846  0.027368  0.027059  0.020828  0.000414 -0.000161
                                 0.000292  0.002405 -0.000944  0.000038 -0.000092 -0.000000 -0.000915  0.000000

   4.2   0    -0.1085   -4.5615  0.000000 -0.000000  0.000000 -0.000000  0.000000 -0.000000  0.000000 -0.000000  0.000001 -0.000004
                                 0.000010 -0.000028  0.000075 -0.000216  0.000784 -0.005221  0.005384  0.002725  0.013999 -0.026518
                                -0.031854 -0.049883 -0.022048 -4.839169 -0.013362  0.322268  5.281699 -0.000000  0.000000 -0.000000
                                 0.000000 -0.000000  0.000001  0.000001 -0.000030  0.000386 -0.000981 -0.019739  0.033947  0.171198
                                 0.313461  0.330037 -0.059580  0.241331 -0.092845  0.000000  0.000000 -0.000002 -0.000000  0.000008
                                -0.000000 -0.000028  0.000000  0.000094 -0.000000 -0.000193  0.000000 -0.000324 -0.000000 -0.002634
                                 0.000000 -0.003184 -0.000000 -0.026891 -0.000000 -0.075418  0.000000 -0.046157  0.000000 -0.064330
                                 0.000000 -0.000023  0.000000  0.000110 -0.000000 -0.000762 -0.000000 -0.012530  0.000000 -0.011151
                                 0.000000 -0.002117 -0.000000 -0.000003 -0.000000  0.000000  0.000034  0.000000 -0.000000 -0.000308
                                -0.000000  0.000000 -0.002779 -0.023919 -0.080461 -0.123947 -0.119739 -0.059203 -0.001768  0.000728
                                -0.001159 -0.006569 -0.003177 -0.000102 -0.000185  0.000000  0.000850 -0.000000

                                   1 2py     1 2py     1 2py     1 2py     1 2py     1 2py     1 2py     1 2py     1 2py     1 2py
                                   1 2py     1 2py     1 2py     1 2py     1 2py     1 2py     1 2py     1 2py     1 2py     1 2py
                                   1 2py     1 2py     1 2py     1 2py     1 2py     1 2py     1 2py     1 3d1-    1 3d1-    1 3d1-
                                   1 3d1-    1 3d1-    1 3d1-    1 3d1-    1 3d1-    1 3d1-    1 3d1-    1 3d1-    1 3d1-    1 3d1-
                                   1 3d1-    1 3d1-    1 3d1-    1 3d1-    1 3d1-    1 4f1-    1 4f3-    1 4f1-    1 4f3-    1 4f1-
                                   1 4f3-    1 4f1-    1 4f3-    1 4f1-    1 4f3-    1 4f1-    1 4f3-    1 4f1-    1 4f3-    1 4f1-
                                   1 4f3-    1 4f1-    1 4f3-    1 4f1-    1 4f3-    1 4f1-    1 4f3-    1 4f1-    1 4f3-    1 4f1-
                                   1 4f3-    1 5g1-    1 5g3-    1 5g1-    1 5g3-    1 5g1-    1 5g3-    1 5g1-    1 5g3-    1 5g1-
                                   1 5g3-    1 5g1-    1 5g3-    1 6h1-    1 6h3-    1 6h5-    1 6h1-    1 6h3-    1 6h5-    1 6h1-
                                   1 6h3-    1 6h5-    2 2py     2 2py     2 2py     2 2py     2 2py     2 2py     2 2py     2 2py
                                   2 3d1-    2 3d1-    2 3d1-    2 3d1-    2 4f1-    2 4f3-    2 4f1-    2 4f3-

   1.3   2    -1.6891   -9.7054 -0.000000  0.000000 -0.000000  0.000000 -0.000000  0.000000 -0.000000  0.000001 -0.000002  0.000006
                                -0.000018  0.000050 -0.000138  0.000446 -0.002555  0.021375  0.002700 -0.071569 -0.106213  0.179364
                                 0.535106 -0.016047  0.403562  0.052817  0.061355 -0.006203 -0.050650 -0.000000  0.000000 -0.000000
                                 0.000001 -0.000002  0.000006 -0.000016  0.000037 -0.000085  0.000166  0.000318 -0.000459 -0.005459
                                -0.012421 -0.002446  0.000853 -0.001048  0.000119 -0.000000 -0.000000  0.000000  0.000000 -0.000001
                                -0.000000  0.000005  0.000000 -0.000009 -0.000000  0.000028  0.000000 -0.000246 -0.000000 -0.000095
                                -0.000000 -0.003511  0.000000 -0.002603  0.000000  0.000336 -0.000000 -0.000527  0.000000  0.000027
                                -0.000000 -0.000003  0.000000  0.000016 -0.000000 -0.000087 -0.000000 -0.000117  0.000000 -0.000102
                                -0.000000 -0.000089  0.000000  0.000002  0.000000 -0.000000 -0.000077  0.000000  0.000000  0.000145
                                -0.000000  0.000000  0.000085  0.000737  0.002201  0.003664  0.002684  0.000682  0.000010 -0.000023
                                -0.000149 -0.000943 -0.000830 -0.000018  0.000095  0.000000  0.000526 -0.000000

   2.3   2    -0.5899   -7.0446  0.000000 -0.000000  0.000000 -0.000000  0.000000 -0.000000  0.000000 -0.000000  0.000000 -0.000000
                                 0.000001 -0.000001  0.000004 -0.000015  0.000111 -0.001047 -0.000346  0.004159  0.005804 -0.010971
                                -0.032018 -0.000327 -0.031995 -0.051038  0.033465  0.037707  0.045304 -0.000000  0.000000 -0.000000
                                 0.000001 -0.000004  0.000012 -0.000032  0.000067 -0.000069  0.000083 -0.004575  0.007723  0.032871
                                 0.066010  0.073842 -0.039132  0.071196 -0.030725 -0.000000 -0.000000  0.000001  0.000000 -0.000006
                                -0.000000  0.000022  0.000000 -0.000073 -0.000000  0.000156  0.000000  0.000121 -0.000000  0.001864
                                -0.000000  0.001630 -0.000000  0.016490 -0.000000  0.006583  0.000000  0.004486  0.000000 -0.001772
                                -0.000000  0.000008 -0.000000 -0.000034  0.000000  0.000434 -0.000000  0.006335  0.000000 -0.005292
                                 0.000000  0.003512 -0.000000  0.000073  0.000000 -0.000000 -0.000611 -0.000000  0.000000  0.002292
                                 0.000000 -0.000000  0.009813  0.084484  0.277108  0.433411  0.357833  0.046551  0.005274 -0.002584
                                -0.002680 -0.011464 -0.024892 -0.000276  0.002493 -0.000000  0.007303  0.000000

   3.3   0    -0.1695   -4.0461 -0.000000  0.000000 -0.000000  0.000000 -0.000000  0.000000 -0.000000  0.000000 -0.000000  0.000000
                                -0.000001  0.000003 -0.000008  0.000009  0.000220 -0.002849 -0.003431  0.017708  0.020857 -0.039565
                                -0.142218  0.031794 -0.153384 -0.014453  0.103309  0.454946  0.306016  0.000000 -0.000000  0.000000
                                -0.000000  0.000001 -0.000003  0.000006  0.000007 -0.000249  0.000646  0.014348 -0.024535 -0.122901
                                -0.219736 -0.254988 -0.174664  0.040892 -0.141118 -0.000000 -0.000000  0.000000  0.000000 -0.000002
                                -0.000000  0.000006  0.000000 -0.000028 -0.000000  0.000047  0.000000  0.000354 -0.000000  0.001175
                                 0.000000  0.003776 -0.000000  0.014178 -0.000000  0.018302  0.000000  0.003890  0.000000  0.006986
                                 0.000000  0.000016 -0.000000 -0.000079  0.000000  0.000515  0.000000  0.008204 -0.000000  0.005807
                                -0.000000  0.000317 -0.000000  0.000002  0.000000  0.000000 -0.000002 -0.000000 -0.000000  0.000122
                                 0.000000  0.000000  0.000614  0.005275  0.017846  0.027368  0.027059  0.020828  0.000414 -0.000161
                                 0.000292  0.002405 -0.000944  0.000038 -0.000092 -0.000000 -0.000915  0.000000

   4.3   0    -0.1085   -4.5615  0.000000 -0.000000  0.000000 -0.000000  0.000000 -0.000000  0.000000 -0.000000  0.000001 -0.000004
                                 0.000010 -0.000028  0.000075 -0.000216  0.000784 -0.005221  0.005384  0.002725  0.013999 -0.026518
                                -0.031854 -0.049883 -0.022048 -4.839169 -0.013362  0.322268  5.281698 -0.000000  0.000000 -0.000000
                                 0.000000 -0.000000  0.000001  0.000001 -0.000030  0.000386 -0.000981 -0.019739  0.033947  0.171198
                                 0.313461  0.330037 -0.059580  0.241331 -0.092845  0.000000 -0.000000 -0.000002  0.000000  0.000008
                                -0.000000 -0.000028  0.000000  0.000094 -0.000000 -0.000193  0.000000 -0.000324 -0.000000 -0.002634
                                 0.000000 -0.003184 -0.000000 -0.026891 -0.000000 -0.075418  0.000000 -0.046157  0.000000 -0.064330
                                 0.000000 -0.000023  0.000000  0.000110 -0.000000 -0.000762 -0.000000 -0.012530  0.000000 -0.011151
                                -0.000000 -0.002117  0.000000 -0.000003  0.000000  0.000000  0.000034 -0.000000 -0.000000 -0.000308
                                 0.000000  0.000000 -0.002779 -0.023919 -0.080461 -0.123947 -0.119739 -0.059203 -0.001768  0.000728
                                -0.001159 -0.006569 -0.003177 -0.000102 -0.000185 -0.000000  0.000850  0.000000

                                   1 3d2-    1 3d2-    1 3d2-    1 3d2-    1 3d2-    1 3d2-    1 3d2-    1 3d2-    1 3d2-    1 3d2-
                                   1 3d2-    1 3d2-    1 3d2-    1 3d2-    1 3d2-    1 3d2-    1 3d2-    1 3d2-    1 4f2-    1 4f2-
                                   1 4f2-    1 4f2-    1 4f2-    1 4f2-    1 4f2-    1 4f2-    1 4f2-    1 4f2-    1 4f2-    1 4f2-
                                   1 4f2-    1 5g2-    1 5g4-    1 5g2-    1 5g4-    1 5g2-    1 5g4-    1 5g2-    1 5g4-    1 5g2-
                                   1 5g4-    1 5g2-    1 5g4-    1 6h4-    1 6h2-    1 6h4-    1 6h2-    1 6h4-    1 6h2-    2 3d2-
                                   2 3d2-    2 3d2-    2 3d2-    2 4f2-    2 4f2-

   1.4   0    -0.1646   -5.1784  0.000000 -0.000000  0.000000 -0.000001  0.000002 -0.000006  0.000013  0.000004 -0.000400  0.001050
                                 0.023978 -0.041020 -0.204223 -0.375940 -0.414976 -0.126320 -0.057909 -0.099318 -0.000000  0.000001
                                -0.000004  0.000014 -0.000049  0.000097  0.000235  0.001470  0.002381  0.017039  0.039004  0.016213
                                 0.016975  0.000018 -0.000000 -0.000087  0.000000  0.000572  0.000000  0.009118 -0.000000  0.007258
                                -0.000000  0.000405 -0.000000  0.000000 -0.000005  0.000000  0.000034  0.000000  0.000026 -0.000524
                                -0.002391 -0.002975 -0.000046  0.000189  0.001081

   2.4   0    -0.0444   -2.2129 -0.000000  0.000000 -0.000002  0.000008 -0.000027  0.000080 -0.000210  0.000495 -0.001172  0.002331
                                 0.006817 -0.011775 -0.099450 -0.129274 -0.379044  2.284160 -4.644196  3.454580 -0.000000  0.000003
                                -0.000011  0.000038 -0.000107  0.000254 -0.000489  0.001369 -0.002235  0.011697 -0.033816  0.063680
                                -0.303948  0.000008 -0.000000 -0.000040  0.000000  0.000269  0.000000  0.004187 -0.000000 -0.002104
                                 0.000000  0.004581  0.000000 -0.000000  0.000002  0.000000 -0.000025 -0.000000  0.000135 -0.000066
                                -0.000088 -0.000294 -0.000002  0.000174 -0.000310

 HOMO      4.1    -0.508962 =     -13.8496eV
 LUMO      5.1    -0.252323 =      -6.8661eV
 LUMO-HOMO         0.256639 =       6.9835eV


 **********************************************************************************************************************************
 DATASETS  * FILE   NREC   LENGTH (MB)   RECORD NAMES
              1      19       22.47       500      610      700      900      950      970     1000      129      960     1100
                                          VAR    BASINP    GEOM    SYMINP    ZMAT    AOBASIS   BASIS     P2S    ABASIS      S
                                         1400     1410     1420     1200     1210     1080     1600     1650     1700
                                           T        V       ECP      H0       H01     AOSYM     SMH    MOLCAS    OPER

              2       4        4.02       700     1000      520     2202
                                         GEOM     BASIS   MCVARS     RHF

 PROGRAMS   *        TOTAL       RHF       INT
 CPU TIMES  *       104.45     10.23     93.83
 REAL TIME  *       134.21 SEC
 DISK USED  *         9.22 GB
 SF USED    *         0.24 MB
 GA USED    *         0.00 MB       (max)       0.00 MB       (current)
 **********************************************************************************************************************************
   -->
   <time start="09:46:24" end="09:48:37" cpu="104.45" system="14.7" real="134.21"/>
   <storage units="megabyte" memory="8001.84" sf="0.24" df="339.45" eaf="8875.85" ga="0.0"/>
  </jobstep><!--
  --><jobstep command="RHF-SCF" commandset="SCFPRO">
   <!--


 PROGRAM * RHF-SCF (OPEN SHELL)       Authors: W. Meyer, H.-J. Werner


 NUMBER OF ELECTRONS:       9+    8-    SPACE SYMMETRY=1    SPIN SYMMETRY: Doublet
 CONVERGENCE THRESHOLDS:    1.00E-05 (Density)    1.00E-07 (Energy)
 MAX. NUMBER OF ITERATIONS:      200
 INTERPOLATION TYPE:            DIIS
 INTERPOLATION STEPS:              2 (START)      1 (STEP)
 LEVEL SHIFTS:                 -0.60 (CLOSED) -0.30 (OPEN)

 Number of closed-shell orbitals:    8 (   4   2   2   0 )
 Number of open-shell orbitals:      1 (   1   0   0   0 )


 Molecular orbitals read from record     2202.2  Type=RHF/CANONICAL (state 1.1)

 Molecular orbital dump at record        3202.2

 ITERATION    DDIFF          GRAD             ENERGY        2-EL.EN.            DIPOLE MOMENTS         DIIS   ORB.
    1      0.000D+00      0.000D+00       -55.65889524    106.404168    0.00000    0.00000   -3.17833    0    start
    2      0.000D+00      0.254D-02       -55.67079005    105.283919    0.00000    0.00000   -3.01422    1    diag,B
    3      0.152D-02      0.124D-02       -55.67467028    105.273236    0.00000    0.00000   -3.10338    2    diag,B
    4      0.712D-03      0.729D-03       -55.67967675    104.951050    0.00000    0.00000   -3.01880    3    diag,B
    5      0.916D-03      0.553D-03       -55.68455737    104.729366    0.00000    0.00000   -2.85428    4    diag,B
    6      0.105D-02      0.540D-03       -55.68502807    104.711600    0.00000    0.00000   -2.83334    5    diag,B
    7      0.960D-04      0.546D-03       -55.67586889    105.075546    0.00000    0.00000   -3.38897    6    diag,B
    8      0.126D-02      0.518D-03       -55.67560630    105.102481    0.00000    0.00000   -3.42873    7    orth
    9      0.210D-03      0.485D-03       -55.67414947    105.284315    0.00000    0.00000   -3.76219    8    diag,B
   10      0.230D-02      0.314D-03       -55.67370498    105.387192    0.00000    0.00000   -3.93327    9    diag,B
   11      0.878D-03      0.309D-03       -55.67342648    105.412692    0.00000    0.00000   -4.00106    9    diag,B
   12      0.696D-03      0.367D-03       -55.67422269    105.345101    0.00000    0.00000   -3.85320    9    diag,B
   13      0.854D-03      0.199D-03       -55.67447515    105.283448    0.00000    0.00000   -3.77436    9    diag,B
   14      0.145D-02      0.298D-03       -55.67487756    105.216131    0.00000    0.00000   -3.68119    9    diag,B
   15      0.315D-03      0.358D-03       -55.67434156    105.344729    0.00000    0.00000   -3.87499    9    diag,B
   16      0.522D-03      0.175D-03       -55.67430522    105.357238    0.00000    0.00000   -3.89676    9    diag,B
   17      0.622D-03      0.149D-03       -55.67428946    105.357018    0.00000    0.00000   -3.90044    9    diag,B
   18      0.114D-02      0.133D-03       -55.67424058    105.368307    0.00000    0.00000   -3.91545    9    orth
   19      0.422D-03      0.107D-03       -55.67421596    105.374458    0.00000    0.00000   -3.92328    9    diag,B
   20      0.561D-04      0.979D-04       -55.67392917    105.419956    0.00000    0.00000   -4.00939    9    diag,B
   21      0.110D-02      0.754D-04       -55.67392457    105.421719    0.00000    0.00000   -4.01057    9    diag,B
   22      0.582D-04      0.782D-04       -55.67406269    105.402421    0.00000    0.00000   -3.97365    9    diag,B
   23      0.222D-03      0.582D-04       -55.67430375    105.358313    0.00000    0.00000   -3.89593    9    diag,B
   24      0.345D-03      0.635D-04       -55.67395907    105.416439    0.00000    0.00000   -4.00959    9    diag,B
   25      0.392D-03      0.749D-04       -55.67402285    105.409454    0.00000    0.00000   -3.99325    9    diag,B
   26      0.750D-04      0.668D-04       -55.67395994    105.419522    0.00000    0.00000   -4.01908    9    diag,B
   27      0.129D-03      0.803D-04       -55.67398458    105.414405    0.00000    0.00000   -4.00906    9    diag,B
   28      0.159D-03      0.767D-04       -55.67400571    105.411617    0.00000    0.00000   -4.00283    9    orth
   29      0.266D-04      0.742D-04       -55.67427082    105.363052    0.00000    0.00000   -3.91233    9    diag,B
   30      0.373D-03      0.867D-04       -55.67447716    105.319348    0.00000    0.00000   -3.84157    9    diag,B
   31      0.249D-03      0.117D-03       -55.67407119    105.399689    0.00000    0.00000   -3.98460    9    diag,B
   32      0.527D-03      0.954D-04       -55.67415853    105.383349    0.00000    0.00000   -3.95389    9    diag,B
   33      0.106D-03      0.916D-04       -55.67443198    105.327402    0.00000    0.00000   -3.85807    9    diag,B
   34      0.300D-03      0.119D-03       -55.67419089    105.376011    0.00000    0.00000   -3.94128    9    diag,B
   35      0.265D-03      0.938D-04       -55.67426099    105.360659    0.00000    0.00000   -3.91484    9    diag,B
   36      0.102D-03      0.997D-04       -55.67396054    105.415461    0.00000    0.00000   -4.01898    9    diag,B
   37      0.431D-03      0.103D-03       -55.67413171    105.392000    0.00000    0.00000   -3.96666    9    diag,B
   38      0.212D-03      0.868D-04       -55.67423653    105.369578    0.00000    0.00000   -3.92715    9    orth
   39      0.145D-03      0.927D-04       -55.67380712    105.430729    0.00000    0.00000   -4.05479    9    diag,B
   40      0.572D-03      0.130D-03       -55.67483595    105.251623    0.00000    0.00000   -3.74297    9    diag,B
   41      0.114D-02      0.183D-03       -55.67391454    105.418837    0.00000    0.00000   -4.02635    9    diag,B
   42      0.107D-02      0.110D-03       -55.67413040    105.388700    0.00000    0.00000   -3.95968    9    diag,B
   43      0.299D-03      0.819D-04       -55.67442145    105.328955    0.00000    0.00000   -3.85659    9    diag,B
   44      0.351D-03      0.108D-03       -55.67401344    105.406284    0.00000    0.00000   -3.99808    9    diag,B
   45      0.531D-03      0.933D-04       -55.67407636    105.396739    0.00000    0.00000   -3.97758    9    diag,B
   46      0.119D-03      0.851D-04       -55.67428823    105.355873    0.00000    0.00000   -3.90235    9    diag,B
   47      0.293D-03      0.934D-04       -55.67410219    105.392595    0.00000    0.00000   -3.96889    9    diag,B
   48      0.270D-03      0.834D-04       -55.67410090    105.393039    0.00000    0.00000   -3.96936    9    orth
   49      0.438D-04      0.835D-04       -55.67428816    105.356238    0.00000    0.00000   -3.90281    9    diag,B
   50      0.272D-03      0.934D-04       -55.67412700    105.388746    0.00000    0.00000   -3.96029    9    diag,B
   51      0.239D-03      0.823D-04       -55.67420176    105.374920    0.00000    0.00000   -3.93377    9    diag,B
   52      0.121D-03      0.833D-04       -55.67416070    105.381961    0.00000    0.00000   -3.94802    9    diag,B
   53      0.798D-04      0.829D-04       -55.67429290    105.355052    0.00000    0.00000   -3.90056    9    diag,B
   54      0.179D-03      0.930D-04       -55.67408677    105.395161    0.00000    0.00000   -3.97358    9    diag,B
   55      0.275D-03      0.841D-04       -55.67413881    105.386491    0.00000    0.00000   -3.95578    9    diag,B
   56      0.999D-04      0.815D-04       -55.67420423    105.373390    0.00000    0.00000   -3.93234    9    diag,B
   57      0.816D-04      0.849D-04       -55.67432043    105.350093    0.00000    0.00000   -3.89120    9    fixocc
   58      0.180D-03      0.948D-04       -55.67417677    105.377943    0.00000    0.00000   -3.94162    9    orth
   59      0.223D-03      0.850D-04       -55.67425126    105.362554    0.00000    0.00000   -3.91468    9    diag,B
   60      0.941D-04      0.902D-04       -55.67418102    105.378305    0.00000    0.00000   -3.94104    9    diag,B
   61      0.851D-04      0.852D-04       -55.67440534    105.331900    0.00000    0.00000   -3.86219    9    diag,B
   62      0.269D-03      0.108D-03       -55.67404419    105.401349    0.00000    0.00000   -3.98711    9    diag,B
   63      0.428D-03      0.890D-04       -55.67408575    105.394946    0.00000    0.00000   -3.97328    9    diag,B
   64      0.978D-04      0.829D-04       -55.67423627    105.368045    0.00000    0.00000   -3.92210    9    diag,B
   65      0.192D-03      0.876D-04       -55.67426380    105.361398    0.00000    0.00000   -3.91066    9    diag,B
   66      0.175D-03      0.884D-04       -55.67429801    105.355928    0.00000    0.00000   -3.90063    9    diag,B
   67      0.166D-03      0.912D-04       -55.67433863    105.346680    0.00000    0.00000   -3.88504    9    diag,B
   68      0.199D-03      0.934D-04       -55.67418121    105.379997    0.00000    0.00000   -3.94288    9    orth
   69      0.338D-03      0.807D-04       -55.67422609    105.371084    0.00000    0.00000   -3.92749    9    diag,B
   70      0.850D-04      0.856D-04       -55.67463713    105.289076    0.00000    0.00000   -3.79602    9    diag,B
   71      0.453D-03      0.144D-03       -55.67412687    105.387990    0.00000    0.00000   -3.96157    9    diag,B
   72      0.635D-03      0.921D-04       -55.67420407    105.372156    0.00000    0.00000   -3.93307    9    diag,B
   73      0.117D-03      0.946D-04       -55.67438907    105.336810    0.00000    0.00000   -3.87107    9    diag,B
   74      0.207D-03      0.110D-03       -55.67430581    105.350087    0.00000    0.00000   -3.89487    9    diag,B
   75      0.147D-03      0.102D-03       -55.67443819    105.325022    0.00000    0.00000   -3.85116    9    diag,B
   76      0.240D-03      0.112D-03       -55.67418869    105.373162    0.00000    0.00000   -3.93574    9    diag,B
   77      0.318D-03      0.910D-04       -55.67421538    105.367510    0.00000    0.00000   -3.92572    9    diag,B
   78      0.724D-04      0.914D-04       -55.67431859    105.349631    0.00000    0.00000   -3.89206    9    orth
   79      0.151D-03      0.100D-03       -55.67438245    105.332897    0.00000    0.00000   -3.86674    9    diag,B
   80      0.277D-03      0.108D-03       -55.67428622    105.358931    0.00000    0.00000   -3.90479    9    diag,B
   81      0.194D-03      0.879D-04       -55.67434554    105.344332    0.00000    0.00000   -3.88171    9    diag,B
   82      0.197D-03      0.938D-04       -55.67399624    105.413341    0.00000    0.00000   -4.00648    9    diag,B
   83      0.606D-03      0.854D-04       -55.67400377    105.412308    0.00000    0.00000   -4.00428    9    diag,B
   84      0.342D-04      0.833D-04       -55.67416849    105.385392    0.00000    0.00000   -3.95004    9    diag,B
   85      0.256D-03      0.783D-04       -55.67424303    105.369855    0.00000    0.00000   -3.92256    9    diag,B
   86      0.102D-03      0.834D-04       -55.67414372    105.390209    0.00000    0.00000   -3.95917    9    diag,B
   87      0.122D-03      0.796D-04       -55.67422886    105.372712    0.00000    0.00000   -3.92785    9    diag,B
   88      0.162D-03      0.843D-04       -55.67400355    105.413108    0.00000    0.00000   -4.00578    9    orth
   89      0.487D-03      0.866D-04       -55.67418529    105.381721    0.00000    0.00000   -3.94373    9    diag,B
   90      0.306D-03      0.798D-04       -55.67415097    105.388479    0.00000    0.00000   -3.95609    9    diag,B
   91      0.422D-04      0.784D-04       -55.67419863    105.379045    0.00000    0.00000   -3.93885    9    diag,B
   92      0.115D-03      0.818D-04       -55.67423973    105.370279    0.00000    0.00000   -3.92374    9    diag,B
   93      0.753D-04      0.838D-04       -55.67431563    105.353819    0.00000    0.00000   -3.89570    9    diag,B
   94      0.228D-03      0.924D-04       -55.67417152    105.382450    0.00000    0.00000   -3.94710    9    diag,B
   95      0.310D-03      0.780D-04       -55.67424778    105.366081    0.00000    0.00000   -3.91862    9    diag,B
   96      0.138D-03      0.831D-04       -55.67399136    105.413826    0.00000    0.00000   -4.00868    9    diag,B
   97      0.486D-03      0.887D-04       -55.67419275    105.379579    0.00000    0.00000   -3.94033    9    diag,B
   98      0.381D-03      0.800D-04       -55.67410598    105.395785    0.00000    0.00000   -3.97108    9    orth
   99      0.148D-03      0.776D-04       -55.67403724    105.405794    0.00000    0.00000   -3.99310    9    diag,B
  100      0.148D-03      0.823D-04       -55.67425039    105.367069    0.00000    0.00000   -3.91893    9    diag,B
  101      0.366D-03      0.851D-04       -55.67405914    105.401504    0.00000    0.00000   -3.98490    9    diag,B
  102      0.297D-03      0.806D-04       -55.67413378    105.388056    0.00000    0.00000   -3.95867    9    diag,B
  103      0.145D-03      0.789D-04       -55.67416058    105.384545    0.00000    0.00000   -3.95068    9    diag,B
  104      0.311D-04      0.786D-04       -55.67427558    105.359659    0.00000    0.00000   -3.90757    9    diag,B
  105      0.205D-03      0.879D-04       -55.67393398    105.419456    0.00000    0.00000   -4.02320    9    diag,B
  106      0.590D-03      0.976D-04       -55.67416349    105.384601    0.00000    0.00000   -3.94981    9    diag,B
  107      0.455D-03      0.775D-04       -55.67436381    105.342887    0.00000    0.00000   -3.87825    9    diag,B
  108      0.274D-03      0.983D-04       -55.67397049    105.414040    0.00000    0.00000   -4.01228    9    orth
  109      0.647D-03      0.958D-04       -55.67408307    105.397524    0.00000    0.00000   -3.97649    9    diag,B
  110      0.243D-03      0.812D-04       -55.67431854    105.350362    0.00000    0.00000   -3.89178    9    diag,B
  111      0.343D-03      0.953D-04       -55.67402260    105.406747    0.00000    0.00000   -3.99608    9    diag,B
  112      0.449D-03      0.861D-04       -55.67405323    105.402475    0.00000    0.00000   -3.98649    9    diag,B
  113      0.620D-04      0.821D-04       -55.67426669    105.363267    0.00000    0.00000   -3.91243    9    diag,B
  114      0.300D-03      0.879D-04       -55.67412077    105.390905    0.00000    0.00000   -3.96340    9    diag,B
  115      0.199D-03      0.799D-04       -55.67413280    105.387638    0.00000    0.00000   -3.95815    9    diag,B
  116      0.279D-04      0.815D-04       -55.67429358    105.356180    0.00000    0.00000   -3.90128    9    diag,B
  117      0.223D-03      0.918D-04       -55.67410226    105.392142    0.00000    0.00000   -3.96787    9    diag,B
  118      0.253D-03      0.827D-04       -55.67414660    105.383507    0.00000    0.00000   -3.95169    9    orth
  119      0.871D-04      0.824D-04       -55.67422069    105.371153    0.00000    0.00000   -3.92732    9    diag,B
  120      0.856D-04      0.852D-04       -55.67426104    105.360001    0.00000    0.00000   -3.90987    9    diag,B
  121      0.132D-03      0.894D-04       -55.67431620    105.351994    0.00000    0.00000   -3.89360    9    diag,B
  122      0.718D-04      0.921D-04       -55.67428950    105.353803    0.00000    0.00000   -3.89911    9    diag,B
  123      0.818D-04      0.899D-04       -55.67429740    105.353910    0.00000    0.00000   -3.89784    9    diag,B
  124      0.692D-04      0.871D-04       -55.67419840    105.373184    0.00000    0.00000   -3.93213    9    diag,B
  125      0.122D-03      0.794D-04       -55.67418402    105.374983    0.00000    0.00000   -3.93658    9    diag,B
  126      0.570D-04      0.819D-04       -55.67411567    105.388205    0.00000    0.00000   -3.96148    9    diag,B
  127      0.875D-04      0.807D-04       -55.67404876    105.400090    0.00000    0.00000   -3.98483    9    diag,B
  128      0.836D-04      0.832D-04       -55.67414533    105.385332    0.00000    0.00000   -3.95398    9    orth
  129      0.131D-03      0.813D-04       -55.67423402    105.366850    0.00000    0.00000   -3.92119    9    diag,B
  130      0.106D-03      0.872D-04       -55.67409438    105.395931    0.00000    0.00000   -3.97350    9    diag,B
  131      0.171D-03      0.829D-04       -55.67414906    105.387928    0.00000    0.00000   -3.95645    9    diag,B
  132      0.847D-04      0.824D-04       -55.67427702    105.360871    0.00000    0.00000   -3.90910    9    diag,B
  133      0.153D-03      0.920D-04       -55.67413509    105.391325    0.00000    0.00000   -3.96238    9    diag,B
  134      0.177D-03      0.825D-04       -55.67420485    105.378473    0.00000    0.00000   -3.93817    9    diag,B
  135      0.899D-04      0.844D-04       -55.67422616    105.372616    0.00000    0.00000   -3.92878    9    diag,B
  136      0.659D-04      0.874D-04       -55.67436939    105.343775    0.00000    0.00000   -3.87919    9    diag,B
  137      0.168D-03      0.101D-03       -55.67417160    105.381011    0.00000    0.00000   -3.94590    9    diag,B
  138      0.247D-03      0.865D-04       -55.67426326    105.361450    0.00000    0.00000   -3.91153    9    orth
  139      0.106D-03      0.910D-04       -55.67415110    105.386625    0.00000    0.00000   -3.95507    9    diag,B
  140      0.140D-03      0.849D-04       -55.67426273    105.365075    0.00000    0.00000   -3.91557    9    diag,B
  141      0.137D-03      0.905D-04       -55.67416110    105.383065    0.00000    0.00000   -3.94981    9    diag,B
  142      0.144D-03      0.854D-04       -55.67429752    105.354863    0.00000    0.00000   -3.90010    9    diag,B
  143      0.160D-03      0.950D-04       -55.67413109    105.388864    0.00000    0.00000   -3.96069    9    diag,B
  144      0.197D-03      0.852D-04       -55.67419805    105.376390    0.00000    0.00000   -3.93710    9    diag,B
  145      0.859D-04      0.866D-04       -55.67421608    105.372035    0.00000    0.00000   -3.92983    9    diag,B
  146      0.483D-04      0.879D-04       -55.67438156    105.338811    0.00000    0.00000   -3.87260    9    diag,B
  147      0.197D-03      0.105D-03       -55.67415636    105.382059    0.00000    0.00000   -3.94953    9    diag,B
  148      0.285D-03      0.851D-04       -55.67424522    105.364321    0.00000    0.00000   -3.91717    9    orth
  149      0.107D-03      0.874D-04       -55.67413183    105.387484    0.00000    0.00000   -3.95894    9    diag,B
  150      0.140D-03      0.843D-04       -55.67423835    105.367275    0.00000    0.00000   -3.92114    9    diag,B
  151      0.136D-03      0.884D-04       -55.67412912    105.387017    0.00000    0.00000   -3.95891    9    diag,B
  152      0.160D-03      0.831D-04       -55.67425322    105.362696    0.00000    0.00000   -3.91438    9    diag,B
  153      0.150D-03      0.884D-04       -55.67411237    105.390084    0.00000    0.00000   -3.96463    9    diag,B
  154      0.170D-03      0.831D-04       -55.67418424    105.376987    0.00000    0.00000   -3.93938    9    diag,B
  155      0.957D-04      0.843D-04       -55.67417021    105.379326    0.00000    0.00000   -3.94421    9    diag,B
  156      0.513D-04      0.828D-04       -55.67434789    105.343757    0.00000    0.00000   -3.88159    9    diag,B
  157      0.215D-03      0.998D-04       -55.67409523    105.391985    0.00000    0.00000   -3.96966    9    diag,B
  158      0.320D-03      0.826D-04       -55.67414243    105.383545    0.00000    0.00000   -3.95317    9    orth
  159      0.593D-04      0.807D-04       -55.67419885    105.373986    0.00000    0.00000   -3.93408    9    diag,B
  160      0.102D-03      0.842D-04       -55.67429189    105.354286    0.00000    0.00000   -3.90018    9    diag,B
  161      0.112D-03      0.907D-04       -55.67420533    105.373604    0.00000    0.00000   -3.93223    9    diag,B
  162      0.121D-03      0.847D-04       -55.67431498    105.351528    0.00000    0.00000   -3.89338    9    diag,B
  163      0.126D-03      0.932D-04       -55.67410322    105.391511    0.00000    0.00000   -3.96743    9    diag,B
  164      0.255D-03      0.838D-04       -55.67414947    105.382715    0.00000    0.00000   -3.95085    9    diag,B
  165      0.579D-04      0.827D-04       -55.67424338    105.365765    0.00000    0.00000   -3.91863    9    diag,B
  166      0.117D-03      0.879D-04       -55.67424655    105.363052    0.00000    0.00000   -3.91559    9    diag,B
  167      0.365D-04      0.879D-04       -55.67436237    105.340738    0.00000    0.00000   -3.87627    9    diag,B
  168      0.131D-03      0.990D-04       -55.67417467    105.376654    0.00000    0.00000   -3.94060    9    orth
  169      0.212D-03      0.828D-04       -55.67420929    105.369486    0.00000    0.00000   -3.92793    9    diag,B
  170      0.415D-04      0.845D-04       -55.67422158    105.369043    0.00000    0.00000   -3.92539    9    diag,B
  171      0.484D-04      0.862D-04       -55.67437442    105.336548    0.00000    0.00000   -3.87089    9    diag,B
  172      0.169D-03      0.102D-03       -55.67409417    105.393981    0.00000    0.00000   -3.97130    9    diag,B
  173      0.329D-03      0.840D-04       -55.67416780    105.381456    0.00000    0.00000   -3.94615    9    diag,B
  174      0.915D-04      0.815D-04       -55.67421506    105.371095    0.00000    0.00000   -3.92826    9    diag,B
  175      0.638D-04      0.847D-04       -55.67430559    105.353552    0.00000    0.00000   -3.89686    9    diag,B
  176      0.105D-03      0.914D-04       -55.67421644    105.370133    0.00000    0.00000   -3.92691    9    diag,B
  177      0.976D-04      0.842D-04       -55.67429736    105.353821    0.00000    0.00000   -3.89819    9    diag,B
  178      0.939D-04      0.901D-04       -55.67409883    105.391925    0.00000    0.00000   -3.96839    9    orth
  179      0.238D-03      0.827D-04       -55.67414803    105.383443    0.00000    0.00000   -3.95153    9    diag,B
  180      0.607D-04      0.816D-04       -55.67425108    105.363167    0.00000    0.00000   -3.91477    9    diag,B
  181      0.123D-03      0.878D-04       -55.67420755    105.372139    0.00000    0.00000   -3.93046    9    diag,B
  182      0.543D-04      0.836D-04       -55.67433081    105.347358    0.00000    0.00000   -3.88714    9    diag,B
  183      0.139D-03      0.946D-04       -55.67410281    105.390936    0.00000    0.00000   -3.96680    9    diag,B
  184      0.268D-03      0.825D-04       -55.67413279    105.385367    0.00000    0.00000   -3.95619    9    diag,B
  185      0.376D-04      0.818D-04       -55.67429335    105.353970    0.00000    0.00000   -3.89947    9    diag,B
  186      0.191D-03      0.927D-04       -55.67413808    105.384045    0.00000    0.00000   -3.95404    9    diag,B
  187      0.186D-03      0.822D-04       -55.67417239    105.377150    0.00000    0.00000   -3.94153    9    diag,B
  188      0.436D-04      0.835D-04       -55.67429783    105.352625    0.00000    0.00000   -3.89756    9    orth
  189      0.148D-03      0.937D-04       -55.67421025    105.369099    0.00000    0.00000   -3.92748    9    diag,B
  190      0.102D-03      0.864D-04       -55.67431115    105.347782    0.00000    0.00000   -3.89104    9    diag,B
  191      0.119D-03      0.965D-04       -55.67411935    105.387818    0.00000    0.00000   -3.96132    9    diag,B
  192      0.242D-03      0.837D-04       -55.67421587    105.370735    0.00000    0.00000   -3.92818    9    diag,B
  193      0.118D-03      0.852D-04       -55.67421382    105.369208    0.00000    0.00000   -3.92706    9    diag,B
  194      0.239D-04      0.863D-04       -55.67437489    105.336345    0.00000    0.00000   -3.87062    9    diag,B
  195      0.184D-03      0.103D-03       -55.67411447    105.387883    0.00000    0.00000   -3.96230    9    diag,B
  196      0.309D-03      0.842D-04       -55.67412597    105.386045    0.00000    0.00000   -3.95863    9    diag,B
  197      0.145D-04      0.835D-04       -55.67431490    105.348826    0.00000    0.00000   -3.89185    9    diag,B
  198      0.227D-03      0.967D-04       -55.67414394    105.382501    0.00000    0.00000   -3.95203    9    orth
  199      0.205D-03      0.837D-04       -55.67417175    105.381928    0.00000    0.00000   -3.94635    9    orth
  200      0.355D-04      0.741D-04       -55.67419822    105.394622    0.00000    0.00000   -3.94837    0    orth

 Final alpha occupancy:   5   2   2   0
 Final beta  occupancy:   4   2   2   0

 !RHF STATE 1.1 Energy                -55.674198219401
   --><property name="Energy" method="RHF" principal="true" stateSymmetry="1" stateNumber="1"
     value="-55.6741982194009"/><!--
 Nuclear energy                        15.18508518
 One-electron energy                 -123.55659448
 Two-electron energy                   52.69731108
 Virial quotient                       -2.25875042
 !RHF STATE 1.1 Dipole moment           0.00000000     0.00000000    -3.94837021
 Dipole moment /Debye                   0.00000000     0.00000000   -10.03509875
   --><property name="Dipole moment" method="RHF" principal="true" stateSymmetry="1"
     stateNumber="1" value="0.0 0.0 -3.94837020576944"/><!--

 ELECTRON ORBITALS
 =================


   Orb  Occ    Energy  Couls-En    Coefficients

                                   1 1s      1 1s      1 1s      1 1s      1 1s      1 1s      1 1s      1 1s      1 1s      1 1s
                                   1 1s      1 1s      1 1s      1 1s      1 1s      1 1s      1 1s      1 1s      1 1s      1 1s
                                   1 1s      1 1s      1 1s      1 1s      1 1s      1 1s      1 1s      1 1s      1 1s      1 1s
                                   1 1s      1 2pz     1 2pz     1 2pz     1 2pz     1 2pz     1 2pz     1 2pz     1 2pz     1 2pz
                                   1 2pz     1 2pz     1 2pz     1 2pz     1 2pz     1 2pz     1 2pz     1 2pz     1 2pz     1 2pz
                                   1 2pz     1 2pz     1 2pz     1 2pz     1 2pz     1 2pz     1 2pz     1 2pz     1 3d0     1 3d2+
                                   1 3d0     1 3d2+    1 3d0     1 3d2+    1 3d0     1 3d2+    1 3d0     1 3d2+    1 3d0     1 3d2+
                                   1 3d0     1 3d2+    1 3d0     1 3d2+    1 3d0     1 3d2+    1 3d0     1 3d2+    1 3d0     1 3d2+
                                   1 3d0     1 3d2+    1 3d0     1 3d2+    1 3d0     1 3d2+    1 3d0     1 3d2+    1 3d0     1 3d2+
                                   1 3d0     1 3d2+    1 3d0     1 3d2+    1 4f0     1 4f2+    1 4f0     1 4f2+    1 4f0     1 4f2+
                                   1 4f0     1 4f2+    1 4f0     1 4f2+    1 4f0     1 4f2+    1 4f0     1 4f2+    1 4f0     1 4f2+
                                   1 4f0     1 4f2+    1 4f0     1 4f2+    1 4f0     1 4f2+    1 4f0     1 4f2+    1 4f0     1 4f2+
                                   1 5g0     1 5g4+    1 5g2+    1 5g0     1 5g4+    1 5g2+    1 5g0     1 5g4+    1 5g2+    1 5g0
                                   1 5g4+    1 5g2+    1 5g0     1 5g4+    1 5g2+    1 5g0     1 5g4+    1 5g2+    1 6h2+    1 6h4+
                                   1 6h0     1 6h2+    1 6h4+    1 6h0     1 6h2+    1 6h4+    1 6h0     2 1s      2 1s      2 1s
                                   2 1s      2 1s      2 1s      2 1s      2 1s      2 1s      2 1s      2 1s      2 1s      2 1s
                                   2 2pz     2 2pz     2 2pz     2 2pz     2 2pz     2 2pz     2 2pz     2 2pz     2 3d0     2 3d2+
                                   2 3d0     2 3d2+    2 3d0     2 3d2+    2 3d0     2 3d2+    2 4f0     2 4f2+    2 4f0     2 4f2+


   1.1   2    -2.6424  -12.0431 -0.000000  0.000000 -0.000000  0.000000 -0.000000  0.000000 -0.000001  0.000003 -0.000007  0.000018
                                -0.000044  0.000106 -0.000248  0.000556 -0.001192  0.002452 -0.004602  0.007197 -0.007561 -0.001104
                                 0.188985 -0.375527 -0.255063  0.157314  0.776588  0.309739  0.049508 -0.025806  0.026217 -0.018408
                                 0.005898 -0.000000  0.000000 -0.000000  0.000000 -0.000000  0.000000 -0.000000  0.000000 -0.000000
                                 0.000000 -0.000000  0.000001 -0.000003  0.000007 -0.000010  0.000004 -0.000456  0.001081  0.000699
                                -0.000043 -0.003336 -0.004181 -0.009395  0.002962 -0.002779  0.002214 -0.003122 -0.000000  0.000000
                                 0.000000 -0.000000 -0.000000  0.000000  0.000001 -0.000000 -0.000002  0.000000  0.000007 -0.000000
                                -0.000017  0.000000  0.000039 -0.000000 -0.000085  0.000000  0.000160 -0.000000  0.000046  0.000000
                                 0.000083 -0.000000 -0.004140  0.000001 -0.004654  0.000001  0.000584 -0.000001 -0.000821  0.000001
                                 0.002450 -0.000001 -0.001147  0.000000 -0.000000 -0.000000  0.000000  0.000000 -0.000000 -0.000000
                                 0.000000  0.000000  0.000001 -0.000000 -0.000001  0.000000 -0.000059 -0.000000 -0.000083 -0.000000
                                -0.000935 -0.000001 -0.000328 -0.000000  0.000207  0.000000  0.000392 -0.000000 -0.000141  0.000000
                                -0.000000  0.000000  0.000000  0.000002 -0.000000 -0.000000 -0.000008  0.000000  0.000000  0.000161
                                 0.000000  0.000001  0.000121 -0.000000 -0.000000 -0.000028  0.000000  0.000000  0.000000 -0.000000
                                 0.000003 -0.000000 -0.000000 -0.000027  0.000000 -0.000000  0.000080 -0.000000  0.000000 -0.000000
                                 0.000001 -0.000007  0.000232 -0.000301  0.000743  0.001573  0.001670 -0.002276 -0.000302 -0.000382
                                -0.000027 -0.000223 -0.000687 -0.001162 -0.001245  0.000884 -0.000012  0.000007  0.000076  0.000000
                                 0.000397  0.000000  0.000513  0.000000  0.000009  0.000000 -0.000015 -0.000000 -0.000281 -0.000000

   2.1   2    -1.4252   -9.5189 -0.000000  0.000000 -0.000000  0.000000 -0.000000  0.000000 -0.000000  0.000000 -0.000000  0.000001
                                -0.000001  0.000003 -0.000007  0.000016 -0.000034  0.000071 -0.000132  0.000207 -0.000219  0.000081
                                 0.004394 -0.008957 -0.008023  0.006200  0.032414 -0.003999 -0.013806 -0.003554 -0.013737 -0.007934
                                 0.004491 -0.000000  0.000000 -0.000000  0.000000 -0.000000  0.000000 -0.000000  0.000001 -0.000002
                                 0.000007 -0.000019  0.000053 -0.000145  0.000463 -0.002592  0.021510  0.001941 -0.070118 -0.105308
                                 0.178157  0.530116 -0.021695  0.396633 -0.007765  0.065312 -0.013930  0.008677 -0.000000 -0.000000
                                 0.000000  0.000000 -0.000000 -0.000000  0.000001  0.000000 -0.000004 -0.000000  0.000013  0.000000
                                -0.000034 -0.000000  0.000079  0.000000 -0.000174 -0.000000  0.000341  0.000000  0.000180  0.000000
                                -0.000162 -0.000000 -0.008000 -0.000003 -0.016735 -0.000004 -0.006514  0.000003 -0.001309 -0.000001
                                -0.005599  0.000002  0.003212 -0.000001 -0.000000 -0.000000  0.000000  0.000000 -0.000000 -0.000000
                                 0.000001  0.000000  0.000003 -0.000000  0.000002  0.000000 -0.000193  0.000000 -0.000337  0.000000
                                -0.003201  0.000002 -0.003069  0.000004 -0.001444  0.000002 -0.001375 -0.000000  0.000556  0.000000
                                -0.000007 -0.000000 -0.000000  0.000035  0.000000  0.000000 -0.000120 -0.000000 -0.000000 -0.000412
                                -0.000000  0.000000 -0.000643 -0.000000  0.000001  0.000273  0.000000 -0.000000 -0.000000 -0.000000
                                 0.000005 -0.000000 -0.000000 -0.000117  0.000000 -0.000000  0.000248 -0.000000  0.000000 -0.000002
                                 0.000014 -0.000126  0.004831 -0.009452  0.016289  0.046533  0.036784  0.021990 -0.004391 -0.007771
[...]
                                 0.000006  0.000000  0.000000 -0.000055 -0.000000 -0.000000  0.000254 -0.000000  0.000000 -0.000003
                                 0.000017 -0.000102  0.001382  0.007323  0.005446 -0.014823  0.025853 -0.335095 -0.007312 -0.003045
                                -0.000567 -0.004816 -0.016960 -0.025494 -0.038155  0.026427 -0.000504  0.000147  0.000051  0.000001
                                -0.003939  0.000004  0.007514  0.000008 -0.000058  0.000000 -0.000106 -0.000000  0.001956 -0.000002

                                   1 2px     1 2px     1 2px     1 2px     1 2px     1 2px     1 2px     1 2px     1 2px     1 2px
                                   1 2px     1 2px     1 2px     1 2px     1 2px     1 2px     1 2px     1 2px     1 2px     1 2px
                                   1 2px     1 2px     1 2px     1 2px     1 2px     1 2px     1 2px     1 3d1+    1 3d1+    1 3d1+
                                   1 3d1+    1 3d1+    1 3d1+    1 3d1+    1 3d1+    1 3d1+    1 3d1+    1 3d1+    1 3d1+    1 3d1+
                                   1 3d1+    1 3d1+    1 3d1+    1 3d1+    1 3d1+    1 4f1+    1 4f3+    1 4f1+    1 4f3+    1 4f1+
                                   1 4f3+    1 4f1+    1 4f3+    1 4f1+    1 4f3+    1 4f1+    1 4f3+    1 4f1+    1 4f3+    1 4f1+
                                   1 4f3+    1 4f1+    1 4f3+    1 4f1+    1 4f3+    1 4f1+    1 4f3+    1 4f1+    1 4f3+    1 4f1+
                                   1 4f3+    1 5g1+    1 5g3+    1 5g1+    1 5g3+    1 5g1+    1 5g3+    1 5g1+    1 5g3+    1 5g1+
                                   1 5g3+    1 5g1+    1 5g3+    1 6h1+    1 6h3+    1 6h5+    1 6h1+    1 6h3+    1 6h5+    1 6h1+
                                   1 6h3+    1 6h5+    2 2px     2 2px     2 2px     2 2px     2 2px     2 2px     2 2px     2 2px
                                   2 3d1+    2 3d1+    2 3d1+    2 3d1+    2 4f1+    2 4f3+    2 4f1+    2 4f3+

   1.2   2    -1.4376   -9.4440 -0.000000  0.000000 -0.000000  0.000000 -0.000000  0.000000 -0.000000  0.000001 -0.000002  0.000006
                                -0.000018  0.000050 -0.000137  0.000442 -0.002534  0.021219  0.002772 -0.071250 -0.105632  0.178079
                                 0.532474 -0.018372  0.404069  0.051741  0.068117 -0.004667 -0.049635 -0.000000  0.000000 -0.000000
                                 0.000001 -0.000002  0.000006 -0.000015  0.000036 -0.000080  0.000157  0.000136 -0.000029 -0.003823
                                -0.012413 -0.004648  0.002143 -0.002634  0.000582 -0.000000  0.000000  0.000000 -0.000000 -0.000001
                                 0.000000  0.000005 -0.000000 -0.000008  0.000000  0.000029 -0.000000 -0.000282 -0.000000 -0.000354
                                -0.000000 -0.003320 -0.000000 -0.003573 -0.000001 -0.000208 -0.000001 -0.000187  0.000000 -0.000070
                                -0.000000 -0.000007 -0.000000  0.000037  0.000000 -0.000166 -0.000000 -0.000622 -0.000001  0.000121
                                 0.000001 -0.000171 -0.000000  0.000000 -0.000000 -0.000000 -0.000061 -0.000000 -0.000000  0.000026
                                -0.000000 -0.000000  0.000086  0.000744  0.002263  0.003742  0.003269  0.000865  0.000018 -0.000023
                                -0.000146 -0.000904 -0.001059 -0.000017  0.000077  0.000000  0.000507  0.000000

   2.2   2    -0.3090   -6.5725  0.000000 -0.000000  0.000000 -0.000000  0.000000 -0.000000  0.000000 -0.000000  0.000000 -0.000000
                                 0.000001 -0.000002  0.000004 -0.000016  0.000129 -0.001232 -0.000457  0.005025  0.006914 -0.013094
                                -0.038989  0.000983 -0.038694 -0.103495  0.030372  0.066427  0.102646 -0.000000  0.000000 -0.000000
                                 0.000001 -0.000003  0.000010 -0.000026  0.000052 -0.000020 -0.000023 -0.005615  0.009483  0.042919
                                 0.082889  0.092935 -0.003558  0.048145 -0.022031 -0.000000 -0.000000  0.000001  0.000000 -0.000005
                                -0.000000  0.000018  0.000000 -0.000062 -0.000000  0.000129  0.000000  0.000209 -0.000000  0.001829
                                 0.000000  0.002201 -0.000000  0.015268  0.000000  0.011294  0.000001  0.007540  0.000001 -0.004374
                                 0.000000  0.000007  0.000000 -0.000030 -0.000000  0.000364  0.000000  0.005450  0.000001 -0.001543
                                 0.000001  0.001406  0.000000  0.000064 -0.000000 -0.000000 -0.000521  0.000000  0.000000  0.001984
                                -0.000000 -0.000000  0.009017  0.077404  0.254850  0.399112  0.351633  0.096787  0.005115 -0.002372
                                -0.002550 -0.011031 -0.020474 -0.000267  0.000669  0.000003  0.005320  0.000002

   3.2   0    -0.0166   -3.0225  0.000000 -0.000000  0.000000 -0.000000  0.000000 -0.000000  0.000000 -0.000001  0.000002 -0.000006
                                 0.000016 -0.000045  0.000120 -0.000345  0.001288 -0.008750  0.008092  0.006861  0.025324 -0.047325
                                -0.070446 -0.075445 -0.051945 -9.974568  0.010196  0.515351 10.420700  0.000000 -0.000000  0.000000
                                -0.000001  0.000005 -0.000015  0.000038 -0.000078  0.000054 -0.000026  0.006927 -0.011791 -0.052179
                                -0.097068 -0.107024 -0.474388  0.668045 -0.594358  0.000000  0.000000 -0.000000 -0.000000  0.000001
                                 0.000000 -0.000003 -0.000000  0.000006  0.000000 -0.000018 -0.000000  0.000124 -0.000000  0.000049
                                -0.000001  0.001105 -0.000001  0.002300 -0.000007  0.004447 -0.000013 -0.008698 -0.000002  0.008855
                                -0.000005  0.000009  0.000000 -0.000044 -0.000000  0.000329  0.000000  0.004694  0.000002  0.003453
                                 0.000000 -0.000654 -0.000001  0.000004  0.000000  0.000000 -0.000034 -0.000000 -0.000000  0.000192
                                 0.000000  0.000000 -0.000170 -0.001465 -0.004764 -0.007544 -0.005232  0.025378 -0.000083  0.000045
                                 0.000091  0.001379 -0.001141  0.000025 -0.000060 -0.000000 -0.000899  0.000000

   4.2   0     0.0522   -2.1271 -0.000000  0.000000 -0.000000  0.000000 -0.000000  0.000000 -0.000001  0.000004 -0.000014  0.000042
                                -0.000122  0.000332 -0.000880  0.002445 -0.007417  0.041374 -0.078992  0.071197 -0.035091  0.063783
                                -0.462120  0.745912 -0.678302 69.427418  0.521985 -0.897044-68.984187 -0.000000  0.000000 -0.000001
                                 0.000003 -0.000010  0.000029 -0.000078  0.000189 -0.000510  0.001050  0.006526 -0.011134 -0.070857
                                -0.103519 -0.222424  0.642201 -1.410440  0.910821 -0.000000  0.000000  0.000001 -0.000000 -0.000003
                                 0.000000  0.000009 -0.000000 -0.000031  0.000000  0.000063 -0.000000  0.000106 -0.000000  0.000822
                                -0.000000  0.001250 -0.000001  0.009347 -0.000003  0.015982 -0.000009  0.047527  0.000003  0.165233
                                -0.000015  0.000012  0.000000 -0.000055 -0.000000  0.000425  0.000000  0.005822  0.000001  0.006150
                                -0.000002  0.053404  0.000007  0.000006  0.000000  0.000000 -0.000061 -0.000000 -0.000000  0.000341
                                 0.000000  0.000000  0.000725  0.005962  0.024191  0.032419  0.049830 -0.241674  0.001230 -0.000180
                                 0.000281  0.000283  0.004061 -0.000002 -0.000059  0.000000 -0.000672  0.000000

                                   1 2py     1 2py     1 2py     1 2py     1 2py     1 2py     1 2py     1 2py     1 2py     1 2py
                                   1 2py     1 2py     1 2py     1 2py     1 2py     1 2py     1 2py     1 2py     1 2py     1 2py
                                   1 2py     1 2py     1 2py     1 2py     1 2py     1 2py     1 2py     1 3d1-    1 3d1-    1 3d1-
                                   1 3d1-    1 3d1-    1 3d1-    1 3d1-    1 3d1-    1 3d1-    1 3d1-    1 3d1-    1 3d1-    1 3d1-
                                   1 3d1-    1 3d1-    1 3d1-    1 3d1-    1 3d1-    1 4f1-    1 4f3-    1 4f1-    1 4f3-    1 4f1-
                                   1 4f3-    1 4f1-    1 4f3-    1 4f1-    1 4f3-    1 4f1-    1 4f3-    1 4f1-    1 4f3-    1 4f1-
                                   1 4f3-    1 4f1-    1 4f3-    1 4f1-    1 4f3-    1 4f1-    1 4f3-    1 4f1-    1 4f3-    1 4f1-
                                   1 4f3-    1 5g1-    1 5g3-    1 5g1-    1 5g3-    1 5g1-    1 5g3-    1 5g1-    1 5g3-    1 5g1-
                                   1 5g3-    1 5g1-    1 5g3-    1 6h1-    1 6h3-    1 6h5-    1 6h1-    1 6h3-    1 6h5-    1 6h1-
                                   1 6h3-    1 6h5-    2 2py     2 2py     2 2py     2 2py     2 2py     2 2py     2 2py     2 2py
                                   2 3d1-    2 3d1-    2 3d1-    2 3d1-    2 4f1-    2 4f3-    2 4f1-    2 4f3-

   1.3   2    -1.4376   -9.4440 -0.000000  0.000000 -0.000000  0.000000 -0.000000  0.000000 -0.000000  0.000001 -0.000002  0.000006
                                -0.000018  0.000050 -0.000137  0.000442 -0.002534  0.021219  0.002772 -0.071249 -0.105632  0.178079
                                 0.532473 -0.018374  0.404069  0.051740  0.068121 -0.004664 -0.049634 -0.000000  0.000000 -0.000000
                                 0.000001 -0.000002  0.000006 -0.000015  0.000036 -0.000080  0.000157  0.000136 -0.000028 -0.003816
                                -0.012406 -0.004654  0.002147 -0.002639  0.000584 -0.000000  0.000000  0.000000 -0.000000 -0.000001
                                 0.000000  0.000005 -0.000000 -0.000008  0.000000  0.000029 -0.000000 -0.000282 -0.000000 -0.000355
                                -0.000000 -0.003323 -0.000000 -0.003578 -0.000001 -0.000212 -0.000001 -0.000185  0.000000 -0.000070
                                -0.000000 -0.000007 -0.000000  0.000037  0.000000 -0.000166 -0.000000 -0.000623 -0.000001  0.000121
                                 0.000001 -0.000172 -0.000000  0.000000 -0.000000 -0.000000 -0.000061 -0.000000 -0.000000  0.000025
                                -0.000000 -0.000000  0.000086  0.000744  0.002261  0.003738  0.003266  0.000864  0.000018 -0.000023
                                -0.000146 -0.000903 -0.001059 -0.000017  0.000077  0.000000  0.000507  0.000000

   2.3   2    -0.3092   -6.5737  0.000000 -0.000000  0.000000 -0.000000  0.000000 -0.000000  0.000000 -0.000000  0.000000 -0.000000
                                 0.000001 -0.000002  0.000004 -0.000016  0.000129 -0.001231 -0.000456  0.005018  0.006906 -0.013078
                                -0.038930  0.000969 -0.038630 -0.103760  0.030327  0.066215  0.102796 -0.000000  0.000000 -0.000000
                                 0.000001 -0.000003  0.000010 -0.000026  0.000052 -0.000020 -0.000022 -0.005599  0.009454  0.042776
                                 0.082628  0.092654 -0.003658  0.048113 -0.022090 -0.000000 -0.000000  0.000001  0.000000 -0.000005
                                -0.000000  0.000018  0.000000 -0.000062 -0.000000  0.000129  0.000000  0.000208 -0.000000  0.001828
                                 0.000000  0.002198 -0.000000  0.015265  0.000000  0.011284  0.000001  0.007532  0.000001 -0.004382
                                 0.000000  0.000007  0.000000 -0.000031 -0.000000  0.000365  0.000000  0.005456  0.000001 -0.001545
                                 0.000001  0.001406  0.000000  0.000064 -0.000000 -0.000000 -0.000522  0.000000  0.000000  0.001985
                                -0.000000 -0.000000  0.009022  0.077447  0.254990  0.399309  0.351752  0.096765  0.005117 -0.002374
                                -0.002548 -0.011021 -0.020468 -0.000267  0.000670  0.000003  0.005319  0.000002

   3.3   0    -0.0166   -3.0228  0.000000 -0.000000  0.000000 -0.000000  0.000000 -0.000000  0.000000 -0.000001  0.000002 -0.000006
                                 0.000016 -0.000045  0.000120 -0.000345  0.001288 -0.008746  0.008084  0.006871  0.025324 -0.047327
                                -0.070520 -0.075366 -0.052042 -9.968194  0.010287  0.515374 10.414301  0.000000 -0.000000  0.000000
                                -0.000001  0.000005 -0.000015  0.000038 -0.000078  0.000054 -0.000026  0.006926 -0.011788 -0.052167
                                -0.097042 -0.107037 -0.474231  0.667697 -0.594094  0.000000  0.000000 -0.000000 -0.000000  0.000001
                                 0.000000 -0.000003 -0.000000  0.000006  0.000000 -0.000018 -0.000000  0.000124 -0.000000  0.000049
                                -0.000001  0.001104 -0.000001  0.002292 -0.000007  0.004427 -0.000013 -0.008698 -0.000002  0.008841
                                -0.000005  0.000009  0.000000 -0.000044 -0.000000  0.000329  0.000000  0.004695  0.000002  0.003451
                                 0.000000 -0.000654 -0.000001  0.000004  0.000000  0.000000 -0.000034 -0.000000 -0.000000  0.000192
                                 0.000000  0.000000 -0.000170 -0.001469 -0.004776 -0.007564 -0.005246  0.025361 -0.000083  0.000045
                                 0.000091  0.001378 -0.001141  0.000025 -0.000060 -0.000000 -0.000898  0.000000

   4.3   0     0.0522   -2.1268 -0.000000  0.000000 -0.000000  0.000000 -0.000000  0.000000 -0.000001  0.000004 -0.000014  0.000042
                                -0.000122  0.000332 -0.000880  0.002445 -0.007417  0.041374 -0.078991  0.071195 -0.035092  0.063787
                                -0.462105  0.745905 -0.678284 69.426887  0.521988 -0.897038-68.983783 -0.000000  0.000000 -0.000001
                                 0.000003 -0.000010  0.000029 -0.000078  0.000189 -0.000510  0.001050  0.006526 -0.011133 -0.070847
                                -0.103507 -0.222413  0.642086 -1.410214  0.910685 -0.000000  0.000000  0.000001 -0.000000 -0.000003
                                 0.000000  0.000009 -0.000000 -0.000031  0.000000  0.000063 -0.000000  0.000106 -0.000000  0.000821
                                -0.000000  0.001248 -0.000001  0.009338 -0.000003  0.015962 -0.000009  0.047528  0.000003  0.165204
                                -0.000015  0.000012  0.000000 -0.000055 -0.000000  0.000425  0.000000  0.005820  0.000001  0.006146
                                -0.000002  0.053409  0.000007  0.000006  0.000000  0.000000 -0.000060 -0.000000 -0.000000  0.000341
                                 0.000000  0.000000  0.000723  0.005945  0.024135  0.032329  0.049748 -0.241700  0.001229 -0.000179
                                 0.000282  0.000285  0.004061 -0.000002 -0.000059  0.000000 -0.000672  0.000000

                                   1 3d2-    1 3d2-    1 3d2-    1 3d2-    1 3d2-    1 3d2-    1 3d2-    1 3d2-    1 3d2-    1 3d2-
                                   1 3d2-    1 3d2-    1 3d2-    1 3d2-    1 3d2-    1 3d2-    1 3d2-    1 3d2-    1 4f2-    1 4f2-
                                   1 4f2-    1 4f2-    1 4f2-    1 4f2-    1 4f2-    1 4f2-    1 4f2-    1 4f2-    1 4f2-    1 4f2-
                                   1 4f2-    1 5g2-    1 5g4-    1 5g2-    1 5g4-    1 5g2-    1 5g4-    1 5g2-    1 5g4-    1 5g2-
                                   1 5g4-    1 5g2-    1 5g4-    1 6h4-    1 6h2-    1 6h4-    1 6h2-    1 6h4-    1 6h2-    2 3d2-
                                   2 3d2-    2 3d2-    2 3d2-    2 4f2-    2 4f2-

   1.4   0     0.0321   -3.6216  0.000000 -0.000000  0.000001 -0.000005  0.000017 -0.000049  0.000124 -0.000263  0.000276 -0.000325
                                 0.017603 -0.030017 -0.127360 -0.261931 -0.190035 -1.262231  2.212894 -1.724298  0.000000 -0.000000
                                 0.000002 -0.000006  0.000009 -0.000034  0.000382  0.000500  0.002392  0.009618  0.060593 -0.021568
                                 0.155770  0.000014  0.000000 -0.000065 -0.000000  0.000520  0.000000  0.007573  0.000003  0.008348
                                 0.000002  0.002867 -0.000000  0.000000  0.000001 -0.000000 -0.000023  0.000001  0.000201 -0.000428
                                -0.002063 -0.002723 -0.000039  0.000088  0.001023

   2.4   0     0.0794   -2.7050 -0.000000  0.000001 -0.000003  0.000013 -0.000045  0.000133 -0.000349  0.000821 -0.001904  0.003749
                                 0.009175 -0.015586 -0.144966 -0.172680 -0.601223  3.518795 -7.288765  4.604174 -0.000001  0.000006
                                -0.000025  0.000084 -0.000239  0.000565 -0.001030  0.003141 -0.004790  0.025671 -0.050480  0.219422
                                -0.381409  0.000012  0.000000 -0.000058 -0.000000  0.000475  0.000000  0.007508  0.000002  0.004282
                                 0.000000  0.009730  0.000004  0.000000  0.000003 -0.000000 -0.000040  0.000001  0.000263 -0.000387
                                -0.000836 -0.003729 -0.000017  0.000318 -0.000449

 HOMO      5.1    -0.285479 =      -7.7683eV
 LUMO      3.3    -0.016604 =      -0.4518eV
 LUMO-HOMO         0.268875 =       7.3165eV

 No convergence



 **********************************************************************************************************************************
 DATASETS  * FILE   NREC   LENGTH (MB)   RECORD NAMES
              1      19       22.47       500      610      700      900      950      970     1000      129      960     1100
                                          VAR    BASINP    GEOM    SYMINP    ZMAT    AOBASIS   BASIS     P2S    ABASIS      S
                                         1400     1410     1420     1200     1210     1080     1600     1650     1700
                                           T        V       ECP      H0       H01     AOSYM     SMH    MOLCAS    OPER

              2       5        9.36       700     1000      520     2202     3202
                                         GEOM     BASIS   MCVARS     RHF      RHF

 PROGRAMS   *        TOTAL       RHF       RHF       INT
 CPU TIMES  *       212.13    107.67     10.23     93.83
 REAL TIME  *       248.83 SEC
 DISK USED  *         9.32 GB
 SF USED    *         0.24 MB
 GA USED    *         0.00 MB       (max)       0.00 MB       (current)
 **********************************************************************************************************************************
   -->
   <time start="09:48:37" end="09:50:32" cpu="107.68" system="6.38" real="114.62"/>
   <storage units="megabyte" memory="8001.84" sf="0.24" df="445.09" eaf="8875.85" ga="0.0"/>
  </jobstep><!--
 SETTING SCF            =       -55.67419822  AU
 SETTING _CC_NORM_MAX   =         2.00000000
  --><jobstep command="RCCSD(T)" commandset="CCSD">
   <!--


 PROGRAM * CCSD (Restricted open-shell coupled cluster)     Authors: C. Hampel, H.-J. Werner, 1991, M. Deegan, P.J. Knowles, 1992


 Convergence thresholds:  THRVAR = 1.00D-08  THRDEN = 1.00D-06

 CCSD(T)     terms to be evaluated (factor= 1.000)


 Number of closed-shell orbitals:   8 (   4   2   2   0 )
 Number of active  orbitals:        1 (   1   0   0   0 )
 Number of external orbitals:     442 ( 175 106 106  55 )

 Memory could be reduced to 357.68 Mwords without degradation in triples

 Number of N-1 electron functions:              17
 Number of N-2 electron functions:             136
 Number of singly external CSFs:              2432
 Number of doubly external CSFs:           5288016
 Total number of CSFs:                     5290448

 Molecular orbitals read from record     3202.2  Type=RHF/CANONICAL (state 1.1)

 ?Error: RHF not converged. This error exit can be avoided using the IGNORE_ERROR option on the ORBITAL directive
   --><error/><!--
  --></jobstep><!--
  -->
  <input>
  <!--
 --></job><!--
--></molpro>
