<?xml version="1.0"?>
<molpro xmlns="http://www.molpro.net/schema/molpro-output"
  xmlns:xsd="http://www.w3.org/1999/XMLSchema"
  xmlns:cml="http://www.xml-cml.org/schema"
  xmlns:stm="http://www.xml-cml.org/schema"
  xmlns:xhtml="http://www.w3.org/1999/xhtml">
 <!--

 Nodes     nprocs
 nid02152    11
 Number of processes for MPI-2 version of Molpro:   nprocs(total)=   12   nprocs(compute)=   11   nprocs(helper)=    1

 Using customized tuning parameters: mindgm=7; mindgv=16; mindgc=1; mindgr=1; noblas=0; minvec=7
 default implementation of scratch files=sf

 --><job>
  <!--

 Variables initialized (889), CPU time= 0.01 sec
 Commands  initialized (702), CPU time= 0.01 sec, 572 directives.
 Default parameters read. Elapsed time= 0.11 sec

 Checking input...
 Passed
1


                                         ***  PROGRAM SYSTEM MOLPRO  ***
                                       Copyright, TTI GmbH Stuttgart, 2015
                                    Version 2015.1 linked Dec 29 2018 15:55:43


 **********************************************************************************************************************************
 LABEL *   Calculation for GdH3 atom, singlet and triplet
  64 bit mpp version                                                                     DATE: 27-Dec-22          TIME: 13:36:47
 **********************************************************************************************************************************

 SHA1:             19cd028119e0e09f93f0674bd8af7968d9b3eff6
 **********************************************************************************************************************************
  -->
  <!--

 THRESHOLDS:

 ZERO    =  1.00D-12  ONEINT  =  1.00D-12  TWOINT  =  1.00D-15  PREFAC  =  1.00D-14  LOCALI  =  1.00D-09  EORDER  =  1.00D-04
 ENERGY  =  0.00D+00  ETEST   =  0.00D+00  EDENS   =  0.00D+00  THRDEDEF=  1.00D-06  GRADIENT=  1.00D-02  STEP    =  1.00D-03
 ORBITAL =  1.00D-05  CIVEC   =  1.00D-05  COEFF   =  1.00D-04  PRINTCI =  5.00D-02  PUNCHCI =  9.90D+01  OPTGRAD =  3.00D-04
 OPTENERG=  1.00D-06  OPTSTEP =  3.00D-04  THRGRAD =  1.00D-10  COMPRESS=  1.00D-11  VARMIN  =  1.00D-07  VARMAX  =  1.00D-03
 THRDOUB =  0.00D+00  THRDIV  =  1.00D-05  THRRED  =  1.00D-07  THRPSP  =  1.00D+00  THRDC   =  1.00D-10  THRCS   =  1.00D-10
 THRNRM  =  1.00D-08  THREQ   =  0.00D+00  THRDE   =  1.00D+00  THRREF  =  1.00D-05  SPARFAC =  1.00D+00  THRDLP  =  1.00D-07
 THRDIA  =  1.00D-10  THRDLS  =  1.00D-07  THRGPS  =  0.00D+00  THRKEX  =  0.00D+00  THRDIS  =  2.00D-01  THRVAR  =  1.00D-10
 THRLOC  =  1.00D-06  THRGAP  =  1.00D-06  THRLOCT = -1.00D+00  THRGAPT = -1.00D+00  THRORB  =  1.00D-06  THRMLTP =  0.00D+00
 THRCPQCI=  1.00D-10  KEXTA   =  0.00D+00  THRCOARS=  0.00D+00  SYMTOL  =  1.00D-06  GRADTOL =  1.00D-06  THROVL  =  1.00D-08
 THRORTH =  1.00D-08  GRID    =  1.00D-06  GRIDMAX =  1.00D-03  DTMAX   =  0.00D+00  THROCCDE=  1.00D-01  THROCCDE=  1.00D-01



 THRESHOLDS:

 ZERO    =  1.00D-12  ONEINT  =  1.00D-12  TWOINT  =  1.00D-15  PREFAC  =  1.00D-14  LOCALI  =  1.00D-09  EORDER  =  1.00D-04
 ENERGY  =  0.00D+00  ETEST   =  0.00D+00  EDENS   =  0.00D+00  THRDEDEF=  1.00D-06  GRADIENT=  1.00D-02  STEP    =  1.00D-03
 ORBITAL =  1.00D-05  CIVEC   =  1.00D-05  COEFF   =  1.00D-04  PRINTCI =  5.00D-02  PUNCHCI =  9.90D+01  OPTGRAD =  3.00D-04
 OPTENERG=  1.00D-06  OPTSTEP =  3.00D-04  THRGRAD =  1.00D-10  COMPRESS=  1.00D-11  VARMIN  =  1.00D-07  VARMAX  =  1.00D-03
 THRDOUB =  0.00D+00  THRDIV  =  1.00D-05  THRRED  =  1.00D-07  THRPSP  =  1.00D+00  THRDC   =  1.00D-10  THRCS   =  1.00D-10
 THRNRM  =  1.00D-08  THREQ   =  0.00D+00  THRDE   =  1.00D+00  THRREF  =  1.00D-05  SPARFAC =  1.00D+00  THRDLP  =  1.00D-07
 THRDIA  =  1.00D-10  THRDLS  =  1.00D-07  THRGPS  =  0.00D+00  THRKEX  =  0.00D+00  THRDIS  =  2.00D-01  THRVAR  =  1.00D-10
 THRLOC  =  1.00D-06  THRGAP  =  1.00D-06  THRLOCT = -1.00D+00  THRGAPT = -1.00D+00  THRORB  =  1.00D-06  THRMLTP =  0.00D+00
 THRCPQCI=  1.00D-10  KEXTA   =  0.00D+00  THRCOARS=  0.00D+00  SYMTOL  =  1.00D-06  GRADTOL =  1.00D-06  THROVL  =  1.00D-15
 THRORTH =  1.00D-08  GRID    =  1.00D-06  GRIDMAX =  1.00D-03  DTMAX   =  0.00D+00  THROCCDE=  1.00D-01  THROCCDE=  1.00D-01



 Variable memory set to 1000000000 words,  buffer space   230000 words

 SETTING BASIS          =    USERDEF
 SETTING GD_CCSD        =      -108.94859710
 SETTING H_CCSD         =        -0.49982987
 SETTING NE             =        19.00000000
 SETTING SYMM           =         4.00000000
 SETTING SS             =         9.00000000
 SETTING A1             =         7.00000000
 SETTING B1             =         3.00000000
 SETTING B2             =         3.00000000
 SETTING A2             =         1.00000000
 ZUNIT=ANG


Geometry recognized as XYZ

  --><jobstep command="RHF-SCF" commandset="SCFPRO">
   <!--


 Recomputing integrals since basis changed


 Using spherical harmonics



 PROGRAM * SEWARD (Integral evaluation for generally contracted gaussian basis sets)     Author: Roland Lindh, 1990

 Geometry written to block  1 of record 700


 Point group  C2v


   --><cml:molecule>
    <cml:symmetry pointGroup="C2v"/>
    <cml:atomArray>
     <cml:atom id="a1" elementType="Gd" x3="0.0" y3="0.0" z3="0.0"/>
     <cml:atom id="a2" elementType="H" x3="0.0" y3="0.0" z3="2.6"/>
    </cml:atomArray>
    <cml:bondArray>
     <cml:bond atomRefs2="a1 a2"/>
    </cml:bondArray>
   </cml:molecule><!--

 ATOMIC COORDINATES

 NR  ATOM    CHARGE       X              Y              Z

   1  GD     18.00    0.000000000    0.000000000    0.000000000
   2  H       1.00    0.000000000    0.000000000    4.913287924

 Bond lengths in Bohr (Angstrom)

 1-2  4.913287924
     ( 2.600000000)

 NUCLEAR CHARGE:                   19
 NUMBER OF PRIMITIVE AOS:         619
 NUMBER OF SYMMETRY AOS:          469
 NUMBER OF CONTRACTIONS:          469   ( 183A1  + 112B1  + 112B2  +  62A2  )
 NUMBER OF CORE ORBITALS:           0   (   0A1  +   0B1  +   0B2  +   0A2  )
 NUMBER OF VALENCE ORBITALS:       18   (   8A1  +   4B1  +   4B2  +   2A2  )


 NUCLEAR REPULSION ENERGY    3.66353454

 EXTRA SYMMETRY OF AOS IN SYMMETRY 1:   1 1 1 1 1 1 1 1 1 1   1 1 1 1 1 1 1 1 1 1   1 1 1 1 1 1 1 1 1 1   1 1 1 1 1 1 1 1 1 1
                                        1 1 1 1 1 1 1 1 1 1   1 1 1 1 1 1 1 1 1 1   1 1 1 2 1 2 1 2 1 2   1 2 1 2 1 2 1 2 1 2
                                        1 2 1 2 1 2 1 2 1 2   1 2 1 2 1 2 1 2 1 2   1 2 1 2 1 2 1 2 1 2   1 2 1 2 1 2 1 2 1 2
                                        1 2 1 2 1 2 1 2 1 2   1 2 1 2 1 3 2 1 3 2   1 3 2 1 3 2 1 3 2 1   3 2 1 3 2 1 3 2 1 3
                                        2 2 3 1 2 3 1 2 3 1   1 1 1 1 1 1 1 1 1 1   2 1 2
 EXTRA SYMMETRY OF AOS IN SYMMETRY 2:   1 1 1 1 1 1 1 1 1 1   1 1 1 1 1 1 1 1 1 1   1 1 1 1 1 1 1 1 1 1   1 1 1 1 1 1 1 1 1 1
                                        1 1 1 1 1 1 1 1 1 1   1 1 1 2 1 2 1 2 1 2   1 2 1 2 1 2 1 2 1 2   1 2 1 2 1 2 1 2 1 2
                                        1 2 1 2 1 2 1 2 1 2   1 2 1 2 1 2 1 2 1 2   3 1 2 3 1 2 3 1 1 1   1 1
 EXTRA SYMMETRY OF AOS IN SYMMETRY 3:   1 1 1 1 1 1 1 1 1 1   1 1 1 1 1 1 1 1 1 1   1 1 1 1 1 1 1 1 1 1   1 1 1 1 1 1 1 1 1 1
                                        1 1 1 1 1 1 1 1 1 1   1 1 1 2 1 2 1 2 1 2   1 2 1 2 1 2 1 2 1 2   1 2 1 2 1 2 1 2 1 2
                                        1 2 1 2 1 2 1 2 1 2   1 2 1 2 1 2 1 2 1 2   3 1 2 3 1 2 3 1 1 1   1 1
 EXTRA SYMMETRY OF AOS IN SYMMETRY 4:   1 1 1 1 1 1 1 1 1 1   1 1 1 1 1 1 1 1 1 1   1 1 1 1 1 1 1 1 1 1   1 1 1 1 1 1 1 2 1 2
                                        1 2 1 2 1 2 1 2 1 2   1 2 1 2 2 1 2 1 2 1   1 1

 Eigenvalues of metric

         1 0.116E-06 0.308E-06 0.614E-06 0.725E-06 0.727E-06 0.741E-06 0.134E-05 0.436E-05
         2 0.616E-06 0.727E-06 0.439E-05 0.139E-04 0.238E-04 0.448E-04 0.885E-04 0.148E-03
         3 0.616E-06 0.727E-06 0.439E-05 0.139E-04 0.238E-04 0.448E-04 0.885E-04 0.148E-03
         4 0.727E-06 0.238E-04 0.149E-03 0.540E-03 0.826E-03 0.926E-03 0.420E-02 0.882E-02


 Contracted 2-electron integrals neglected if value below      1.0D-15
 AO integral compression algorithm  1   Integral accuracy      1.0D-15

     5482.742 MB (compressed) written to integral file ( 47.0%)

     Node minimum: 318.243 MB, node maximum: 741.343 MB


 NUMBER OF SORTED TWO-ELECTRON INTEGRALS:  140150457.     BUFFER LENGTH:  32768
 NUMBER OF SEGMENTS:   5  SEGMENT LENGTH:   31995201      RECORD LENGTH: 524288

 Memory used in sort:      32.55 MW

 SORT1 READ  1457666564. AND WROTE    53570287. INTEGRALS IN    156 RECORDS. CPU TIME:    24.53 SEC, REAL TIME:    34.07 SEC
 SORT2 READ   590623091. AND WROTE  1542818159. INTEGRALS IN  15895 RECORDS. CPU TIME:     2.07 SEC, REAL TIME:     3.26 SEC

 Node minimum:   140147600.  Node maximum:   140434714. integrals

 OPERATOR DM      FOR CENTER  0  COORDINATES:    0.000000    0.000000    0.000000


 **********************************************************************************************************************************
 DATASETS  * FILE   NREC   LENGTH (MB)   RECORD NAMES
              1      19       22.57       500      610      700      900      950      970     1000      129      960     1100
                                          VAR    BASINP    GEOM    SYMINP    ZMAT    AOBASIS   BASIS     P2S    ABASIS      S
                                         1400     1410     1420     1200     1210     1080     1600     1650     1700
                                           T        V       ECP      H0       H01     AOSYM     SMH    MOLCAS    OPER

 PROGRAMS   *        TOTAL       INT
 CPU TIMES  *       112.24    112.00
 REAL TIME  *       125.38 SEC
 DISK USED  *        12.54 GB
 GA USED    *         0.00 MB       (max)       0.00 MB       (current)
 **********************************************************************************************************************************


 PROGRAM * RHF-SCF (OPEN SHELL)       Authors: W. Meyer, H.-J. Werner


 NUMBER OF ELECTRONS:      14+    5-    SPACE SYMMETRY=4    SPIN SYMMETRY: Decet
 CONVERGENCE THRESHOLDS:    1.00E-05 (Density)    1.00E-07 (Energy)
 MAX. NUMBER OF ITERATIONS:      200
 INTERPOLATION TYPE:            DIIS
 INTERPOLATION STEPS:              2 (START)      1 (STEP)
 LEVEL SHIFTS:                 -0.60 (CLOSED) -0.30 (OPEN)

 Number of closed-shell orbitals:    5 (   3   1   1   0 )
 Number of open-shell orbitals:      9 (   4   2   2   1 )


 Guess basis ATOMIC-GUESS,GD=ECP46_GUESS not found. No density guess!


 Molecular orbital dump at record        2100.2

 ITERATION    DDIFF          GRAD             ENERGY        2-EL.EN.            DIPOLE MOMENTS         DIIS   ORB.
    1      0.000D+00      0.000D+00       -75.27303452    337.443942    0.00000    0.00000    4.69351    0    start
    2      0.000D+00      0.168D+00       -23.32523166     18.609339    0.00000    0.00000  -76.80553    0    diag,B
    3      0.779D+01      0.394D-01       -76.37045551    335.139243    0.00000    0.00000    5.22569    1    diag,B
    4      0.779D+01      0.166D+00       -79.66853268    328.162368    0.00000    0.00000    5.20942    2    diag,B
    5      0.568D-01      0.153D+00       -83.70438159    318.831203    0.00000    0.00000    5.19707    3    diag,B
    6      0.614D-01      0.138D+00       -83.77860061    318.660490    0.00000    0.00000    5.19580    4    diag,B
    7      0.402D-02      0.138D+00       -84.03465033    318.018676    0.00000    0.00000    5.18966    5    diag,B
    8      0.193D-01      0.137D+00       -84.03436289    318.019595    0.00000    0.00000    5.18938    6    diag,B
    9      0.371D-03      0.137D+00       -84.12936548    317.781205    0.00000    0.00000    5.21680    7    diag,B
   10      0.998D-02      0.137D+00       -84.22207124    317.555896    0.00000    0.00000    5.19424    8    orth
   11      0.292D-02      0.136D+00       -84.24651614    317.498161    0.00000    0.00000    5.18911    9    diag,B
   12      0.679D-02      0.136D+00       -84.47164238    316.927945    0.00000    0.00000    5.19930    9    diag,B
   13      0.176D-01      0.135D+00       -85.07258656    315.410072    0.00000    0.00000    5.17680    9    diag,B
   14      0.119D-01      0.133D+00       -83.88250403    318.368999    0.00000    0.00000    5.15001    9    diag,B
   15      0.543D-01      0.137D+00       -85.36253122    314.680309    0.00000    0.00000    5.18574    9    diag,B
   16      0.442D-01      0.132D+00       -85.48681227    314.354573    0.00000    0.00000    5.19212    9    diag,B
   17      0.258D-01      0.132D+00       -85.46154820    314.418996    0.00000    0.00000    5.18278    9    diag,B
   18      0.682D-02      0.132D+00       -85.66450560    313.896082    0.00000    0.00000    5.17744    9    diag,B
   19      0.377D-02      0.131D+00       -85.66465617    313.894301    0.00000    0.00000    5.17489    9    diag,B
   20      0.115D-01      0.131D+00       -85.52809994    314.242132    0.00000    0.00000    5.18056    9    orth
   21      0.453D-02      0.132D+00       -85.08806087    315.361820    0.00000    0.00000    5.18711    9    diag,B
   22      0.119D-01      0.133D+00       -85.34951197    314.690537    0.00000    0.00000    5.23831    9    diag,B
   23      0.673D-02      0.132D+00       -84.72490272    316.263148    0.00000    0.00000    5.26832    9    diag,B
   24      0.171D-01      0.135D+00       -85.24866580    314.968364    0.00000    0.00000    5.12320    9    diag,B
   25      0.212D-01      0.133D+00       -85.03049256    315.491300    0.00000    0.00000    5.24998    9    diag,B
   26      0.340D-01      0.133D+00       -84.66838555    316.406141    0.00000    0.00000    5.25548    9    diag,B
   27      0.218D-01      0.135D+00       -85.12810982    315.261927    0.00000    0.00000    5.19026    9    diag,B
   28      0.125D-01      0.133D+00       -85.06715325    315.401095    0.00000    0.00000    5.24479    9    diag,B
   29      0.134D-01      0.133D+00       -84.49887528    316.829634    0.00000    0.00000    5.25142    9    diag,B
   30      0.228D-01      0.136D+00       -85.43624200    314.475346    0.00000    0.00000    5.19763    9    orth
   31      0.188D-01      0.132D+00       -85.37290281    314.632352    0.00000    0.00000    5.21024    9    diag,B
   32      0.484D-02      0.132D+00       -84.16449658    317.667542    0.00000    0.00000    5.20436    9    diag,B
   33      0.340D-01      0.137D+00       -86.21616571    312.462212    0.00000    0.00000    5.20154    9    diag,B
   34      0.366D-01      0.128D+00       -86.54415707    311.599322    0.00000    0.00000    5.21455    9    diag,B
   35      0.869D-02      0.127D+00       -86.68870256    311.218425    0.00000    0.00000    5.20575    9    diag,B
   36      0.537D-02      0.126D+00       -86.03213551    312.954770    0.00000    0.00000    5.17515    9    diag,B
   37      0.124D-01      0.129D+00       -86.54051708    311.609768    0.00000    0.00000    5.23470    9    diag,B
   38      0.271D-01      0.127D+00       -86.75875912    311.026110    0.00000    0.00000    5.22529    9    diag,B
   39      0.466D-02      0.126D+00       -86.90375091    310.636056    0.00000    0.00000    5.23294    9    diag,B
   40      0.118D-01      0.126D+00       -86.47625472    311.752074    0.00000    0.00000    5.25108    9    orth
   41      0.675D-02      0.127D+00       -86.89369503    310.649968    0.00000    0.00000    5.24279    9    diag,B
   42      0.736D-02      0.126D+00       -84.86427067    315.890531    0.00000    0.00000    5.29474    9    diag,B
   43      0.377D-01      0.134D+00       -82.82143905    320.951508    0.00000    0.00000    5.21511    9    diag,B
   44      0.373D-01      0.142D+00       -85.59080973    314.078514    0.00000    0.00000    5.24215    9    diag,B
   45      0.532D-01      0.131D+00       -86.54059970    311.609279    0.00000    0.00000    5.22916    9    diag,B
   46      0.260D-01      0.127D+00       -85.61185839    313.967173    0.00000    0.00000    5.35402    9    diag,B
   47      0.485D-01      0.131D+00       -83.15835415    320.110166    0.00000    0.00000    5.27273    9    diag,B
   48      0.495D-01      0.140D+00       -85.17604262    315.155918    0.00000    0.00000    5.19583    9    diag,B
   49      0.784D-01      0.133D+00       -86.22857235    312.439963    0.00000    0.00000    5.18597    9    diag,B
   50      0.171D-01      0.129D+00       -85.75152899    313.601185    0.00000    0.00000    5.35121    9    orth
   51      0.733D-01      0.130D+00       -86.08160474    312.796745    0.00000    0.00000    5.27033    9    diag,B
   52      0.110D-01      0.129D+00       -83.04546329    320.402880    0.00000    0.00000    5.22731    9    diag,B
   53      0.448D-01      0.141D+00       -86.17174011    312.592362    0.00000    0.00000    5.19021    9    diag,B
   54      0.703D-01      0.129D+00       -86.60878952    311.406490    0.00000    0.00000    5.27166    9    diag,B
   55      0.217D-01      0.127D+00       -85.02597768    315.514867    0.00000    0.00000    5.20715    9    diag,B
   56      0.404D-01      0.133D+00       -85.45095596    314.463403    0.00000    0.00000    5.14809    9    diag,B
   57      0.529D-01      0.132D+00       -86.57080348    311.531344    0.00000    0.00000    5.19514    9    diag,B
   58      0.178D-01      0.127D+00       -85.45640664    314.409034    0.00000    0.00000    5.23823    9    diag,B
   59      0.580D-01      0.131D+00       -86.94705423    310.510973    0.00000    0.00000    5.24555    9    fixocc
     Orbital  1.2 strongly deviates from fixed occupation: 1.88592  (now: 2.00)
     Orbital  2.2 strongly deviates from fixed occupation: 1.11260  (now: 1.00)
     Note:  Use {hf,nitord=N} to fix occupations at iteration N
            Use {gthresh,occdev=1.0} to suppress deviation warnings
   60      0.483D-01      0.125D+00       -85.08869841    315.402852    0.00000    0.00000    5.10179    9    orth
   61      0.282D-01      0.133D+00       -85.21992463    315.024498    0.00000    0.00000    5.23209    9    diag,B
   62      0.193D-01      0.133D+00       -86.57397544    311.512043    0.00000    0.00000    5.24037    9    diag,B
   63      0.426D-01      0.127D+00       -86.78924733    310.935492    0.00000    0.00000    5.21333    9    diag,B
   64      0.129D-01      0.126D+00       -85.30334058    314.796189    0.00000    0.00000    5.24651    9    diag,B
   65      0.483D-01      0.132D+00       -85.49194304    314.344329    0.00000    0.00000    5.20202    9    diag,B
   66      0.405D-01      0.132D+00       -85.23102041    314.954431    0.00000    0.00000    5.37546    9    diag,B
   67      0.202D-01      0.133D+00       -85.62015717    313.990584    0.00000    0.00000    5.25286    9    diag,B
   68      0.132D-01      0.131D+00       -85.83106004    313.465635    0.00000    0.00000    5.22499    9    diag,B
     Orbital  1.2 strongly deviates from fixed occupation: 1.83438  (now: 2.00)
     Orbital  2.2 strongly deviates from fixed occupation: 1.16157  (now: 1.00)
   69      0.214D-01      0.130D+00       -84.73914640    316.183274    0.00000    0.00000    5.41137    9    diag,B
   70      0.353D-01      0.134D+00       -85.15929607    315.164328    0.00000    0.00000    5.27759    9    orth
   71      0.156D-01      0.133D+00       -85.66249263    313.897255    0.00000    0.00000    5.23818    9    diag,B
   72      0.267D-01      0.131D+00       -85.96533637    313.065025    0.00000    0.00000    5.36784    9    diag,B
   73      0.109D-01      0.130D+00       -85.10121976    315.307908    0.00000    0.00000    5.27844    9    diag,B
   74      0.306D-01      0.133D+00       -85.31586412    314.783225    0.00000    0.00000    5.24296    9    diag,B
   75      0.287D-01      0.132D+00       -85.71880184    313.702971    0.00000    0.00000    5.36938    9    diag,B
   76      0.920D-02      0.131D+00       -85.35698601    314.660105    0.00000    0.00000    5.27076    9    diag,B
   77      0.213D-01      0.132D+00       -85.41767320    314.521223    0.00000    0.00000    5.24393    9    diag,B
   78      0.192D-01      0.132D+00       -85.59037293    314.030557    0.00000    0.00000    5.37480    9    diag,B
   79      0.776D-02      0.131D+00       -85.28990038    314.833027    0.00000    0.00000    5.26767    9    diag,B
   80      0.184D-01      0.132D+00       -85.32973304    314.744899    0.00000    0.00000    5.24826    9    orth
   81      0.178D-01      0.132D+00       -85.77371727    313.561960    0.00000    0.00000    5.36351    9    diag,B
   82      0.988D-02      0.130D+00       -85.32731031    314.739037    0.00000    0.00000    5.26223    9    diag,B
   83      0.212D-01      0.132D+00       -85.26574193    314.906114    0.00000    0.00000    5.25274    9    diag,B
   84      0.165D-01      0.132D+00       -85.70755590    313.732114    0.00000    0.00000    5.36386    9    diag,B
   85      0.106D-01      0.131D+00       -85.38044307    314.605221    0.00000    0.00000    5.25751    9    diag,B
   86      0.183D-01      0.132D+00       -85.25465062    314.933520    0.00000    0.00000    5.25551    9    diag,B
   87      0.145D-01      0.133D+00       -85.73021704    313.673883    0.00000    0.00000    5.36236    9    diag,B
   88      0.112D-01      0.131D+00       -85.37888465    314.610574    0.00000    0.00000    5.25386    9    diag,B
   89      0.181D-01      0.132D+00       -85.22264182    315.014029    0.00000    0.00000    5.25884    9    diag,B
   90      0.141D-01      0.133D+00       -85.74653984    313.632186    0.00000    0.00000    5.36056    9    orth
   91      0.121D-01      0.131D+00       -85.39871770    314.561082    0.00000    0.00000    5.25047    9    diag,B
   92      0.176D-01      0.132D+00       -85.20638370    315.054558    0.00000    0.00000    5.26156    9    diag,B
   93      0.137D-01      0.133D+00       -85.74426007    313.638044    0.00000    0.00000    5.36001    9    diag,B
   94      0.124D-01      0.131D+00       -85.40827302    314.537742    0.00000    0.00000    5.24756    9    diag,B
   95      0.170D-01      0.132D+00       -85.19410211    315.085118    0.00000    0.00000    5.26399    9    diag,B
   96      0.135D-01      0.133D+00       -85.75216904    313.617794    0.00000    0.00000    5.35913    9    diag,B
   97      0.127D-01      0.131D+00       -85.41360622    314.525068    0.00000    0.00000    5.24492    9    diag,B
   98      0.167D-01      0.132D+00       -85.18428789    315.109412    0.00000    0.00000    5.26625    9    diag,B
   99      0.134D-01      0.133D+00       -85.75278105    313.616289    0.00000    0.00000    5.35854    9    diag,B
  100      0.128D-01      0.131D+00       -85.41948895    314.510915    0.00000    0.00000    5.24249    9    orth
  101      0.163D-01      0.132D+00       -85.17783171    315.125239    0.00000    0.00000    5.26828    9    diag,B
  102      0.134D-01      0.133D+00       -85.75361210    313.614222    0.00000    0.00000    5.35801    9    diag,B
  103      0.129D-01      0.130D+00       -85.42243187    314.504219    0.00000    0.00000    5.24024    9    diag,B
  104      0.160D-01      0.132D+00       -85.17304448    315.136851    0.00000    0.00000    5.27018    9    diag,B
  105      0.134D-01      0.133D+00       -85.75326638    313.615192    0.00000    0.00000    5.35752    9    diag,B
  106      0.128D-01      0.130D+00       -85.42479273    314.498959    0.00000    0.00000    5.23815    9    diag,B
  107      0.157D-01      0.132D+00       -85.16993282    315.144235    0.00000    0.00000    5.27195    9    diag,B
  108      0.134D-01      0.133D+00       -85.75186654    313.618874    0.00000    0.00000    5.35710    9    diag,B
  109      0.127D-01      0.131D+00       -85.42613127    314.496268    0.00000    0.00000    5.23619    9    diag,B
  110      0.154D-01      0.132D+00       -85.16808208    315.148443    0.00000    0.00000    5.27361    9    orth
  111      0.135D-01      0.133D+00       -85.74997481    313.623824    0.00000    0.00000    5.35671    9    diag,B
  112      0.126D-01      0.131D+00       -85.42674056    314.495401    0.00000    0.00000    5.23436    9    diag,B
  113      0.151D-01      0.132D+00       -85.16728388    315.150000    0.00000    0.00000    5.27517    9    diag,B
  114      0.135D-01      0.133D+00       -85.74745493    313.630391    0.00000    0.00000    5.35636    9    diag,B
  115      0.125D-01      0.131D+00       -85.42681276    314.495868    0.00000    0.00000    5.23265    9    diag,B
  116      0.148D-01      0.132D+00       -85.16736613    315.149344    0.00000    0.00000    5.27664    9    diag,B
  117      0.135D-01      0.133D+00       -85.74455681    313.637930    0.00000    0.00000    5.35604    9    diag,B
  118      0.123D-01      0.131D+00       -85.42640602    314.497520    0.00000    0.00000    5.23104    9    diag,B
  119      0.146D-01      0.132D+00       -85.16817222    315.146871    0.00000    0.00000    5.27803    9    diag,B
  120      0.136D-01      0.133D+00       -85.74132475    313.646326    0.00000    0.00000    5.35574    9    orth
  121      0.121D-01      0.131D+00       -85.42565222    314.500023    0.00000    0.00000    5.22955    9    diag,B
  122      0.144D-01      0.132D+00       -85.16957874    315.142895    0.00000    0.00000    5.27933    9    diag,B
  123      0.136D-01      0.133D+00       -85.73785672    313.655327    0.00000    0.00000    5.35547    9    diag,B
  124      0.119D-01      0.131D+00       -85.42461579    314.503212    0.00000    0.00000    5.22815    9    diag,B
  125      0.141D-01      0.132D+00       -85.17147097    315.137706    0.00000    0.00000    5.28056    9    diag,B
  126      0.137D-01      0.133D+00       -85.73422479    313.664747    0.00000    0.00000    5.35522    9    diag,B
  127      0.117D-01      0.131D+00       -85.42337035    314.506899    0.00000    0.00000    5.22686    9    diag,B
  128      0.139D-01      0.132D+00       -85.17375112    315.131552    0.00000    0.00000    5.28173    9    diag,B
  129      0.137D-01      0.133D+00       -85.73048888    313.674431    0.00000    0.00000    5.35499    9    diag,B
  130      0.115D-01      0.131D+00       -85.42197163    314.510945    0.00000    0.00000    5.22566    9    orth
  131      0.137D-01      0.132D+00       -85.17633194    315.124653    0.00000    0.00000    5.28282    9    diag,B
  132      0.138D-01      0.133D+00       -85.72670491    313.684235    0.00000    0.00000    5.35478    9    diag,B
  133      0.114D-01      0.131D+00       -85.42046687    314.515229    0.00000    0.00000    5.22454    9    diag,B


 ?APPARENTLY NO CONVERGENCE, EXIT AFTER THREE FURTHER ITERATIONS


  134      0.135D-01      0.132D+00       -85.17913759    315.117202    0.00000    0.00000    5.28384    9    diag,B
  135      0.138D-01      0.133D+00       -85.79845130    313.509451    0.00000    0.00000    5.37147    9    orth
     Orbital  1.1 strongly deviates from fixed occupation: 1.57555  (now: 2.00)
     Orbital  2.1 strongly deviates from fixed occupation: 0.84311  (now: 2.00)
     Orbital  3.1 strongly deviates from fixed occupation: 0.74987  (now: 2.00)
     Orbital  4.1 strongly deviates from fixed occupation: 0.34124  (now: 1.00)
     Orbital  5.1 strongly deviates from fixed occupation: 0.41536  (now: 1.00)
     Orbital  6.1 strongly deviates from fixed occupation: 0.47487  (now: 1.00)
     Orbital  7.1 strongly deviates from fixed occupation: 0.48989  (now: 1.00)
     Orbital  1.2 strongly deviates from fixed occupation: 0.68845  (now: 2.00)
     Orbital  2.2 strongly deviates from fixed occupation: 0.54683  (now: 1.00)
     Orbital  3.2 strongly deviates from fixed occupation: 0.57607  (now: 1.00)
     Orbital  1.3 strongly deviates from fixed occupation: 0.62540  (now: 2.00)
     Orbital  2.3 strongly deviates from fixed occupation: 0.60513  (now: 1.00)
     Orbital  3.3 strongly deviates from fixed occupation: 0.59423  (now: 1.00)
     Orbital  1.4 strongly deviates from fixed occupation: 0.40329  (now: 1.00)
  136      0.114D-01      0.130D+00       -69.82943401    164.062318    0.00000    0.00000    4.29305    0    orth

 Final alpha occupancy:   7   3   3   1
 Final beta  occupancy:   3   1   1   0

 !RHF STATE 1.4 Energy                -69.829434010687
   --><property name="Energy" method="RHF" principal="true" stateSymmetry="4" stateNumber="1"
     value="-69.829434010687"/><!--
 Nuclear energy                         3.66353454
 One-electron energy                 -155.52412741
 Two-electron energy                   82.03115889
 Virial quotient                       -0.54835238
 !RHF STATE 1.4 Dipole moment           0.00000000     0.00000000     4.29304820
 Dipole moment /Debye                   0.00000000     0.00000000    10.91112545
   --><property name="Dipole moment" method="RHF" principal="true" stateSymmetry="4"
     stateNumber="1" value="0.0 0.0 4.29304820174876"/><!--

 ELECTRON ORBITALS
 =================


   Orb  Occ    Energy  Couls-En    Coefficients

                                   1 1s      1 1s      1 1s      1 1s      1 1s      1 1s      1 1s      1 1s      1 1s      1 1s
                                   1 1s      1 1s      1 1s      1 1s      1 1s      1 1s      1 1s      1 1s      1 1s      1 1s
                                   1 1s      1 1s      1 1s      1 1s      1 1s      1 1s      1 1s      1 1s      1 1s      1 1s
                                   1 1s      1 1s      1 2pz     1 2pz     1 2pz     1 2pz     1 2pz     1 2pz     1 2pz     1 2pz
                                   1 2pz     1 2pz     1 2pz     1 2pz     1 2pz     1 2pz     1 2pz     1 2pz     1 2pz     1 2pz
                                   1 2pz     1 2pz     1 2pz     1 2pz     1 2pz     1 2pz     1 2pz     1 2pz     1 2pz     1 2pz
                                   1 2pz     1 2pz     1 3d0     1 3d2+    1 3d0     1 3d2+    1 3d0     1 3d2+    1 3d0     1 3d2+
                                   1 3d0     1 3d2+    1 3d0     1 3d2+    1 3d0     1 3d2+    1 3d0     1 3d2+    1 3d0     1 3d2+
                                   1 3d0     1 3d2+    1 3d0     1 3d2+    1 3d0     1 3d2+    1 3d0     1 3d2+    1 3d0     1 3d2+
                                   1 3d0     1 3d2+    1 3d0     1 3d2+    1 3d0     1 3d2+    1 3d0     1 3d2+    1 3d0     1 3d2+
                                   1 3d0     1 3d2+    1 3d0     1 3d2+    1 3d0     1 3d2+    1 4f0     1 4f2+    1 4f0     1 4f2+
                                   1 4f0     1 4f2+    1 4f0     1 4f2+    1 4f0     1 4f2+    1 4f0     1 4f2+    1 4f0     1 4f2+
                                   1 4f0     1 4f2+    1 4f0     1 4f2+    1 4f0     1 4f2+    1 4f0     1 4f2+    1 4f0     1 4f2+
                                   1 4f0     1 4f2+    1 4f0     1 4f2+    1 5g0     1 5g4+    1 5g2+    1 5g0     1 5g4+    1 5g2+
                                   1 5g0     1 5g4+    1 5g2+    1 5g0     1 5g4+    1 5g2+    1 5g0     1 5g4+    1 5g2+    1 5g0
                                   1 5g4+    1 5g2+    1 5g0     1 5g4+    1 5g2+    1 5g0     1 5g4+    1 5g2+    1 5g0     1 5g4+
                                   1 5g2+    1 6h2+    1 6h4+    1 6h0     1 6h2+    1 6h4+    1 6h0     1 6h2+    1 6h4+    1 6h0
                                   2 1s      2 1s      2 1s      2 1s      2 1s      2 1s      2 2pz     2 2pz     2 2pz     2 3d0
                                   2 3d2+    2 3d0     2 3d2+

   1.1   2    -0.0695  -10.4443 -0.000000  0.000000 -0.000002  0.000037  0.000163  0.000508  0.001074  0.002390 -0.000930  0.000812
                                 0.030375  0.436965 -0.085844 -0.149916  0.307996  0.665303  0.052171  0.016168  0.001287 -0.000065
                                -0.000294 -0.000868 -0.002469 -0.066541 -0.539233 -0.097332  0.298915 -0.018499 -0.006145 -0.000845
                                 0.001414 -0.000860  0.000000 -0.000000  0.000000 -0.000000  0.000000 -0.000000  0.000000 -0.000001
                                 0.000003 -0.000025 -0.000265 -0.000095  0.013918 -0.010719  0.039990  0.007038  0.014517  0.006355
                                -0.009711  0.000101  0.000342 -0.007846 -0.011700  0.004515  0.014614  0.001742  0.009194 -0.007287
                                 0.000419 -0.000449  0.000000 -0.000000 -0.000000  0.000000  0.000002 -0.000000 -0.000008  0.000000
                                 0.000150 -0.000001  0.001353 -0.000001 -0.002411  0.000012  0.000383 -0.000150  0.003617  0.000165
                                 0.006538  0.000270 -0.000359  0.000002 -0.002543 -0.000002  0.003610  0.000005 -0.002445  0.000151
                                 0.000290  0.000601  0.008920  0.000049 -0.001677  0.000025 -0.002102 -0.000009  0.000569  0.000009
                                -0.000643 -0.000006  0.000307  0.000003 -0.000045 -0.000001 -0.000000 -0.000000  0.000001  0.000001
                                -0.000007 -0.000008  0.000127 -0.000076  0.000854  0.000143  0.001030  0.000482  0.000117  0.002256
                                -0.000306 -0.000139 -0.001004 -0.000426  0.003173  0.000833  0.001198  0.000261 -0.001773 -0.000099
                                 0.000686  0.000048 -0.000270 -0.000014 -0.000003 -0.000017 -0.000007  0.000182  0.000032 -0.000037
                                -0.000303 -0.000165 -0.000001  0.001092  0.000930  0.000034  0.001414  0.001406 -0.000039  0.001250
                                -0.000029 -0.000023  0.000304  0.000108  0.000012 -0.000416 -0.000065 -0.000003  0.000148  0.000025
                                 0.000001  0.000001 -0.000006 -0.000002  0.000008 -0.000027 -0.000032  0.000010  0.000028  0.000110
                                 0.000227  0.002519  0.009531  0.022578  0.017166  0.003778 -0.000538 -0.005530 -0.006537  0.000518
                                -0.000000  0.001775  0.000006

   2.1   2     3.4865   -5.4591  0.000000 -0.000000  0.000002 -0.000032 -0.000141 -0.000437 -0.000925 -0.002060  0.000828 -0.002937
                                 0.030969  0.146091  0.318612 -0.765624 -2.776216  0.887965 -0.972087 -1.256899 -0.873356  0.000056
                                 0.000253  0.000748  0.002126 -0.048505 -0.258743  2.928405 -0.575801  2.014337  1.091440  0.020865
                                -0.007094  0.001495 -0.000000  0.000001 -0.000004  0.000012 -0.000017  0.000022 -0.000047  0.000136
                                -0.000556  0.005115  0.056037  0.078033  0.531608  0.684319  2.404130  1.810824 -1.576474  0.992239
                                -0.647118 -0.020669 -0.080682 -0.416316 -0.662691 -0.898671 -2.659664  0.209946  0.790982 -0.626855
                                -0.052881  0.009089 -0.000016  0.000020  0.000081 -0.000105 -0.000341  0.000439  0.001818 -0.002343
                                -0.033719  0.043499 -0.309115  0.399259  0.650930 -0.842971 -0.262760  0.343448 -0.840100  1.145439
                                -0.471822  0.858634  0.080642 -0.104061  0.592276 -0.765464 -0.899142  1.163422  0.599901 -0.800964
                                 0.702071 -0.998147  0.348110 -1.038164 -0.382123  0.941720  0.430115 -0.614896 -0.230666  0.342099
                                 0.055440 -0.118701 -0.029278  0.049057  0.008574 -0.013779  0.000033 -0.000122 -0.000255  0.000938
                                 0.002488 -0.009142  0.011288 -0.041695 -0.061736  0.225726 -0.019082  0.068563  0.434422 -1.543337
                                 0.055575 -0.204051  0.129456 -0.474474 -0.537571  1.786937  0.305289 -1.203049 -0.113516  0.791569
                                 0.073534 -0.395289 -0.030109  0.126063  0.000156 -0.000011 -0.000470 -0.000251  0.000043  0.000683
                                 0.001524 -0.000139 -0.004341 -0.002428  0.000224  0.005771  0.016631 -0.000850 -0.041828 -0.010166
                                 0.001937  0.001893 -0.037246 -0.001439  0.003634  0.062857  0.000712 -0.005849 -0.009501 -0.000224
                                 0.000016 -0.000071 -0.000121  0.000053 -0.000004 -0.000138 -0.000049 -0.001338 -0.000340  0.000792
                                -0.000407  0.000898 -0.055054  0.035648 -0.109772  0.128403 -0.026364 -0.042430 -0.068157 -0.056564
                                -0.006907  0.127893  0.015169

   3.1   2     3.4962   -4.7200 -0.000000  0.000002 -0.000010  0.000190  0.000835  0.002594  0.005480  0.012178 -0.004872  0.017164
                                -0.178994 -0.795820 -1.425283  2.677324  6.431895 -2.009790-23.679389-17.504322 -7.845787 -0.000333
                                -0.001502 -0.004434 -0.012577  0.278015  1.333211 -7.593524  7.729882 30.995510 11.072310  0.281927
                                -0.096822  0.020584 -0.000001  0.000004 -0.000015  0.000045 -0.000060  0.000079 -0.000170  0.000487
                                -0.001997  0.018357  0.201068  0.279974  1.907331  2.448643  8.514257  6.327166 -5.487660  3.502215
                                -2.262545 -0.074173 -0.289475 -1.493640 -2.374825 -3.198872 -9.372283  0.740745  2.771625 -2.199045
                                -0.187152  0.032225 -0.000055 -0.000006  0.000286  0.000032 -0.001200 -0.000134  0.006403  0.000714
                                -0.118797 -0.013258 -1.089190 -0.121700  2.294261  0.257015 -0.926761 -0.104816 -2.968718 -0.349437
                                -1.687264 -0.261426  0.284121  0.031718  2.087068  0.233334 -3.168820 -0.354680  2.117539  0.244369
                                 2.486451  0.304816  1.280470  0.314950 -1.363066 -0.285243  1.531447  0.186068 -0.823082 -0.103514
                                 0.199872  0.035927 -0.104204 -0.014852  0.030446  0.004172  0.000114  0.000036 -0.000875 -0.000274
                                 0.008511  0.002665  0.037699  0.011859 -0.214691 -0.066935 -0.068774 -0.021175  1.492209  0.451514
                                 0.190796  0.059708  0.445496  0.139174 -1.837456 -0.521217  1.053950  0.350517 -0.383849 -0.230586
                                 0.248615  0.115155 -0.102547 -0.036727  0.000522 -0.000043  0.000140 -0.000811  0.000141 -0.000209
                                 0.005075 -0.000487  0.001305 -0.007890  0.000716 -0.001729  0.056324 -0.003265  0.012572 -0.029363
                                 0.006414 -0.001064 -0.127101 -0.004740 -0.000725  0.218209  0.002353  0.001556 -0.034252 -0.000743
                                 0.000042  0.000028 -0.000205  0.000284  0.000019 -0.000108 -0.000108  0.000502 -0.000346  0.002725
                                -0.001345  0.002769 -0.182074  0.119590 -0.431728  0.439780 -0.093059 -0.134861 -0.202007 -0.192800
                                 0.002063  0.426306 -0.004442

   4.1   +     2.9064   -1.5230  0.000009 -0.000058  0.000306 -0.005632 -0.024702 -0.076724 -0.162117 -0.360554  0.144476 -0.509003
                                 5.309939 23.892879 46.692697-98.252970**********102.942604451.062135294.956764108.849501  0.009855
                                 0.044431  0.131146  0.372249 -8.263221-40.890069329.233015****************************** -4.673987
                                 1.608390 -0.342566  0.000002 -0.000007  0.000029 -0.000087  0.000117 -0.000153  0.000332 -0.000950
                                 0.003891 -0.035748 -0.390794 -0.542565 -3.685280 -4.529414-13.256782 -7.361077  5.836167 -5.206208
                                 2.816383  0.144328  0.561932  2.887610  4.488809  5.459275 13.199897 -1.117371 -3.541295  2.912172
                                 0.300941 -0.053630 -0.000007 -0.000000  0.000039  0.000000 -0.000163 -0.000002  0.000870  0.000009
                                -0.016100 -0.000159 -0.146822 -0.001401  0.304687  0.002868 -0.117969 -0.001076 -0.348104 -0.003805
                                -0.155412 -0.001876  0.038456  0.000376  0.280514  0.002651 -0.423148 -0.003976  0.261474  0.002530
                                 0.254319  0.002521  0.147022  0.003970 -0.592507 -0.004307 -0.693122  0.003091  0.443068 -0.001742
                                -0.047659  0.000596  0.023897 -0.000242 -0.006392  0.000068  0.000004  0.000002 -0.000031 -0.000013
                                 0.000265  0.000109 -0.000785 -0.000171 -0.014366 -0.005234 -0.009450 -0.002843  0.048276  0.025512
                                 0.007787  0.003078  0.019968  0.007669 -0.066479 -0.035543 -0.167767  0.025122 -0.326818 -0.016705
                                 0.183606  0.008334 -0.027698 -0.002651  0.000707 -0.000026 -0.000027 -0.002798  0.000100  0.000122
                                 0.008093 -0.000603 -0.000416 -0.021505  0.001309  0.000877  0.061469 -0.001732 -0.002459 -0.173529
                                 0.002302  0.007765  0.128468 -0.002094 -0.006067 -0.224433  0.001132  0.003065  0.091058 -0.000368
                                -0.000934  0.000001 -0.000001  0.000008  0.000010 -0.000030 -0.000050  0.000044  0.000025  0.000153
                                -0.000753  0.003599 -0.090028 -0.088763  1.891928 -0.261254  0.007005 -0.045742 -0.973521 -0.074950
                                -0.000011  0.217843 -0.000187

   5.1   +     4.9395   -1.5501 -0.000000  0.000001 -0.000005  0.000084  0.000366  0.001138  0.002405  0.005355 -0.002150  0.007692
                                -0.082013 -0.388941 -0.739956  1.548105  4.075445 -0.918571 -2.740572 -1.718055 -0.629912 -0.000146
                                -0.000659 -0.001945 -0.005527  0.128567  0.666476 -4.762843  1.436924  3.138049  0.958481  0.028234
                                -0.009778  0.002091  0.000000 -0.000000  0.000001 -0.000003  0.000004 -0.000005  0.000011 -0.000032
                                 0.000129 -0.001192 -0.013105 -0.018405 -0.129694 -0.161653 -0.501097 -0.203866  0.138592 -0.091300
                                 0.060406  0.004824  0.018913  0.100714  0.161456  0.206886  0.456494 -0.018194 -0.066781  0.050461
                                 0.004731 -0.000828 -0.000000 -0.000010  0.000001  0.000053 -0.000004 -0.000221  0.000019  0.001182
                                -0.000362 -0.021996 -0.003365 -0.202646  0.007201  0.429852 -0.003042 -0.176426 -0.011012 -0.623861
                                -0.015224 -0.244035  0.000868  0.052680  0.006482  0.389380 -0.009906 -0.593365  0.007449  0.433831
                                 0.010704  0.438371  0.029289  0.250545 -0.024186 -0.219786  0.002551  0.143464  0.000786 -0.080128
                                 0.000832  0.027909 -0.000134 -0.011581  0.000028  0.003266 -0.000002  0.000081  0.000011 -0.000585
                                -0.000033  0.001597  0.003591 -0.196539  0.016047 -0.870247  0.016498 -0.898869 -0.028471  1.245001
                                -0.004375  0.235702 -0.014600  0.787061  0.027597 -1.058209 -0.013940  0.647291  0.003732 -0.425064
                                -0.001265  0.214896  0.000771 -0.069450  0.000029 -0.000028  0.018743 -0.000091  0.000114 -0.071881
                                 0.000301 -0.000343  0.217239 -0.000690  0.001020 -0.589838  0.000850 -0.003019  1.885195  0.000711
                                 0.002635 -1.681278  0.002707 -0.001562  0.998866 -0.004294  0.000741 -0.470722  0.001708 -0.000235
                                 0.149791  0.000503 -0.000052 -0.000010 -0.002479 -0.000108  0.000009  0.014312 -0.000046 -0.000088
                                 0.000007  0.000048  0.002105 -0.001778  0.008904 -0.004958 -0.002319  0.007053 -0.004087 -0.003005
                                -0.023485 -0.003563 -0.003870

   6.1   +     5.0202   -1.8203 -0.000000  0.000001 -0.000005  0.000091  0.000400  0.001241  0.002624  0.005839 -0.002343  0.008382
                                -0.089547 -0.428417 -0.807503  1.699226  4.524624 -0.963496 -2.371129 -1.631527 -0.084922 -0.000159
                                -0.000719 -0.002122 -0.006027  0.140470  0.734023 -5.287441  1.357040  2.716691  0.580756  0.035672
                                -0.012114  0.002574 -0.000001  0.000003 -0.000010  0.000031 -0.000041  0.000053 -0.000116  0.000332
                                -0.001360  0.012523  0.137524  0.192929  1.357977  1.683579  4.939957  1.676499 -0.950670  0.656258
                                -0.850216 -0.050654 -0.198388 -1.054733 -1.684511 -2.108165 -4.325332  0.238538  1.001150 -0.543834
                                -0.063430  0.011170  0.000002 -0.000004 -0.000011  0.000018  0.000048 -0.000077 -0.000254  0.000413
                                 0.004735 -0.007684  0.043650 -0.070689 -0.092319  0.149341  0.037344 -0.060616  0.126266 -0.221500
                                 0.034838 -0.083252 -0.011343  0.018402 -0.083851  0.135781  0.127606 -0.206644 -0.090383  0.150371
                                -0.082009  0.147338 -0.028444  0.090337  0.033237 -0.080562 -0.137866  0.053032  0.103703 -0.029281
                                 0.027831  0.010020 -0.001353 -0.004086 -0.000035  0.001151 -0.000010  0.000096  0.000076 -0.000692
                                -0.000245  0.002135  0.023334 -0.219592  0.105612 -0.986993  0.108296 -1.013750 -0.161188  1.474524
                                -0.029423  0.272695 -0.097033  0.902572  0.139579 -1.265747 -0.080247  0.774829  0.008106 -0.509496
                                 0.005091  0.257088  0.015053 -0.082740  0.002283 -0.000207 -0.016507 -0.008424  0.000790  0.060833
                                 0.026159 -0.002424 -0.188821 -0.068924  0.006616  0.496705  0.227128 -0.020759 -1.619691 -0.207482
                                 0.018316  1.443829  0.135458 -0.010824 -0.853213 -0.084006  0.005124  0.404921  0.030468 -0.001624
                                -0.127745 -0.000430 -0.000070  0.000061  0.001265 -0.000134 -0.000234 -0.011789 -0.000033  0.001559
                                -0.000015  0.001097  0.003296 -0.020972  0.141346 -0.256555 -0.013201  0.018516 -0.050910 -0.000272
                                 0.013872 -0.001838 -0.006407

   7.1   +     5.1436   -1.1370  0.000005 -0.000032  0.000167 -0.003064 -0.013441 -0.041756 -0.088275 -0.196514  0.078902 -0.282462
                                 3.016780 14.359460 27.185302-56.393056********** 29.252200103.920139 68.607715 21.821559  0.005362
                                 0.024177  0.071389  0.202824 -4.732964-24.581902168.967102-49.036979**********-35.607138 -1.122834
                                 0.386251 -0.082381  0.000002 -0.000007  0.000027 -0.000081  0.000109 -0.000142  0.000308 -0.000881
                                 0.003614 -0.033274 -0.365426 -0.512320 -3.586702 -4.474491-13.694654 -6.850306  5.401018 -3.362956
                                 2.954369  0.134595  0.527102  2.789681  4.452180  5.649908 12.962982 -0.578651 -2.982149  1.073814
                                 0.154551 -0.027148 -0.000010  0.000000  0.000051 -0.000001 -0.000216  0.000006  0.001156 -0.000032
                                -0.021530  0.000592 -0.199210  0.005510  0.426965 -0.011848 -0.178237  0.004861 -0.610316  0.017484
                                -1.100277  0.006333  0.051602 -0.001422  0.383327 -0.010631 -0.586389  0.016300  0.414605 -0.011951
                                 0.674265 -0.012334  2.165308 -0.006059 -1.706666  0.005146  1.059454 -0.003282 -0.567945  0.001828
                                -0.176810 -0.000640  0.017077  0.000267 -0.002600 -0.000075 -0.000091 -0.000001  0.000658  0.000007
                                -0.001845 -0.000012  0.219182  0.002927  0.979166  0.012448  1.024364  0.012963 -1.662163 -0.016253
                                -0.266370 -0.003242 -0.894797 -0.010977  1.646798  0.013937 -0.732354 -0.008521  0.464522  0.005605
                                -0.228752 -0.002835 -0.017504  0.000915 -0.012650  0.000351 -0.000056  0.049037 -0.001361  0.000248
                                -0.148766  0.004283 -0.000627  0.414970 -0.012748  0.002122 -1.414499  0.036316 -0.005744  1.415491
                                -0.030669  0.004866 -0.660704  0.017902 -0.002866  0.255055 -0.008451  0.001330 -0.070173  0.002678
                                -0.000429  0.000013 -0.000176 -0.000754  0.000074  0.000029  0.003829 -0.000121  0.000099 -0.022764
                                 0.000454  0.014151  0.168480 -0.035691 -0.646209  1.449847 -0.316015  0.621444  0.104545 -0.265177
                                 0.000086 -0.272225  0.000065

   8.1   0    -0.3166   -4.4517  0.000000 -0.000000  0.000000 -0.000004 -0.000016 -0.000049 -0.000104 -0.000234  0.000091 -0.000023
                                -0.004526 -0.059617 -0.000150  0.036150 -0.002918 -0.076413 -0.188121 -0.241337 -0.228768  0.000006
                                 0.000028  0.000084  0.000241  0.009379  0.078366 -0.042828  0.019681  0.250368  0.231555 -0.004802
                                 0.001493 -0.000180  0.000000 -0.000000  0.000000 -0.000000  0.000000 -0.000000  0.000000 -0.000001
                                 0.000003 -0.000031 -0.000322 -0.000278  0.005216 -0.010550 -0.001172  0.024064  0.002734 -0.027898
                                -0.039044  0.000122  0.000433 -0.002761 -0.000798  0.005638  0.019429 -0.005171  0.009792 -0.033992
                                 0.002160 -0.000344 -0.000000 -0.000000  0.000001  0.000000 -0.000002 -0.000000  0.000013  0.000000
                                -0.000236 -0.000001 -0.002189 -0.000011  0.005383  0.000025 -0.003054  0.000006 -0.003321 -0.000041
                                 0.009436  0.000008  0.000565  0.000003  0.004240  0.000022 -0.006863 -0.000036  0.003205 -0.000004
                                 0.010155 -0.000026 -0.005548 -0.000022 -0.011811  0.000011 -0.020778 -0.000010 -0.001995  0.000005
                                -0.012148 -0.000001  0.000826  0.000001 -0.000050 -0.000000  0.000000  0.000000 -0.000000 -0.000000
                                 0.000004 -0.000000  0.000084 -0.000006  0.000256 -0.000026  0.000708 -0.000044  0.003480 -0.000163
                                 0.000028  0.000004 -0.000184  0.000025 -0.001937 -0.000070 -0.006167 -0.000032 -0.008940  0.000010
                                -0.002665 -0.000006 -0.002352  0.000002  0.000008  0.000001  0.000001 -0.000038 -0.000004  0.000004
                                 0.000103  0.000011 -0.000002 -0.000229 -0.000162 -0.000005  0.000716 -0.000208  0.000021 -0.001228
                                -0.000016  0.000009 -0.001963 -0.000022 -0.000006 -0.000862  0.000006  0.000003 -0.003277 -0.000004
                                -0.000001 -0.000000 -0.000000 -0.000002  0.000003 -0.000006  0.000003  0.000005  0.000031  0.000063
                                 0.004225  0.046339  0.199399  0.486870  0.451706  0.098945  0.001482  0.017418  0.018109 -0.000527
                                -0.000000  0.000811 -0.000005

   9.1   0    -0.0229   -1.9795  0.000000 -0.000000  0.000000 -0.000004 -0.000018 -0.000057 -0.000121 -0.000268  0.000107 -0.000333
                                 0.002823  0.007807  0.028587 -0.055416 -0.175038  0.064671  1.475879  1.802150  6.649894  0.000007
                                 0.000033  0.000098  0.000277 -0.004053 -0.016476  0.193589 -0.316186 -2.709717 -4.667538 -0.302139
                                -0.257984 -0.013469  0.000000 -0.000000  0.000000 -0.000001  0.000001 -0.000001  0.000002 -0.000006
                                 0.000025 -0.000233 -0.002508 -0.003141 -0.007545 -0.038590 -0.052121 -0.006710  0.106243 -0.174440
                                -0.259878  0.000935  0.003539  0.008526  0.017924  0.031506  0.090572 -0.321450  0.928367  1.101110
                                -0.260537 -0.040047 -0.000000 -0.000000  0.000000  0.000000 -0.000000 -0.000000  0.000000  0.000000
                                -0.000005 -0.000002 -0.000079 -0.000016  0.000855  0.000037 -0.001112 -0.000011  0.001708 -0.000042
                                 0.010635  0.000090  0.000014  0.000004  0.000200  0.000031 -0.000688 -0.000050 -0.000605  0.000010
                                 0.004645  0.000063 -0.000561  0.000004 -0.031591  0.000029 -0.259202 -0.000011  0.520982  0.000001
                                 0.302987 -0.000020 -0.276846 -0.000008 -0.002590 -0.000003 -0.000000 -0.000000  0.000001  0.000000
                                -0.000004 -0.000001  0.000066 -0.000013  0.000545 -0.000028  0.001136 -0.000030  0.003649 -0.000088
                                -0.000147 -0.000003 -0.000708  0.000009 -0.000440 -0.000040 -0.012363 -0.000017 -0.086014  0.000003
                                 0.183682 -0.000007 -0.056811 -0.000016  0.000006 -0.000000  0.000000 -0.000019 -0.000001  0.000001
                                 0.000062  0.000002 -0.000001 -0.000099 -0.000067 -0.000000  0.000460 -0.000079  0.000023 -0.000471
                                -0.000003  0.000009 -0.001394  0.000003 -0.000004 -0.018220  0.000011  0.000006  0.011018  0.000010
                                -0.000008 -0.000000 -0.000001 -0.000001  0.000007 -0.000012 -0.000012  0.000008  0.000051  0.000125
                                 0.000869  0.009475  0.045150  0.120791  0.380956 -3.168977 -0.002606 -0.014301 -0.261207 -0.000675
                                -0.000000  0.004581 -0.000002

                                   1 2px     1 2px     1 2px     1 2px     1 2px     1 2px     1 2px     1 2px     1 2px     1 2px
                                   1 2px     1 2px     1 2px     1 2px     1 2px     1 2px     1 2px     1 2px     1 2px     1 2px
                                   1 2px     1 2px     1 2px     1 2px     1 2px     1 2px     1 2px     1 2px     1 2px     1 2px
                                   1 3d1+    1 3d1+    1 3d1+    1 3d1+    1 3d1+    1 3d1+    1 3d1+    1 3d1+    1 3d1+    1 3d1+
                                   1 3d1+    1 3d1+    1 3d1+    1 3d1+    1 3d1+    1 3d1+    1 3d1+    1 3d1+    1 3d1+    1 3d1+
                                   1 3d1+    1 3d1+    1 4f1+    1 4f3+    1 4f1+    1 4f3+    1 4f1+    1 4f3+    1 4f1+    1 4f3+
                                   1 4f1+    1 4f3+    1 4f1+    1 4f3+    1 4f1+    1 4f3+    1 4f1+    1 4f3+    1 4f1+    1 4f3+
                                   1 4f1+    1 4f3+    1 4f1+    1 4f3+    1 4f1+    1 4f3+    1 4f1+    1 4f3+    1 4f1+    1 4f3+
                                   1 5g1+    1 5g3+    1 5g1+    1 5g3+    1 5g1+    1 5g3+    1 5g1+    1 5g3+    1 5g1+    1 5g3+
                                   1 5g1+    1 5g3+    1 5g1+    1 5g3+    1 5g1+    1 5g3+    1 5g1+    1 5g3+    1 6h1+    1 6h3+
                                   1 6h5+    1 6h1+    1 6h3+    1 6h5+    1 6h1+    1 6h3+    1 6h5+    2 2px     2 2px     2 2px
                                   2 3d1+    2 3d1+

   1.2   2     3.5065   -5.3686 -0.000000  0.000001 -0.000005  0.000014 -0.000019  0.000025 -0.000055  0.000158 -0.000646  0.005933
                                 0.064936  0.090359  0.614033  0.769200  2.420973  1.282182 -0.901700  0.661102 -0.649038 -0.023965
                                -0.093457 -0.481064 -0.754848 -0.968723 -2.434256  0.209199  0.775494 -0.556378 -0.054695  0.009576
                                 0.000004 -0.000022  0.000093 -0.000494  0.009176  0.084263 -0.178158  0.072592  0.241306  0.168485
                                -0.021954 -0.161613  0.245804 -0.168631 -0.207643 -0.198152  0.177675 -0.109492  0.064825 -0.022810
                                 0.009473 -0.002666 -0.000014  0.000126  0.000108 -0.000968 -0.000971  0.009355 -0.000720  0.038422
                                 0.038613 -0.247069  0.016801 -0.081889 -0.211050  1.627025 -0.026215  0.212927 -0.063098  0.498147
                                 0.242996 -1.884884 -0.164150  1.268223  0.112912 -0.839394 -0.053105  0.418592  0.016906 -0.133412
                                -0.000077  0.000384  0.000182 -0.000613 -0.000752  0.003603  0.001352 -0.005122 -0.007465  0.034279
                                 0.002094 -0.010759 -0.002817  0.004676  0.002767 -0.003994  0.001459  0.001828 -0.000180  0.000163
                                 0.000156 -0.000143  0.000218  0.000263 -0.000386  0.000608  0.000467 -0.001639  0.007945 -0.012744
                                -0.004436  0.002035

   2.2   +     3.1934   -5.6421 -0.000000  0.000001 -0.000004  0.000013 -0.000017  0.000023 -0.000049  0.000140 -0.000573  0.005267
                                 0.057676  0.080317  0.548473  0.683433  2.138030  1.071190 -0.760403  0.567276 -0.518377 -0.021278
                                -0.083035 -0.429130 -0.673840 -0.861409 -2.106321  0.183918  0.666410 -0.485164 -0.048356  0.008493
                                 0.000026 -0.000134  0.000561 -0.002995  0.055606  0.510405 -1.077345  0.437923  1.457608  1.059035
                                -0.133029 -0.978567  1.487181 -1.020867 -1.253875 -1.286650  1.174005 -0.712067  0.427871 -0.150239
                                 0.062227 -0.017494 -0.000125 -0.000016  0.000964  0.000125 -0.009261 -0.001278 -0.035621 -0.008518
                                 0.254850  0.020888  0.088851  0.003157 -1.630080 -0.178734 -0.214229 -0.025049 -0.503150 -0.056980
                                 1.878122  0.206557 -1.263812 -0.139053  0.877592  0.092033 -0.411362 -0.045889  0.131081  0.014624
                                -0.000714 -0.000055  0.001471  0.000095 -0.006924 -0.000541  0.011680  0.000778 -0.062389 -0.004552
                                 0.024560  0.002834 -0.024378 -0.001731  0.027412  0.001043  0.010394 -0.000392  0.000068 -0.000040
                                 0.000009  0.000358 -0.000090  0.000097 -0.002245 -0.000850  0.000551 -0.008888  0.058842 -0.112371
                                -0.043671  0.029945

   3.2   +     5.0306   -2.3343 -0.000000  0.000001 -0.000004  0.000013 -0.000017  0.000022 -0.000048  0.000138 -0.000566  0.005215
                                 0.057308  0.080451  0.567328  0.703407  2.072879  0.713451 -0.427396  0.312924 -0.309670 -0.021100
                                -0.082690 -0.440491 -0.704560 -0.882001 -1.814359  0.096217  0.360155 -0.256553 -0.025174  0.004415
                                 0.000005 -0.000027  0.000114 -0.000611  0.011381  0.104809 -0.222002  0.091131  0.328621  0.120846
                                -0.027259 -0.201359  0.306694 -0.226827 -0.223545 -0.133586  0.141273 -0.100539  0.052558 -0.017721
                                 0.007246 -0.002034 -0.000061 -0.000085  0.000438  0.000615 -0.001378 -0.001835  0.137695  0.198162
                                 0.620934  0.887338  0.638588  0.913783 -0.921433 -1.306871 -0.172016 -0.244174 -0.569061 -0.809626
                                 0.785276  1.118379 -0.462639 -0.683719  0.302198  0.450892 -0.156638 -0.227385  0.050678  0.073210
                                 0.009956  0.010698 -0.036544 -0.039414  0.113784  0.122521 -0.298686 -0.323157  0.976714  1.049436
                                -0.877335 -0.934162  0.533065  0.551678 -0.253040 -0.260627  0.076008  0.082484  0.000132  0.000339
                                 0.000054 -0.001138 -0.000427  0.000198  0.006767  0.006769  0.000139 -0.006195 -0.004098  0.004520
                                -0.001785  0.019256

   4.2   0    -0.0019   -1.7696 -0.000000  0.000000 -0.000000  0.000000 -0.000000  0.000000 -0.000000  0.000001 -0.000003  0.000026
                                 0.000306  0.000730  0.018124 -0.007567  0.031845  0.048461  0.002075  0.058700 -0.254214 -0.000107
                                -0.000494 -0.011694 -0.012875 -0.003946  0.007349  0.604853  0.480813 -0.494155 -0.197570  0.553719
                                -0.000000  0.000001 -0.000002  0.000012 -0.000227 -0.002074  0.004467 -0.001859 -0.004361 -0.002235
                                 0.000543  0.003970 -0.006082  0.003210  0.004729  0.012263 -0.015623 -0.061946  0.058240  0.247015
                                 0.080715  0.336151 -0.000000 -0.000000  0.000001  0.000001 -0.000015 -0.000006 -0.000086  0.000094
                                 0.000198  0.000692 -0.000294  0.001028 -0.003013  0.001799 -0.000298 -0.000233 -0.000503 -0.000834
                                 0.004677  0.000025 -0.012584  0.000533 -0.017786 -0.000324  0.033567  0.000270  0.228242 -0.000097
                                 0.000066  0.000000 -0.000255  0.000001  0.000698  0.000000 -0.001717  0.000013  0.004154  0.000042
                                -0.009687  0.000012  0.023023  0.000002 -0.060528 -0.000007  0.086731  0.000001 -0.000001  0.000000
                                -0.000001  0.000003 -0.000019  0.000014  0.000114 -0.000040  0.000125  0.003119  0.019680  0.175879
                                 0.000388  0.002904

   5.2   0     0.0070   -1.1811 -0.000000  0.000000 -0.000000  0.000001 -0.000002  0.000003 -0.000006  0.000016 -0.000065  0.000598
                                 0.006489  0.008663  0.046212  0.080050  0.172581  0.096184 -0.203386  0.311385 -0.923824 -0.002409
                                -0.009254 -0.038595 -0.062546 -0.080515 -0.207151  3.591342  2.670517 -4.003711 -3.429242  2.257574
                                -0.000000  0.000002 -0.000008  0.000043 -0.000784 -0.007098  0.014397 -0.005378 -0.017227 -0.017256
                                 0.001869  0.013508 -0.020174  0.012743  0.012647  0.042364 -0.090921  0.244029 -0.319114  0.149738
                                -0.665591  0.616543  0.000000  0.000000 -0.000000 -0.000001  0.000005  0.000005  0.000171 -0.000084
                                 0.000494 -0.000620  0.000776 -0.000921  0.001521 -0.001612 -0.000019  0.000208 -0.000309  0.000746
                                -0.001011 -0.000024  0.001713 -0.000488  0.034097  0.000296 -0.072600 -0.000265 -0.119590  0.000111
                                -0.000048 -0.000000  0.000187 -0.000001 -0.000512 -0.000000  0.001259 -0.000011 -0.003063 -0.000037
                                 0.007171 -0.000011 -0.017263 -0.000003  0.045521  0.000004 -0.066291 -0.000002  0.000001 -0.000000
                                 0.000001 -0.000002  0.000017 -0.000013 -0.000104  0.000036 -0.000112 -0.002522 -0.016546 -0.143550
                                -0.000290 -0.002601

                                   1 2py     1 2py     1 2py     1 2py     1 2py     1 2py     1 2py     1 2py     1 2py     1 2py
                                   1 2py     1 2py     1 2py     1 2py     1 2py     1 2py     1 2py     1 2py     1 2py     1 2py
                                   1 2py     1 2py     1 2py     1 2py     1 2py     1 2py     1 2py     1 2py     1 2py     1 2py
                                   1 3d1-    1 3d1-    1 3d1-    1 3d1-    1 3d1-    1 3d1-    1 3d1-    1 3d1-    1 3d1-    1 3d1-
                                   1 3d1-    1 3d1-    1 3d1-    1 3d1-    1 3d1-    1 3d1-    1 3d1-    1 3d1-    1 3d1-    1 3d1-
                                   1 3d1-    1 3d1-    1 4f1-    1 4f3-    1 4f1-    1 4f3-    1 4f1-    1 4f3-    1 4f1-    1 4f3-
                                   1 4f1-    1 4f3-    1 4f1-    1 4f3-    1 4f1-    1 4f3-    1 4f1-    1 4f3-    1 4f1-    1 4f3-
                                   1 4f1-    1 4f3-    1 4f1-    1 4f3-    1 4f1-    1 4f3-    1 4f1-    1 4f3-    1 4f1-    1 4f3-
                                   1 5g1-    1 5g3-    1 5g1-    1 5g3-    1 5g1-    1 5g3-    1 5g1-    1 5g3-    1 5g1-    1 5g3-
                                   1 5g1-    1 5g3-    1 5g1-    1 5g3-    1 5g1-    1 5g3-    1 5g1-    1 5g3-    1 6h1-    1 6h3-
                                   1 6h5-    1 6h1-    1 6h3-    1 6h5-    1 6h1-    1 6h3-    1 6h5-    2 2py     2 2py     2 2py
                                   2 3d1-    2 3d1-

   1.3   2     3.5087   -5.3475  0.000000 -0.000001  0.000005 -0.000017  0.000022 -0.000029  0.000063 -0.000180  0.000738 -0.006787
                                -0.074286 -0.103360 -0.702872 -0.880420 -2.768739 -1.469956  1.033238 -0.756879  0.746091  0.027416
                                 0.106910  0.550561  0.864487  1.106272  2.786437 -0.239171 -0.887798  0.636400  0.062514 -0.010944
                                -0.000003  0.000016 -0.000067  0.000358 -0.006654 -0.061121  0.129293 -0.052644 -0.174980 -0.119443
                                 0.015922  0.117248 -0.178372  0.122051  0.150415  0.137462 -0.121766  0.075882 -0.044488  0.015679
                                -0.006522  0.001837  0.000008  0.000126 -0.000058 -0.000970  0.000497  0.009359 -0.001136  0.037578
                                -0.025784 -0.250633 -0.012013 -0.083957  0.129461  1.638418  0.015480  0.214138  0.037712  0.501515
                                -0.149369 -1.896638  0.101375  1.275787 -0.069077 -0.844370  0.032607  0.421079 -0.010369 -0.134206
                                 0.000040  0.000387 -0.000095 -0.000628  0.000373  0.003632 -0.000641 -0.005232  0.004150  0.034651
                                -0.000098 -0.011180  0.001102  0.004974 -0.001022 -0.004151 -0.001021  0.001880  0.000070  0.000241
                                -0.000159 -0.000014  0.000297 -0.000237  0.000137  0.000578 -0.000087  0.001279 -0.005046  0.006714
                                 0.001947 -0.000149

   2.3   +     3.1951   -5.6359  0.000000 -0.000001  0.000005 -0.000014  0.000018 -0.000024  0.000052 -0.000148  0.000608 -0.005590
                                -0.061198 -0.085194 -0.582135 -0.726034 -2.271280 -1.141408  0.809567 -0.603253  0.553782  0.022581
                                 0.088089  0.455434  0.715781  0.913926  2.239988 -0.195283 -0.708578  0.515400  0.051326 -0.009013
                                -0.000026  0.000135 -0.000567  0.003027 -0.056199 -0.515844  1.088875 -0.442716 -1.473546 -1.069598
                                 0.134446  0.988998 -1.503061  1.032069  1.267739  1.298600 -1.184533  0.718642 -0.431657  0.151569
                                -0.062781  0.017650  0.000126 -0.000010 -0.000971  0.000078  0.009334 -0.000818  0.036052 -0.006508
                                -0.256009  0.009173 -0.089822 -0.000184  1.637752 -0.099216  0.215274 -0.014567  0.505834 -0.032694
                                -1.886284  0.113856  1.269120 -0.076557 -0.881216  0.050662  0.413066 -0.025261 -0.131624  0.008050
                                 0.000719 -0.000037 -0.001481  0.000074  0.006979 -0.000377 -0.011741  0.000576  0.062839 -0.003033
                                -0.024666  0.002404  0.024499 -0.001579 -0.027514  0.000888 -0.010439 -0.000315 -0.000069 -0.000041
                                 0.000039 -0.000400 -0.000009 -0.000057  0.002242 -0.000472 -0.000552  0.008973 -0.059119  0.112784
                                 0.043873 -0.030007

   3.3   +     5.0337   -2.4063  0.000001 -0.000003  0.000012 -0.000035  0.000048 -0.000062  0.000135 -0.000385  0.001581 -0.014552
                                -0.159852 -0.224337 -1.580087 -1.961263 -5.806023 -2.006750  1.177144 -0.823290  0.802427  0.058869
                                 0.230626  1.227072  1.961807  2.467948  5.100366 -0.253961 -0.943214  0.674952  0.066573 -0.011688
                                -0.000006  0.000032 -0.000136  0.000727 -0.013529 -0.124610  0.263825 -0.108118 -0.386992 -0.136545
                                 0.032404  0.239404 -0.364566  0.268842  0.258074  0.150309 -0.157670  0.111911 -0.058859  0.019909
                                -0.008150  0.002289  0.000070 -0.000080 -0.000503  0.000576  0.001560 -0.001727 -0.159086  0.185215
                                -0.716174  0.830071 -0.736719  0.855410  1.058782 -1.219569  0.198211 -0.228530  0.655832 -0.757794
                                -0.902248  1.043029  0.533094 -0.637573 -0.348466  0.420476  0.180155 -0.212062 -0.058265  0.068284
                                -0.010890  0.009147  0.039913 -0.033630 -0.124377  0.104688  0.326091 -0.275658 -1.067422  0.896269
                                 0.958676 -0.797879 -0.581892  0.471105  0.276263 -0.222509 -0.083159  0.070408 -0.000216  0.000325
                                -0.000066  0.001132 -0.000414 -0.000094 -0.007487  0.005879 -0.000545  0.006194  0.004037 -0.004546
                                 0.001652 -0.020358

   4.3   0    -0.0018   -1.7541 -0.000000  0.000000 -0.000000  0.000000 -0.000000  0.000000 -0.000000  0.000001 -0.000003  0.000028
                                 0.000333  0.000754  0.017725 -0.006833  0.031644  0.047176  0.000751  0.058599 -0.256307 -0.000117
                                -0.000530 -0.011490 -0.012751 -0.004256  0.005854  0.611147  0.485240 -0.502188 -0.203919  0.559767
                                -0.000000  0.000001 -0.000002  0.000012 -0.000227 -0.002071  0.004449 -0.001856 -0.004353 -0.002506
                                 0.000542  0.003963 -0.006064  0.003246  0.004654  0.012325 -0.016099 -0.061154  0.056746  0.247383
                                 0.079160  0.339163 -0.000000  0.000000  0.000001 -0.000001 -0.000014  0.000002 -0.000063 -0.000152
                                 0.000253 -0.000772 -0.000239 -0.001123 -0.002945 -0.001796 -0.000298  0.000200 -0.000526  0.000788
                                 0.004679  0.000008 -0.012644 -0.000519 -0.017578  0.000357  0.032901 -0.000264  0.228479  0.000168
                                 0.000066 -0.000000 -0.000255 -0.000001  0.000696 -0.000003 -0.001714 -0.000011  0.004164  0.000003
                                -0.009669  0.000003  0.022967 -0.000003 -0.060411  0.000000  0.086543  0.000021 -0.000001 -0.000001
                                -0.000001  0.000005  0.000025  0.000020  0.000116  0.000051  0.000130  0.003101  0.019518  0.174988
                                 0.000389  0.002925

   5.3   0     0.0070   -1.1755 -0.000000  0.000000 -0.000000  0.000001 -0.000002  0.000003 -0.000006  0.000016 -0.000065  0.000600
                                 0.006502  0.008692  0.046880  0.079808  0.173808  0.098018 -0.203303  0.313355 -0.927049 -0.002413
                                -0.009274 -0.039027 -0.063042 -0.080692 -0.206927  3.606811  2.682133 -4.019839 -3.443752  2.261896
                                -0.000000  0.000002 -0.000008  0.000043 -0.000785 -0.007112  0.014433 -0.005389 -0.017260 -0.017044
                                 0.001873  0.013534 -0.020220  0.012731  0.012732  0.042380 -0.090653  0.244256 -0.318764  0.148856
                                -0.666736  0.613178  0.000000 -0.000000 -0.000000  0.000001  0.000005 -0.000002  0.000150  0.000137
                                 0.000439  0.000693  0.000722  0.001009  0.001474  0.001613 -0.000016 -0.000179 -0.000281 -0.000707
                                -0.001046 -0.000004  0.001866  0.000472  0.034004 -0.000312 -0.072096  0.000234 -0.121513 -0.000121
                                -0.000048  0.000000  0.000189  0.000001 -0.000515  0.000002  0.001269  0.000010 -0.003100 -0.000003
                                 0.007221 -0.000003 -0.017366  0.000004  0.045825 -0.000001 -0.066701 -0.000013  0.000001  0.000001
                                 0.000001 -0.000004 -0.000023 -0.000018 -0.000105 -0.000046 -0.000116 -0.002525 -0.016508 -0.143807
                                -0.000294 -0.002642

                                   1 3d2-    1 3d2-    1 3d2-    1 3d2-    1 3d2-    1 3d2-    1 3d2-    1 3d2-    1 3d2-    1 3d2-
                                   1 3d2-    1 3d2-    1 3d2-    1 3d2-    1 3d2-    1 3d2-    1 3d2-    1 3d2-    1 3d2-    1 3d2-
                                   1 3d2-    1 3d2-    1 4f2-    1 4f2-    1 4f2-    1 4f2-    1 4f2-    1 4f2-    1 4f2-    1 4f2-
                                   1 4f2-    1 4f2-    1 4f2-    1 4f2-    1 4f2-    1 4f2-    1 5g2-    1 5g4-    1 5g2-    1 5g4-
                                   1 5g2-    1 5g4-    1 5g2-    1 5g4-    1 5g2-    1 5g4-    1 5g2-    1 5g4-    1 5g2-    1 5g4-
                                   1 5g2-    1 5g4-    1 5g2-    1 5g4-    1 6h4-    1 6h2-    1 6h4-    1 6h2-    1 6h4-    1 6h2-
                                   2 3d2-    2 3d2-

   1.4   +     5.0752   -3.4016  0.000006 -0.000029  0.000122 -0.000652  0.012139  0.111670 -0.236118  0.096742  0.352772  0.127880
                                -0.029069 -0.214489  0.326508 -0.242544 -0.231666 -0.137030  0.122223 -0.080705  0.044796 -0.015418
                                 0.006325 -0.001782 -0.000121  0.000872 -0.002700  0.276618  1.245849  1.291518 -1.785994 -0.342130
                                -1.138960  1.520190 -0.929101  0.610876 -0.308507  0.099414  0.009243  0.000013 -0.033109 -0.000051
                                 0.104820  0.000167 -0.269720 -0.000495  0.891674  0.001335 -0.794010 -0.001118  0.467479  0.000660
                                -0.222992 -0.000313  0.069932  0.000099  0.000079  0.000556  0.000211 -0.000002 -0.000036  0.006402
                                -0.005462  0.007308

   2.4   0     0.0119   -0.8240 -0.000001  0.000004 -0.000018  0.000097 -0.001785 -0.016187  0.033257 -0.012737 -0.038282 -0.034952
                                 0.004257  0.030842 -0.046314  0.028277  0.030597  0.096650 -0.190689  0.360785 -0.498940  0.685882
                                -1.166200  1.633880 -0.000000  0.000001 -0.000010  0.000116  0.000836  0.000636 -0.001475 -0.000356
                                -0.000947  0.003945 -0.011820  0.029753 -0.059905  0.108270  0.000008  0.000000 -0.000031 -0.000000
                                 0.000085  0.000000 -0.000208 -0.000000  0.000490  0.000000 -0.001129 -0.000001  0.002558  0.000002
                                -0.005628 -0.000004  0.010866  0.000008  0.000000 -0.000000 -0.000000  0.000000  0.000000  0.000000
                                -0.000021  0.000783

   3.4   0     0.0325   -1.1976 -0.000002  0.000009 -0.000037  0.000195 -0.003589 -0.032545  0.066853 -0.025610 -0.077226 -0.070797
                                 0.008560  0.062011 -0.093110  0.057012  0.061684  0.194668 -0.383429  0.743490 -1.036490  1.529192
                                -2.827563  1.429267  0.000001 -0.000004  0.000029 -0.000356 -0.002546 -0.001942  0.004491  0.001083
                                 0.002880 -0.012135  0.036887 -0.093268  0.193808 -0.442700 -0.000038 -0.000000  0.000147  0.000000
                                -0.000405 -0.000000  0.000999  0.000001 -0.002359 -0.000002  0.005458  0.000003 -0.012460 -0.000008
                                 0.028000  0.000013 -0.056077 -0.000033 -0.000000  0.000000  0.000000 -0.000000 -0.000000  0.000000
                                 0.000242 -0.004809

 HOMO      7.1     5.143619 =     139.9650eV
 LUMO      8.1    -0.316571 =      -8.6143eV
 LUMO-HOMO        -5.460190 =    -148.5793eV

 No convergence



 **********************************************************************************************************************************
 DATASETS  * FILE   NREC   LENGTH (MB)   RECORD NAMES
              1      19       22.63       500      610      700      900      950      970     1000      129      960     1100
                                          VAR    BASINP    GEOM    SYMINP    ZMAT    AOBASIS   BASIS     P2S    ABASIS      S
                                         1400     1410     1420     1200     1210     1080     1600     1650     1700
                                           T        V       ECP      H0       H01     AOSYM     SMH    MOLCAS    OPER

              2       4        4.60       700     1000      520     2100
                                         GEOM     BASIS   MCVARS     RHF

 PROGRAMS   *        TOTAL       RHF       INT
 CPU TIMES  *       198.37     86.12    112.00
 REAL TIME  *       218.11 SEC
 DISK USED  *        12.94 GB
 SF USED    *         0.25 MB
 GA USED    *         0.00 MB       (max)       0.00 MB       (current)
 **********************************************************************************************************************************
   -->
   <time start="13:36:47" end="13:40:25" cpu="198.37" system="18.99" real="218.11"/>
   <storage units="megabyte" memory="8001.84" sf="0.25" df="400.41" eaf="12540.42" ga="0.0"/>
  </jobstep><!--
 SETTING SCF            =       -69.82943401  AU
 SETTING _CC_NORM_MAX   =         2.00000000
  --><jobstep command="RCCSD(T)" commandset="CCSD">
   <!--


 PROGRAM * CCSD (Restricted open-shell coupled cluster)     Authors: C. Hampel, H.-J. Werner, 1991, M. Deegan, P.J. Knowles, 1992


 Convergence thresholds:  THRVAR = 1.00D-08  THRDEN = 1.00D-06

 CCSD(T)     terms to be evaluated (factor= 1.000)


 Number of closed-shell orbitals:   5 (   3   1   1   0 )
 Number of active  orbitals:        9 (   4   2   2   1 )
 Number of external orbitals:     455 ( 176 109 109  61 )

 Memory could be reduced to 526.37 Mwords without degradation in triples

 Number of N-1 electron functions:              19
 Number of N-2 electron functions:             171
 Number of singly external CSFs:              2750
 Number of doubly external CSFs:           6649251
 Total number of CSFs:                     6652001

 Molecular orbitals read from record     2100.2  Type=RHF/CANONICAL (state 1.4)

 ?Error: RHF not converged. This error exit can be avoided using the IGNORE_ERROR option on the ORBITAL directive
   --><error/><!--
  --></jobstep><!--
  -->
  <input>
  <!--
 --></job><!--
--></molpro>
