<?xml version="1.0"?>
<molpro xmlns="http://www.molpro.net/schema/molpro-output"
  xmlns:xsd="http://www.w3.org/1999/XMLSchema"
  xmlns:cml="http://www.xml-cml.org/schema"
  xmlns:stm="http://www.xml-cml.org/schema"
  xmlns:xhtml="http://www.w3.org/1999/xhtml">
 <!--

 Nodes     nprocs
 nid00095    11
 Number of processes for MPI-2 version of Molpro:   nprocs(total)=   12   nprocs(compute)=   11   nprocs(helper)=    1

 Using customized tuning parameters: mindgm=7; mindgv=16; mindgc=1; mindgr=1; noblas=0; minvec=7
 default implementation of scratch files=sf

 --><job>
  <!--

 Variables initialized (889), CPU time= 0.02 sec
 Commands  initialized (702), CPU time= 0.01 sec, 572 directives.
 Default parameters read. Elapsed time= 0.12 sec

 Checking input...
 Passed
1


                                         ***  PROGRAM SYSTEM MOLPRO  ***
                                       Copyright, TTI GmbH Stuttgart, 2015
                                    Version 2015.1 linked Dec 29 2018 15:55:43


 **********************************************************************************************************************************
 LABEL *   Calculation for Gd atom, singlet and triplet
  64 bit mpp version                                                                     DATE: 03-Nov-22          TIME: 05:44:28
 **********************************************************************************************************************************

 SHA1:             19cd028119e0e09f93f0674bd8af7968d9b3eff6
 **********************************************************************************************************************************
  -->
  <!--

 THRESHOLDS:

 ZERO    =  1.00D-12  ONEINT  =  1.00D-12  TWOINT  =  1.00D-15  PREFAC  =  1.00D-14  LOCALI  =  1.00D-09  EORDER  =  1.00D-04
 ENERGY  =  0.00D+00  ETEST   =  0.00D+00  EDENS   =  0.00D+00  THRDEDEF=  1.00D-06  GRADIENT=  1.00D-02  STEP    =  1.00D-03
 ORBITAL =  1.00D-05  CIVEC   =  1.00D-05  COEFF   =  1.00D-04  PRINTCI =  5.00D-02  PUNCHCI =  9.90D+01  OPTGRAD =  3.00D-04
 OPTENERG=  1.00D-06  OPTSTEP =  3.00D-04  THRGRAD =  1.00D-10  COMPRESS=  1.00D-11  VARMIN  =  1.00D-07  VARMAX  =  1.00D-03
 THRDOUB =  0.00D+00  THRDIV  =  1.00D-05  THRRED  =  1.00D-07  THRPSP  =  1.00D+00  THRDC   =  1.00D-10  THRCS   =  1.00D-10
 THRNRM  =  1.00D-08  THREQ   =  0.00D+00  THRDE   =  1.00D+00  THRREF  =  1.00D-05  SPARFAC =  1.00D+00  THRDLP  =  1.00D-07
 THRDIA  =  1.00D-10  THRDLS  =  1.00D-07  THRGPS  =  0.00D+00  THRKEX  =  0.00D+00  THRDIS  =  2.00D-01  THRVAR  =  1.00D-10
 THRLOC  =  1.00D-06  THRGAP  =  1.00D-06  THRLOCT = -1.00D+00  THRGAPT = -1.00D+00  THRORB  =  1.00D-06  THRMLTP =  0.00D+00
 THRCPQCI=  1.00D-10  KEXTA   =  0.00D+00  THRCOARS=  0.00D+00  SYMTOL  =  1.00D-06  GRADTOL =  1.00D-06  THROVL  =  1.00D-08
 THRORTH =  1.00D-08  GRID    =  1.00D-06  GRIDMAX =  1.00D-03  DTMAX   =  0.00D+00  THROCCDE=  1.00D-01  THROCCDE=  1.00D-01



 THRESHOLDS:

 ZERO    =  1.00D-12  ONEINT  =  1.00D-15  TWOINT  =  1.00D-15  PREFAC  =  1.00D-14  LOCALI  =  1.00D-09  EORDER  =  1.00D-04
 ENERGY  =  0.00D+00  ETEST   =  0.00D+00  EDENS   =  0.00D+00  THRDEDEF=  1.00D-06  GRADIENT=  1.00D-02  STEP    =  1.00D-03
 ORBITAL =  1.00D-05  CIVEC   =  1.00D-05  COEFF   =  1.00D-04  PRINTCI =  5.00D-02  PUNCHCI =  9.90D+01  OPTGRAD =  3.00D-04
 OPTENERG=  1.00D-06  OPTSTEP =  3.00D-04  THRGRAD =  1.00D-10  COMPRESS=  1.00D-11  VARMIN  =  1.00D-07  VARMAX  =  1.00D-03
 THRDOUB =  0.00D+00  THRDIV  =  1.00D-05  THRRED  =  1.00D-07  THRPSP  =  1.00D+00  THRDC   =  1.00D-10  THRCS   =  1.00D-10
 THRNRM  =  1.00D-08  THREQ   =  0.00D+00  THRDE   =  1.00D+00  THRREF  =  1.00D-05  SPARFAC =  1.00D+00  THRDLP  =  1.00D-07
 THRDIA  =  1.00D-10  THRDLS  =  1.00D-07  THRGPS  =  0.00D+00  THRKEX  =  0.00D+00  THRDIS  =  2.00D-01  THRVAR  =  1.00D-10
 THRLOC  =  1.00D-06  THRGAP  =  1.00D-06  THRLOCT = -1.00D+00  THRGAPT = -1.00D+00  THRORB  =  1.00D-06  THRMLTP =  0.00D+00
 THRCPQCI=  1.00D-10  KEXTA   =  0.00D+00  THRCOARS=  0.00D+00  SYMTOL  =  1.00D-06  GRADTOL =  1.00D-06  THROVL  =  1.00D-08
 THRORTH =  1.00D-08  GRID    =  1.00D-06  GRIDMAX =  1.00D-03  DTMAX   =  0.00D+00  THROCCDE=  1.00D-01  THROCCDE=  1.00D-01



Geometry recognized as XYZ


 Variable memory set to 1000000000 words,  buffer space   230000 words

 SETTING BASIS          =    USERDEF
  --><jobstep command="RHF-SCF" commandset="SCFPRO">
   <!--


 Recomputing integrals since basis changed


 Using spherical harmonics



 PROGRAM * SEWARD (Integral evaluation for generally contracted gaussian basis sets)     Author: Roland Lindh, 1990

 Geometry written to block  1 of record 700

 Orientation using atomic masses
 Molecule type: Atom
 Symmetry elements: X,Y,Z
 Rotational constants:       0.0000000      0.0000000      0.0000000 GHz  (calculated with average atomic masses)

 Point group  D2h


   --><cml:molecule>
    <cml:symmetry pointGroup="D2h"/>
    <cml:atomArray>
     <cml:atom id="a1" elementType="Gd" x3="0.0" y3="0.0" z3="0.0"/>
    </cml:atomArray>
    <cml:bondArray>
    </cml:bondArray>
   </cml:molecule><!--

 ATOMIC COORDINATES

 NR  ATOM    CHARGE       X              Y              Z

   1  GD     64.00    0.000000000    0.000000000    0.000000000

 NUCLEAR CHARGE:                   64
 NUMBER OF PRIMITIVE AOS:         462
 NUMBER OF SYMMETRY AOS:          369
 NUMBER OF CONTRACTIONS:          369   ( 100Ag  +  50B3u +  50B2u +  37B1g +  50B1u +  37B2g +  37B3g +   8Au  )
 NUMBER OF CORE ORBITALS:          23   (   8Ag  +   3B3u +   3B2u +   2B1g +   3B1u +   2B2g +   2B3g +   0Au  )
 NUMBER OF VALENCE ORBITALS:       17   (   4Ag  +   3B3u +   3B2u +   1B1g +   3B1u +   1B2g +   1B3g +   1Au  )


 NUCLEAR REPULSION ENERGY    0.00000000

 EXTRA SYMMETRY OF AOS IN SYMMETRY 1:   1 1 1 1 1 1 1 1 1 1   1 1 1 1 1 1 1 1 1 1   1 1 1 1 1 1 1 1 1 1   1 1 1 1 2 3 2 3 2 3
                                        2 3 2 3 2 3 2 3 2 3   2 3 2 3 2 3 2 3 2 3   2 3 2 3 2 3 2 3 2 3   2 3 2 3 2 3 4 5 6 4
                                        5 6 4 5 6 4 5 6 4 5   6 4 5 6 4 5 6 4 5 6
 EXTRA SYMMETRY OF AOS IN SYMMETRY 2:   1 1 1 1 1 1 1 1 1 1   1 1 1 1 1 1 1 1 1 1   1 1 1 1 1 1 1 1 1 1   1 1 1 1 2 3 2 3 2 3
                                        2 3 2 3 2 3 2 3 2 3
 EXTRA SYMMETRY OF AOS IN SYMMETRY 3:   1 1 1 1 1 1 1 1 1 1   1 1 1 1 1 1 1 1 1 1   1 1 1 1 1 1 1 1 1 1   1 1 1 1 2 3 2 3 2 3
                                        2 3 2 3 2 3 2 3 2 3
 EXTRA SYMMETRY OF AOS IN SYMMETRY 4:   1 1 1 1 1 1 1 1 1 1   1 1 1 1 1 1 1 1 1 1   1 2 3 2 3 2 3 2 3 2   3 2 3 2 3 2 3
 EXTRA SYMMETRY OF AOS IN SYMMETRY 5:   1 1 1 1 1 1 1 1 1 1   1 1 1 1 1 1 1 1 1 1   1 1 1 1 1 1 1 1 1 1   1 1 1 1 2 3 2 3 2 3
                                        2 3 2 3 2 3 2 3 2 3
 EXTRA SYMMETRY OF AOS IN SYMMETRY 6:   1 1 1 1 1 1 1 1 1 1   1 1 1 1 1 1 1 1 1 1   1 2 3 2 3 2 3 2 3 2   3 2 3 2 3 2 3
 EXTRA SYMMETRY OF AOS IN SYMMETRY 7:   1 1 1 1 1 1 1 1 1 1   1 1 1 1 1 1 1 1 1 1   1 2 3 2 3 2 3 2 3 2   3 2 3 2 3 2 3

 Eigenvalues of metric

         1 0.132E-06 0.413E-06 0.726E-06 0.726E-06 0.743E-06 0.144E-05 0.457E-05 0.106E-04
         2 0.619E-06 0.443E-05 0.145E-04 0.743E-04 0.152E-03 0.322E-03 0.506E-03 0.932E-03
         3 0.619E-06 0.443E-05 0.145E-04 0.743E-04 0.152E-03 0.322E-03 0.506E-03 0.932E-03
         4 0.726E-06 0.238E-04 0.151E-03 0.566E-03 0.124E-02 0.519E-02 0.122E-01 0.187E-01
         5 0.619E-06 0.443E-05 0.145E-04 0.743E-04 0.152E-03 0.322E-03 0.506E-03 0.932E-03
         6 0.726E-06 0.238E-04 0.151E-03 0.566E-03 0.124E-02 0.519E-02 0.122E-01 0.187E-01
         7 0.726E-06 0.238E-04 0.151E-03 0.566E-03 0.124E-02 0.519E-02 0.122E-01 0.187E-01
         8 0.932E-03 0.153E-01 0.130E+00 0.364E+00 0.730E+00 0.121E+01 0.178E+01 0.377E+01


 Contracted 2-electron integrals neglected if value below      1.0D-15
 AO integral compression algorithm  1   Integral accuracy      1.0D-15

     2350.645 MB (compressed) written to integral file ( 51.9%)

     Node minimum: 100.663 MB, node maximum: 350.487 MB


 NUMBER OF SORTED TWO-ELECTRON INTEGRALS:   27454508.     BUFFER LENGTH:  32768
 NUMBER OF SEGMENTS:   1  SEGMENT LENGTH:   27454508      RECORD LENGTH: 524288

 Memory used in sort:      28.01 MW

 SORT1 READ   566084269. AND WROTE    17405619. INTEGRALS IN     50 RECORDS. CPU TIME:    12.88 SEC, REAL TIME:    13.43 SEC
 SORT2 READ   191115754. AND WROTE   300799612. INTEGRALS IN   4224 RECORDS. CPU TIME:     0.52 SEC, REAL TIME:     4.81 SEC

 Node minimum:    27279141.  Node maximum:    27454508. integrals

 OPERATOR DM      FOR CENTER  0  COORDINATES:    0.000000    0.000000    0.000000


 **********************************************************************************************************************************
 DATASETS  * FILE   NREC   LENGTH (MB)   RECORD NAMES
              1      18       20.81       500      610      700      900      950      970     1000      129      960     1100
                                          VAR    BASINP    GEOM    SYMINP    ZMAT    AOBASIS   BASIS     P2S    ABASIS      S
                                         1400     1410     1200     1210     1080     1600     1650     1700
                                           T        V       H0       H01     AOSYM     SMH    MOLCAS    OPER

 PROGRAMS   *        TOTAL       INT
 CPU TIMES  *       122.73    122.32
 REAL TIME  *       129.66 SEC
 DISK USED  *         4.66 GB
 GA USED    *         0.00 MB       (max)       0.00 MB       (current)
 **********************************************************************************************************************************


 PROGRAM * RHF-SCF (OPEN SHELL)       Authors: W. Meyer, H.-J. Werner


 NUMBER OF ELECTRONS:      37+   28-    SPACE SYMMETRY=8    SPIN SYMMETRY: Decet
 CONVERGENCE THRESHOLDS:    1.00E-05 (Density)    1.28E-07 (Energy)
 MAX. NUMBER OF ITERATIONS:       40
 INTERPOLATION TYPE:            DIIS
 INTERPOLATION STEPS:              2 (START)      1 (STEP)
 LEVEL SHIFTS:                 -0.60 (CLOSED) -0.30 (OPEN)

 Number of closed-shell orbitals:   28 (  10   4   4   2   4   2   2   0 )
 Number of open-shell orbitals:      9 (   2   2   2   0   2   0   0   1 )



 Extra symmetries of mos in symmetry 1:   1   1   1   3   2   1   3   2   1   1   3   2
 Extra symmetries of mos in symmetry 2:   1   1   1   1   3   2
 Extra symmetries of mos in symmetry 3:   1   1   1   1   3   2
 Extra symmetries of mos in symmetry 5:   1   1   1   1   3   2
 Orbital guess generated from atomic densities. Full valence occupancy:   12   6   6   3   6   3   3   1


 Molecular orbital dump at record        4202.2

 ITERATION    DDIFF          GRAD             ENERGY        2-EL.EN.            DIPOLE MOMENTS         DIIS   ORB.
    1      0.000D+00      0.000D+00    -10819.08500864   8069.695751    0.00000    0.00000    0.00000    0    start
    2      0.000D+00      0.123D+00    -10820.32851580   8095.939189    0.00000    0.00000    0.00000    1    diag,B
    3      0.345D+01      0.166D-01    -10820.36665212   8075.568424    0.00000    0.00000    0.00000    2    diag,B
    4      0.173D+00      0.389D-02    -10820.38980385   8091.114686    0.00000    0.00000    0.00000    3    diag,B
    5      0.102D+00      0.145D-02    -10820.41225706   8092.541622    0.00000    0.00000    0.00000    4    diag,B
    6      0.687D-01      0.998D-03    -10820.43183917   8094.988999    0.00000    0.00000    0.00000    5    diag,B
    7      0.406D-01      0.107D-02    -10820.39363274   8090.426267    0.00000    0.00000    0.00000    6    diag,B
    8      0.462D-01      0.752D-03    -10820.39206258   8089.746478    0.00000    0.00000    0.00000    7    diag,B
    9      0.589D-01      0.487D-03    -10820.40024737   8090.571005    0.00000    0.00000    0.00000    8    diag,B
   10      0.342D-01      0.479D-03    -10820.39610286   8090.215893    0.00000    0.00000    0.00000    9    orth
   11      0.143D-01      0.472D-03    -10820.36430882   8086.627663    0.00000    0.00000    0.00000    9    diag,B
   12      0.190D+00      0.313D-03    -10820.35932830   8085.906881    0.00000    0.00000    0.00000    9    diag,B
   13      0.529D-01      0.233D-03    -10820.35804375   8085.296067    0.00000    0.00000    0.00000    9    diag,B
   14      0.956D-01      0.135D-03    -10820.35890962   8084.731381    0.00000    0.00000    0.00000    9    diag,B
   15      0.244D+00      0.127D-03    -10820.35902576   8084.735126    0.00000    0.00000    0.00000    9    diag,B
   16      0.307D-01      0.130D-03    -10820.35854966   8084.449363    0.00000    0.00000    0.00000    9    diag,B
   17      0.162D+00      0.122D-03    -10820.35861842   8084.550513    0.00000    0.00000    0.00000    9    diag,B
   18      0.637D-02      0.124D-03    -10820.35812768   8084.858247    0.00000    0.00000    0.00000    9    diag,B
   19      0.145D+00      0.110D-03    -10820.21237786   8089.382996    0.00000    0.00000    0.00000    9    diag,B
   20      0.125D+01      0.302D-03    -10820.21239940   8089.519293    0.00000    0.00000    0.00000    9    orth
   21      0.185D+00      0.297D-03    -10820.35756741   8085.234321    0.00000    0.00000    0.00000    9    diag,B
   22      0.114D+01      0.820D-04    -10820.21222159   8089.928916    0.00000    0.00000    0.00000    9    diag,B
   23      0.114D+01      0.291D-03    -10820.21221830   8089.938975    0.00000    0.00000    0.00000    9    diag,B
   24      0.295D-01      0.289D-03    -10819.34666633   8110.360197    0.00000    0.00000    0.00000    9    diag,B
   25      0.331D+01      0.139D-02    -10820.21220051   8089.815653    0.00000    0.00000    0.00000    9    diag,B
   26      0.327D+01      0.284D-03    -10820.21219910   8089.811375    0.00000    0.00000    0.00000    9    diag,B
   27      0.807D-02      0.284D-03    -10819.92398063   8098.957740    0.00000    0.00000    0.00000    9    diag,B


 ?APPARENTLY NO CONVERGENCE, EXIT AFTER THREE FURTHER ITERATIONS


   28      0.187D+01      0.663D-03    -10820.21220490   8089.895755    0.00000    0.00000    0.00000    9    diag,B
   29      0.193D+01      0.284D-03    -10820.21222220   8089.856574    0.00000    0.00000    0.00000    9    orth
   30      0.189D-01      0.280D-03    -10820.21429367   8088.457991    0.00000    0.00000    0.00000    0    orth

 Final alpha occupancy:  12   6   6   2   6   2   2   1
 Final beta  occupancy:  10   4   4   2   4   2   2   0

 !RHF STATE 1.8 Energy               -10820.2142936728
   --><property name="Energy" method="RHF" principal="true" stateSymmetry="8" stateNumber="1"
     value="-10820.2142936728"/><!--
 Nuclear energy                         0.00000000
 One-electron energy               -14864.44328914
 Two-electron energy                 4044.22899546
 Virial quotient                       -0.99996290
 !RHF STATE 1.8 Dipole moment           0.00000000     0.00000000     0.00000000
 Dipole moment /Debye                   0.00000000     0.00000000     0.00000000
   --><property name="Dipole moment" method="RHF" principal="true" stateSymmetry="8"
     stateNumber="1" value="0.0 0.0 0.0"/><!--

 ELECTRON ORBITALS
 =================


   Orb  Occ    Energy  Couls-En    Coefficients

                                   1 1s      1 1s      1 1s      1 1s      1 1s      1 1s      1 1s      1 1s      1 1s      1 1s
                                   1 1s      1 1s      1 1s      1 1s      1 1s      1 1s      1 1s      1 1s      1 1s      1 1s
                                   1 1s      1 1s      1 1s      1 1s      1 1s      1 1s      1 1s      1 1s      1 1s      1 1s
                                   1 1s      1 1s      1 1s      1 1s      1 3d0     1 3d2+    1 3d0     1 3d2+    1 3d0     1 3d2+
                                   1 3d0     1 3d2+    1 3d0     1 3d2+    1 3d0     1 3d2+    1 3d0     1 3d2+    1 3d0     1 3d2+
                                   1 3d0     1 3d2+    1 3d0     1 3d2+    1 3d0     1 3d2+    1 3d0     1 3d2+    1 3d0     1 3d2+
                                   1 3d0     1 3d2+    1 3d0     1 3d2+    1 3d0     1 3d2+    1 3d0     1 3d2+    1 3d0     1 3d2+
                                   1 3d0     1 3d2+    1 3d0     1 3d2+    1 3d0     1 3d2+    1 5g0     1 5g4+    1 5g2+    1 5g0
                                   1 5g4+    1 5g2+    1 5g0     1 5g4+    1 5g2+    1 5g0     1 5g4+    1 5g2+    1 5g0     1 5g4+
                                   1 5g2+    1 5g0     1 5g4+    1 5g2+    1 5g0     1 5g4+    1 5g2+    1 5g0     1 5g4+    1 5g2+


   1.1   2 -1747.2687-3795.0774  0.000044  0.000251  0.000990  0.002925  0.008910  0.024299  0.068209  0.157759  0.316377  0.363002
                                 0.155683  0.060134 -0.008189  0.006861 -0.026954 -0.030350 -0.018221  0.015273  0.017401 -0.002033
                                -0.005032 -0.002897 -0.000823  0.028940  0.047056 -0.007409 -0.073875  0.030261  0.033872 -0.024827
                                 0.002705  0.005602  0.001337  0.000014 -0.000000 -0.000000 -0.000000 -0.000000 -0.000000 -0.000000
                                -0.000000 -0.000000  0.000000  0.000000 -0.000000 -0.000000  0.000000  0.000000 -0.000000 -0.000000
                                -0.000000  0.000000 -0.000000 -0.000000 -0.000000 -0.000000  0.000000  0.000000 -0.000000 -0.000000
                                 0.000000  0.000000  0.000000  0.000000  0.000000  0.000000  0.000000  0.000000 -0.000000 -0.000000
                                 0.000000  0.000000 -0.000000 -0.000000  0.000000  0.000000  0.000000  0.000000  0.000000 -0.000000
                                -0.000000 -0.000000  0.000000  0.000000  0.000000 -0.000000 -0.000000 -0.000000  0.000000  0.000000
                                 0.000000 -0.000000 -0.000000 -0.000000  0.000000  0.000000  0.000000 -0.000000 -0.000000 -0.000000

   2.1   2  -282.5647 -791.8318 -0.000014 -0.000083 -0.000327 -0.000961 -0.002976 -0.008123 -0.023992 -0.054443 -0.121472 -0.168200
                                 0.059331  0.620292  0.512733  0.079636 -0.081741 -0.041946 -0.017644  0.012542  0.012874 -0.001393
                                -0.003319 -0.001896 -0.000536 -0.019572 -0.063047 -0.114607 -0.064948  0.072520  0.039975 -0.018783
                                 0.001803  0.003678  0.000871  0.000009 -0.000000 -0.000000 -0.000000 -0.000000 -0.000001 -0.000000
                                -0.000007 -0.000000 -0.000006 -0.000000  0.000006  0.000000  0.000020  0.000000 -0.000012 -0.000000
                                 0.000001  0.000000  0.000001  0.000000  0.000000  0.000000 -0.000013 -0.000000 -0.000026 -0.000000
                                 0.000023  0.000000 -0.000001 -0.000000 -0.000000 -0.000000 -0.000000  0.000000  0.000000 -0.000000
                                 0.000000  0.000000 -0.000000 -0.000000  0.000000  0.000000 -0.000001 -0.000000  0.000000  0.000001
                                 0.000000 -0.000000 -0.000000 -0.000000  0.000000  0.000000  0.000000 -0.000000 -0.000000 -0.000000
                                 0.000000  0.000000  0.000000 -0.000000 -0.000000 -0.000000  0.000000  0.000000  0.000000 -0.000000

   3.1   2   -64.0311 -282.3133  0.000007  0.000038  0.000151  0.000442  0.001382  0.003733  0.011276  0.023568  0.049893  0.058377
                                -0.102612 -0.693101 -0.514960  0.717685  0.646810  0.072785 -0.019917  0.031256  0.044761 -0.006079
                                -0.016157 -0.009463 -0.002720  0.012812  0.047261  0.112933  0.221363 -0.031365 -0.007468 -0.061137
                                 0.008503  0.018166  0.004410  0.000047 -0.000000 -0.000000 -0.000001 -0.000000 -0.000006 -0.000000
                                -0.000017 -0.000000 -0.000051 -0.000000 -0.000091 -0.000000 -0.000184 -0.000000  0.000037 -0.000000
                                -0.000012 -0.000000 -0.000007  0.000000 -0.000003  0.000000 -0.000030 -0.000000  0.000106  0.000000
                                -0.000092 -0.000000  0.000005 -0.000000  0.000002 -0.000000  0.000006 -0.000000 -0.000012  0.000000
                                 0.000022 -0.000000 -0.000017  0.000000  0.000004 -0.000000 -0.000005 -0.000000  0.000000  0.000011
                                 0.000001 -0.000000 -0.000010 -0.000000  0.000000  0.000004  0.000000 -0.000000 -0.000004 -0.000000
                                 0.000000  0.000002  0.000000 -0.000000 -0.000001 -0.000000  0.000000  0.000000  0.000000 -0.000000

   4.1   2   -45.9077 -259.7703  0.000000  0.000000  0.000000  0.000000  0.000000  0.000000  0.000000  0.000000  0.000000  0.000000
                                -0.000000 -0.000000 -0.000000  0.000000 -0.000000 -0.000000 -0.000000  0.000000  0.000000  0.000000
                                 0.000000  0.000000  0.000000  0.000000  0.000000  0.000000  0.000000  0.000000  0.000000 -0.000000
                                -0.000000 -0.000000 -0.000000 -0.000000  0.000000  0.000885  0.000000  0.006883  0.000000  0.034977
                                 0.000000  0.136035  0.000000  0.327482  0.000000  0.478543  0.000000  0.408579 -0.000000 -0.075127
                                 0.000000  0.009934  0.000000  0.005486  0.000000  0.000621 -0.000000 -0.076771 -0.000000 -0.235952
                                 0.000000  0.207055 -0.000000 -0.007640 -0.000000 -0.001967 -0.000000 -0.000505 -0.000000  0.000438
                                 0.000000 -0.000308 -0.000000  0.000217  0.000000 -0.000129 -0.000000 -0.000000 -0.000039  0.000000
                                 0.000000  0.000023 -0.000000 -0.000000 -0.000019  0.000000  0.000000  0.000014 -0.000000 -0.000000
                                -0.000009  0.000000  0.000000  0.000005 -0.000000 -0.000000 -0.000003 -0.000000  0.000000  0.000001

   5.1   2   -45.9027 -259.7752  0.000000  0.000000  0.000000  0.000000  0.000000  0.000001  0.000004  0.000007  0.000012  0.000007
                                -0.000059 -0.000298 -0.000154  0.000430 -0.000254 -0.000336 -0.000233  0.000204  0.000273 -0.000054
                                -0.000419 -0.000516 -0.000229  0.000005  0.000021  0.000056  0.000134  0.000345  0.000387 -0.000377
                                 0.000125  0.000715  0.000350  0.000006  0.000885 -0.000000  0.006885 -0.000000  0.034984 -0.000000
                                 0.136068 -0.000000  0.327552 -0.000000  0.478627 -0.000000  0.408533 -0.000000 -0.075222  0.000000
                                 0.009940 -0.000000  0.005559 -0.000000  0.000711 -0.000000 -0.076864  0.000000 -0.236022  0.000000
                                 0.207141 -0.000000 -0.007694  0.000000 -0.002017  0.000000 -0.000701  0.000000  0.000866 -0.000000
                                -0.001098  0.000000  0.000788 -0.000000 -0.000185  0.000000 -0.000075  0.000000 -0.000000  0.000052
                                -0.000000  0.000000 -0.000046  0.000000 -0.000000  0.000029 -0.000000  0.000000 -0.000020  0.000000
                                -0.000000  0.000011 -0.000000  0.000000 -0.000004  0.000000 -0.000000 -0.000003 -0.000001  0.000000

   6.1   2   -13.4632 -122.0763 -0.000003 -0.000018 -0.000072 -0.000211 -0.000662 -0.001789 -0.005408 -0.011340 -0.024181 -0.028823
                                 0.051684  0.377124  0.318390 -0.678093 -1.167628  0.348132  0.346226  0.109878  0.055933 -0.005168
                                -0.014740 -0.008666 -0.002512 -0.006159 -0.022923 -0.055945 -0.115969  0.546326  0.598905 -0.075145
                                 0.007815  0.016593  0.004066  0.000043  0.000000  0.000000  0.000003  0.000000  0.000016  0.000000
                                 0.000061  0.000000  0.000153  0.000000  0.000225  0.000000  0.000434  0.000000 -0.000910 -0.000000
                                -0.000914 -0.000000 -0.000010 -0.000000 -0.000004 -0.000000 -0.000046 -0.000000 -0.000687 -0.000000
                                 0.000838  0.000000 -0.000243 -0.000000  0.000037  0.000000  0.000001  0.000000 -0.000010 -0.000000
                                 0.000014  0.000000 -0.000011 -0.000000  0.000003  0.000000  0.000018  0.000001 -0.000000 -0.000024
                                -0.000001  0.000000 -0.000126 -0.000005  0.000000  0.000007 -0.000000 -0.000000  0.000030  0.000001
                                -0.000000  0.000004  0.000000 -0.000000  0.000001  0.000000 -0.000000 -0.000000 -0.000000  0.000000

   7.1   2    -6.2750 -104.0950 -0.000000 -0.000000 -0.000000 -0.000000 -0.000000 -0.000000 -0.000000 -0.000000 -0.000000 -0.000000
                                 0.000000  0.000000  0.000000 -0.000000 -0.000000  0.000000 -0.000000 -0.000000  0.000000 -0.000000
                                -0.000000 -0.000000 -0.000000 -0.000000 -0.000000 -0.000000 -0.000000  0.000000  0.000000 -0.000000
                                 0.000000  0.000000  0.000000  0.000000 -0.000000 -0.000415 -0.000000 -0.003288 -0.000000 -0.016711
                                -0.000000 -0.066962 -0.000000 -0.160746 -0.000000 -0.240228 -0.000000 -0.249951  0.000000  0.900997
                                 0.000000  0.399164  0.000000  0.090008  0.000000  0.008111  0.000000  0.098598  0.000000  0.557279
                                -0.000000 -0.661260  0.000000  0.052353 -0.000000 -0.003958 -0.000000 -0.005903  0.000000  0.005018
                                -0.000000 -0.003175 -0.000000  0.001802  0.000000 -0.000689 -0.000000 -0.000000 -0.000080 -0.000000
                                -0.000000 -0.000141 -0.000000 -0.000000 -0.000225 -0.000000 -0.000000 -0.000035  0.000000 -0.000000
                                -0.000030  0.000000  0.000000 -0.000017 -0.000000 -0.000000 -0.000001  0.000000  0.000000  0.000000

   8.1   2    -6.2644 -104.1736 -0.000000 -0.000000 -0.000000 -0.000001 -0.000002 -0.000005 -0.000015 -0.000030 -0.000065 -0.000077
                                 0.000143  0.001045  0.000913 -0.002237 -0.003661  0.001832 -0.000181 -0.003203  0.000153  0.000280
                                -0.000835 -0.001475 -0.000696 -0.000017 -0.000063 -0.000154 -0.000321  0.001933  0.004131 -0.000275
                                 0.000102  0.001825  0.001061  0.000020 -0.000416  0.000000 -0.003294  0.000000 -0.016742  0.000000
                                -0.067089  0.000000 -0.161043  0.000000 -0.240691  0.000000 -0.250286  0.000000  0.903310 -0.000000
                                 0.399004 -0.000000  0.090029 -0.000000  0.008478 -0.000000  0.098886 -0.000000  0.558602 -0.000000
                                -0.662806  0.000000  0.050572 -0.000000 -0.004161  0.000000 -0.006685  0.000000  0.006577 -0.000000
                                -0.006037  0.000000  0.003799 -0.000000 -0.000826  0.000000 -0.000126  0.000000 -0.000000 -0.000261
                                 0.000001 -0.000000 -0.000677  0.000007 -0.000000 -0.000180  0.000003 -0.000000  0.000157 -0.000004
                                 0.000000  0.000019 -0.000001  0.000000  0.000017  0.000000 -0.000000 -0.000022 -0.000002  0.000000

   9.1   2    -1.9427  -50.9996  0.000001  0.000007  0.000028  0.000082  0.000256  0.000692  0.002089  0.004415  0.009491  0.011598
                                -0.019342 -0.147783 -0.131475  0.309260  0.570945 -0.260995 -0.533507  0.240293  1.290567  0.515013
                                 0.310560  0.183903  0.053811  0.002333  0.008663  0.021110  0.043615 -0.287645 -0.410298 -0.583184
                                -0.130719 -0.350552 -0.086856 -0.000966 -0.000000 -0.000000 -0.000001 -0.000000 -0.000004 -0.000000
                                -0.000015 -0.000000 -0.000034 -0.000000 -0.000098 -0.000000 -0.000562 -0.000000  0.000716  0.000000
                                 0.000039  0.000000 -0.002986 -0.000000  0.004080 -0.000000  0.000103  0.000000  0.000924  0.000000
                                -0.001146 -0.000000  0.001802  0.000000  0.002647  0.000000 -0.000906  0.000000  0.000029 -0.000000
                                -0.000467  0.000000  0.000223 -0.000000 -0.000028  0.000000 -0.000013 -0.000001  0.000000 -0.000067
                                -0.000004  0.000000  0.000047  0.000001 -0.000000 -0.000168 -0.000010  0.000000  0.000611  0.000028
                                -0.000000  0.001238  0.000043 -0.000000  0.000293  0.000028 -0.000000  0.000041 -0.000027  0.000000

  10.1   2    -0.1529  -24.9370  0.000000  0.000001  0.000005  0.000015  0.000046  0.000124  0.000375  0.000794  0.001710  0.002099
                                -0.003455 -0.026609 -0.023873  0.057042  0.105865 -0.051023 -0.117078  0.070328  0.377549  0.262499
                                -0.127780 -0.320536  0.000755  0.000418  0.001551  0.003777  0.007796 -0.053510 -0.083558 -0.179085
                                -0.013103 -0.157705 -0.129252 -0.007689  0.000073  0.000000  0.000576  0.000000  0.002936  0.000000
                                 0.011788  0.000000  0.028391  0.000000  0.041162  0.000000  0.031991  0.000000 -0.159389 -0.000000
                                -0.089106  0.000000 -0.005107  0.000000  0.289212  0.000000 -0.016025 -0.000000 -0.087600 -0.000000
                                 0.097288  0.000000  0.048814 -0.000000  0.198853 -0.000000  0.236635 -0.000000  0.115120  0.000000
                                 0.134592 -0.000000  0.011749  0.000000 -0.014616 -0.000000  0.000005 -0.000002  0.000000 -0.000020
                                 0.000006  0.000000  0.000036 -0.000018 -0.000000 -0.000675  0.000028 -0.000000 -0.002112 -0.000133
                                -0.000000  0.000987  0.000221  0.000000  0.002440 -0.000507 -0.000000  0.002436  0.001217  0.000000

  11.1   +     0.0416   -6.5966 -0.000000 -0.000000 -0.000000 -0.000000 -0.000000 -0.000000 -0.000000 -0.000000 -0.000000 -0.000000
                                 0.000000  0.000000  0.000000 -0.000000 -0.000000  0.000000  0.000000  0.000000 -0.000000 -0.000001
                                -0.000004 -0.000005 -0.000004 -0.000000 -0.000000 -0.000000 -0.000000  0.000000  0.000000 -0.000000
                                 0.000001  0.000007  0.000006  0.000000  0.000000 -0.000021  0.000000 -0.000179  0.000000 -0.000869
                                 0.000000 -0.003657  0.000000 -0.008153  0.000000 -0.020659  0.000000 -0.083266 -0.000000  0.198702
                                -0.000000 -0.030422  0.000000 -0.171596  0.000000 -0.240902 -0.000000  0.024302 -0.000000  0.166396
                                 0.000000 -0.238862  0.000000  0.112148  0.000000  0.078040  0.000000  0.356979  0.000000 -0.866621
                                 0.000000  1.410891  0.000000 -1.822953  0.000000  1.760022  0.000000  0.000000 -0.000006 -0.000000
                                -0.000000  0.000004  0.000000  0.000000 -0.000025 -0.000000 -0.000000  0.000221  0.000000  0.000000
                                 0.000303 -0.000000 -0.000000  0.000278  0.000000  0.000000 -0.001296  0.000000 -0.000000  0.001719

  12.1   +     0.2335  -10.9299  0.000000  0.000000  0.000000  0.000000  0.000001  0.000003  0.000010  0.000012  0.000008 -0.000057
                                -0.000325 -0.001212 -0.000381  0.000619  0.010731  0.033553  0.060065 -0.123156 -0.349457  0.188659
                                 3.238875  4.833694  1.892243  0.000025  0.000103  0.000286  0.000751 -0.013756 -0.059963  0.387937
                                -0.739926 -6.248355 -3.069276 -0.032580 -0.000040  0.000000 -0.000355  0.000000 -0.001622  0.000000
                                -0.007218  0.000000 -0.014665  0.000000 -0.058016  0.000000 -0.324772  0.000000  0.720858 -0.000000
                                -0.188841  0.000000 -0.734863  0.000000 -0.885894  0.000000  0.090309 -0.000000  0.633789 -0.000000
                                -0.930235  0.000000  0.506648 -0.000000  0.471865 -0.000000  1.845885 -0.000000 -4.144656  0.000001
                                 7.679404 -0.000001 -6.013897  0.000001  1.418396 -0.000000 -0.000040 -0.000007  0.000000  0.000136
                                 0.000027 -0.000000 -0.000379 -0.000074  0.000000  0.001205  0.000202 -0.000000 -0.001324 -0.000413
                                -0.000000  0.003396  0.001142 -0.000000 -0.014562 -0.002469  0.000000  0.049622  0.005374 -0.000000

  13.1   0     0.0478  -17.2887 -0.000000 -0.000001 -0.000004 -0.000013 -0.000041 -0.000110 -0.000332 -0.000688 -0.001453 -0.001673
                                 0.003439  0.024369  0.020701 -0.048780 -0.107135 -0.012416 -0.005475  0.148619  0.291351 -0.451890
                                -3.586585 -4.741345 -4.849720 -0.000392 -0.001474 -0.003647 -0.007786  0.067868  0.170089 -0.517095
                                 0.954254  6.267204  6.410336  0.706416  0.000050 -0.000000  0.000397 -0.000000  0.002017 -0.000000
                                 0.008124 -0.000000  0.019467 -0.000000  0.029575 -0.000000  0.033403  0.000000 -0.133595 -0.000000
                                -0.052127  0.000000  0.026386  0.000000  0.214177  0.000000 -0.013981 -0.000000 -0.082025 -0.000000
                                 0.099528  0.000000  0.015194 -0.000000  0.115357 -0.000001  0.070652 -0.000001  0.216978  0.000002
                                -0.116198 -0.000004  0.198934  0.000005 -0.025963 -0.000004  0.000029 -0.000003 -0.000000 -0.000039
                                 0.000013  0.000000  0.000186 -0.000034 -0.000000 -0.000515  0.000067  0.000000  0.000436 -0.000234
                                 0.000000 -0.000887  0.000362  0.000000  0.002667 -0.000840 -0.000000  0.004341  0.000526  0.000000

  14.1   0     0.0744   -5.7483  0.000000  0.000001  0.000002  0.000007  0.000020  0.000056  0.000157  0.000473  0.001289  0.002607
                                 0.002118 -0.003380 -0.013793  0.036730 -0.075896 -0.554129 -1.000769  1.911534  5.503816 -2.169023
                               -33.641321-53.592960-56.935889 -0.000035 -0.000296 -0.001257 -0.005057  0.165355  0.851113 -6.028668
                                 8.771087 62.162816 70.515144  4.525470 -0.000014  0.000000 -0.000115  0.000000 -0.000583  0.000000
                                -0.002346  0.000000 -0.005625  0.000000 -0.008489  0.000000 -0.009176 -0.000000  0.037593 -0.000000
                                 0.015439 -0.000000 -0.006640 -0.000000 -0.059842  0.000000  0.003912 -0.000000  0.022784 -0.000000
                                -0.027380  0.000000 -0.005136  0.000000 -0.034128  0.000000 -0.023454  0.000000 -0.055578 -0.000000
                                 0.003543  0.000001 -0.010046 -0.000001 -0.077223  0.000001 -0.000008 -0.000009  0.000000  0.000000
                                 0.000033  0.000000 -0.000036 -0.000092 -0.000000  0.000063  0.000226 -0.000000 -0.000100 -0.000523
                                -0.000000 -0.000031  0.001149  0.000000  0.000251 -0.002386 -0.000000 -0.003609  0.003144  0.000000

                                   1 2px     1 2px     1 2px     1 2px     1 2px     1 2px     1 2px     1 2px     1 2px     1 2px
                                   1 2px     1 2px     1 2px     1 2px     1 2px     1 2px     1 2px     1 2px     1 2px     1 2px
                                   1 2px     1 2px     1 2px     1 2px     1 2px     1 2px     1 2px     1 2px     1 2px     1 2px
                                   1 2px     1 2px     1 2px     1 2px     1 4f1+    1 4f3+    1 4f1+    1 4f3+    1 4f1+    1 4f3+
                                   1 4f1+    1 4f3+    1 4f1+    1 4f3+    1 4f1+    1 4f3+    1 4f1+    1 4f3+    1 4f1+    1 4f3+


   1.2   2  -268.3425 -777.0228  0.000000  0.000000  0.000001  0.000001  0.000011  0.000023  0.000125  0.000246  0.001625  0.000795
                                 0.008499  0.031201  0.105221  0.279748  0.428827  0.278198  0.040290 -0.011627 -0.036607 -0.013884
                                -0.005897 -0.000926  0.000447 -0.000280  0.000235 -0.000121  0.008653  0.034643  0.019159  0.004612
                                 0.003636 -0.000024 -0.000229  0.000125 -0.000006  0.000000 -0.000001  0.000000  0.000000 -0.000000
                                -0.000001 -0.000000 -0.000000  0.000000 -0.000000  0.000000  0.000001  0.000000  0.000001  0.000000

   2.2   2   -57.6497 -274.0192 -0.000000 -0.000000 -0.000000 -0.000001 -0.000005 -0.000012 -0.000058 -0.000126 -0.000775 -0.000439
                                -0.004115 -0.015685 -0.054285 -0.154930 -0.252073 -0.096020  0.286082  0.388191 -0.069665 -0.003913
                                 0.001304  0.000314 -0.000171  0.000111 -0.000095  0.134719  0.238717  0.172764  0.013713 -0.000498
                                -0.001009  0.000010  0.000093 -0.000051 -0.000002  0.000000 -0.000033 -0.000000 -0.000068 -0.000001
                                -0.000042 -0.000001 -0.000001 -0.000001  0.000003 -0.000000  0.000038  0.000001  0.000021  0.000000

   3.2   2   -10.8917 -116.1046  0.000000  0.000000  0.000000  0.000000  0.000002  0.000006  0.000026  0.000061  0.000359  0.000223
                                 0.001919  0.007451  0.025830  0.075168  0.123589  0.039827 -0.159804 -0.184052  0.489960  0.230461
                                -0.150152 -0.021586  0.010634 -0.006778  0.005789 -0.106522 -0.274267 -0.015960  0.384563  0.188480
                                 0.090365 -0.000616 -0.005696  0.003122 -0.000006 -0.000000 -0.000033 -0.000000 -0.000120  0.000001
                                -0.000103  0.000003 -0.000046 -0.000009  0.000048  0.000001 -0.000183  0.000000 -0.000407 -0.000008

   4.2   2    -1.1518  -45.2913 -0.000000 -0.000000 -0.000000 -0.000000 -0.000001 -0.000002 -0.000009 -0.000022 -0.000126 -0.000080
                                -0.000674 -0.002629 -0.009113 -0.026633 -0.043862 -0.013706  0.056956  0.057542 -0.235020 -0.105717
                                 0.205976  0.369884  0.083906  0.016080 -0.005393  0.041595  0.115304 -0.013524 -0.246672  0.132955
                                 0.377633  0.000799  0.007693 -0.004691 -0.000088 -0.000006 -0.000544 -0.000032 -0.001444 -0.000115
                                -0.002185 -0.000278 -0.003855 -0.000179 -0.007901  0.000341 -0.000159  0.000054  0.000144  0.000137

   5.2   +    -0.9830  -82.0582  0.000000  0.000000  0.000000  0.000000  0.000000  0.000000  0.000000  0.000000  0.000000  0.000000
                                 0.000000  0.000000  0.000002  0.000005  0.000008  0.000002 -0.000019 -0.000023 -0.000011 -0.000122
                                -0.000058  0.000175  0.000129  0.000237 -0.000387 -0.000005 -0.000012  0.000064  0.000174 -0.000133
                                -0.000030  0.000021  0.000702 -0.000646 -0.000023  0.016368 -0.000143  0.099475 -0.000395  0.279065
                                -0.000555  0.408403 -0.000528  0.379779 -0.000365  0.162899 -0.000041  0.017820 -0.000066  0.026372

   6.2   +    -0.9672  -81.9418 -0.000000 -0.000000 -0.000000 -0.000000 -0.000000 -0.000000 -0.000000 -0.000000 -0.000001 -0.000001
                                -0.000007 -0.000026 -0.000091 -0.000266 -0.000437 -0.000139  0.000539  0.000551 -0.002563 -0.001069
                                 0.002788  0.005484 -0.002413 -0.002167  0.000769  0.000432  0.001204 -0.000117 -0.002543  0.001656
                                 0.004658 -0.000062 -0.001424  0.000683  0.016351  0.000025  0.099406  0.000152  0.278597  0.000431
                                 0.406471  0.000650  0.377715  0.000594  0.167108  0.000133  0.018457  0.000014  0.027870  0.000016

   7.2   0     0.0703   -5.9326  0.000000  0.000000  0.000000  0.000000  0.000000  0.000000  0.000000  0.000002  0.000007  0.000010
                                 0.000041  0.000190  0.000616  0.001895  0.002848  0.002749  0.015571  0.022761  0.194544  0.213747
                                 0.548661  0.346324 -0.548380  0.964534 -2.398435 -0.010155 -0.036045 -0.138751 -0.190886 -0.249819
                                -0.594504  3.547018  5.790979 -6.509780  0.000034  0.000005  0.000176  0.000024  0.000763  0.000109
                                 0.002361  0.000339  0.001824  0.000239 -0.002308 -0.000359 -0.000645 -0.000095 -0.001727 -0.000247

   8.2   0     0.0994   -8.8687  0.000000 -0.000000  0.000000  0.000000  0.000000  0.000000  0.000002  0.000002  0.000022  0.000005
                                 0.000112  0.000388  0.001415  0.003980  0.007011 -0.000920 -0.041241 -0.053325 -0.259340 -0.331410
                                -0.979874 -0.740001  0.907851 -1.505265  4.771273  0.005693  0.028733  0.235632  0.391543  0.366497
                                 0.867174 -4.537510-10.097228 11.251983  0.000070  0.000000  0.000358  0.000000  0.001562  0.000003
                                 0.004860  0.000013  0.003763 -0.000002 -0.004851 -0.000041 -0.001333 -0.000005 -0.003576 -0.000011

                                   1 2py     1 2py     1 2py     1 2py     1 2py     1 2py     1 2py     1 2py     1 2py     1 2py
                                   1 2py     1 2py     1 2py     1 2py     1 2py     1 2py     1 2py     1 2py     1 2py     1 2py
                                   1 2py     1 2py     1 2py     1 2py     1 2py     1 2py     1 2py     1 2py     1 2py     1 2py
                                   1 2py     1 2py     1 2py     1 2py     1 4f1-    1 4f3-    1 4f1-    1 4f3-    1 4f1-    1 4f3-
                                   1 4f1-    1 4f3-    1 4f1-    1 4f3-    1 4f1-    1 4f3-    1 4f1-    1 4f3-    1 4f1-    1 4f3-


   1.3   2  -268.3425 -777.0228  0.000000  0.000000  0.000001  0.000001  0.000011  0.000023  0.000125  0.000246  0.001625  0.000795
                                 0.008499  0.031201  0.105221  0.279748  0.428827  0.278198  0.040290 -0.011627 -0.036607 -0.013884
                                -0.005897 -0.000926  0.000447 -0.000280  0.000235 -0.000121  0.008653  0.034643  0.019159  0.004612
                                 0.003636 -0.000024 -0.000229  0.000125 -0.000006 -0.000000 -0.000001 -0.000000  0.000000  0.000000
                                -0.000001  0.000000 -0.000000 -0.000000 -0.000000 -0.000000  0.000001 -0.000000  0.000001 -0.000000

   2.3   2   -57.6497 -274.0192 -0.000000 -0.000000 -0.000000 -0.000001 -0.000005 -0.000012 -0.000058 -0.000126 -0.000775 -0.000439
                                -0.004115 -0.015685 -0.054285 -0.154930 -0.252073 -0.096020  0.286082  0.388191 -0.069665 -0.003913
                                 0.001304  0.000314 -0.000171  0.000111 -0.000095  0.134719  0.238717  0.172764  0.013713 -0.000498
                                -0.001009  0.000010  0.000093 -0.000051 -0.000002 -0.000000 -0.000033  0.000000 -0.000068  0.000001
                                -0.000042  0.000001 -0.000001  0.000001  0.000003  0.000000  0.000038 -0.000001  0.000021 -0.000000

   3.3   2   -10.8917 -116.1046  0.000000  0.000000  0.000000  0.000000  0.000002  0.000006  0.000026  0.000061  0.000359  0.000223
                                 0.001919  0.007451  0.025830  0.075168  0.123589  0.039827 -0.159804 -0.184052  0.489960  0.230461
                                -0.150152 -0.021586  0.010634 -0.006778  0.005789 -0.106522 -0.274267 -0.015960  0.384563  0.188480
                                 0.090365 -0.000616 -0.005696  0.003122 -0.000006  0.000000 -0.000033  0.000000 -0.000120 -0.000001
                                -0.000103 -0.000003 -0.000046  0.000009  0.000048 -0.000001 -0.000183 -0.000000 -0.000407  0.000008

   4.3   2    -1.1518  -45.2913 -0.000000 -0.000000 -0.000000 -0.000000 -0.000001 -0.000002 -0.000009 -0.000022 -0.000126 -0.000080
                                -0.000674 -0.002629 -0.009113 -0.026633 -0.043862 -0.013706  0.056956  0.057542 -0.235020 -0.105717
                                 0.205976  0.369884  0.083906  0.016080 -0.005393  0.041595  0.115304 -0.013524 -0.246672  0.132955
                                 0.377633  0.000799  0.007693 -0.004691 -0.000088  0.000006 -0.000544  0.000032 -0.001444  0.000115
                                -0.002185  0.000278 -0.003855  0.000179 -0.007901 -0.000341 -0.000159 -0.000054  0.000144 -0.000137

   5.3   +    -0.9830  -82.0582 -0.000000 -0.000000 -0.000000 -0.000000 -0.000000 -0.000000 -0.000000 -0.000000 -0.000000 -0.000000
                                -0.000000 -0.000000 -0.000002 -0.000005 -0.000008 -0.000002  0.000019  0.000023  0.000011  0.000122
                                 0.000058 -0.000174 -0.000129 -0.000237  0.000387  0.000005  0.000012 -0.000064 -0.000174  0.000133
                                 0.000030 -0.000021 -0.000702  0.000646  0.000023  0.016368  0.000143  0.099475  0.000395  0.279065
                                 0.000555  0.408403  0.000528  0.379779  0.000365  0.162899  0.000041  0.017820  0.000066  0.026372

   6.3   +    -0.9672  -81.9418 -0.000000 -0.000000 -0.000000 -0.000000 -0.000000 -0.000000 -0.000000 -0.000000 -0.000001 -0.000001
                                -0.000007 -0.000026 -0.000091 -0.000266 -0.000437 -0.000139  0.000539  0.000551 -0.002563 -0.001069
                                 0.002788  0.005484 -0.002413 -0.002167  0.000769  0.000432  0.001204 -0.000117 -0.002543  0.001656
                                 0.004658 -0.000062 -0.001424  0.000683  0.016351 -0.000025  0.099406 -0.000152  0.278597 -0.000431
                                 0.406471 -0.000650  0.377715 -0.000594  0.167108 -0.000133  0.018457 -0.000014  0.027870 -0.000016

   7.3   0     0.0703   -5.9326  0.000000  0.000000  0.000000  0.000000  0.000000  0.000000  0.000000  0.000002  0.000007  0.000010
                                 0.000041  0.000190  0.000616  0.001895  0.002848  0.002749  0.015571  0.022761  0.194544  0.213747
                                 0.548661  0.346324 -0.548381  0.964535 -2.398437 -0.010155 -0.036045 -0.138751 -0.190886 -0.249819
                                -0.594505  3.547020  5.790984 -6.509785  0.000034 -0.000005  0.000176 -0.000024  0.000763 -0.000109
                                 0.002361 -0.000339  0.001824 -0.000239 -0.002308  0.000359 -0.000645  0.000095 -0.001727  0.000247

   8.3   0     0.0994   -8.8687  0.000000 -0.000000  0.000000  0.000000  0.000000  0.000000  0.000002  0.000002  0.000022  0.000005
                                 0.000112  0.000388  0.001415  0.003980  0.007011 -0.000920 -0.041241 -0.053325 -0.259340 -0.331409
                                -0.979873 -0.740001  0.907850 -1.505264  4.771271  0.005693  0.028733  0.235632  0.391543  0.366496
                                 0.867174 -4.537508-10.097223 11.251978  0.000070 -0.000000  0.000358 -0.000000  0.001562 -0.000003
                                 0.004860 -0.000013  0.003763  0.000002 -0.004851  0.000041 -0.001333  0.000005 -0.003576  0.000011

                                   1 3d2-    1 3d2-    1 3d2-    1 3d2-    1 3d2-    1 3d2-    1 3d2-    1 3d2-    1 3d2-    1 3d2-
                                   1 3d2-    1 3d2-    1 3d2-    1 3d2-    1 3d2-    1 3d2-    1 3d2-    1 3d2-    1 3d2-    1 3d2-
                                   1 3d2-    1 5g2-    1 5g4-    1 5g2-    1 5g4-    1 5g2-    1 5g4-    1 5g2-    1 5g4-    1 5g2-
                                   1 5g4-    1 5g2-    1 5g4-    1 5g2-    1 5g4-    1 5g2-    1 5g4-

   1.4   2   -45.9076 -259.7698  0.000885  0.006883  0.034976  0.136034  0.327480  0.478540  0.408577 -0.075116  0.009933  0.005475
                                 0.000606 -0.076768 -0.235944  0.207043 -0.007633 -0.001962 -0.000483  0.000383 -0.000219  0.000103
                                -0.000019 -0.000039 -0.000000  0.000023  0.000000 -0.000019 -0.000000  0.000014  0.000000 -0.000009
                                -0.000000  0.000005  0.000000 -0.000003 -0.000000  0.000001  0.000000

   2.4   2    -6.2748 -104.0920 -0.000415 -0.003288 -0.016709 -0.066958 -0.160736 -0.240215 -0.249952  0.900951  0.399159  0.089992
                                 0.008046  0.098592  0.557259 -0.661249  0.052432 -0.003932 -0.005815  0.004802 -0.002824  0.001352
                                -0.000257 -0.000080 -0.000000 -0.000142 -0.000000 -0.000230 -0.000000 -0.000037 -0.000000 -0.000027
                                 0.000000 -0.000016  0.000000 -0.000001  0.000000  0.000000 -0.000000

   3.4   0     0.0964  -19.8222  0.000066  0.000521  0.002670  0.010665  0.025892  0.034787  0.006322 -0.098459 -0.098088 -0.055990
                                 0.196325 -0.008416 -0.036144  0.023382  0.084169  0.218857  0.331175 -0.100378  0.637608 -0.453559
                                 0.631870  0.000002  0.000000  0.000041 -0.000000 -0.000079  0.000000 -0.000299 -0.000000 -0.001832
                                -0.000000  0.000622 -0.000000 -0.000690 -0.000000  0.003644 -0.000000

   4.4   0     0.1186   -9.8461 -0.000040 -0.000330 -0.001623 -0.006730 -0.015376 -0.033558 -0.111770  0.281131 -0.023262 -0.217832
                                -0.352137  0.033764  0.227389 -0.321414  0.134240  0.065469  0.412900 -1.122379  1.705596 -2.271604
                                 1.823139 -0.000011  0.000000  0.000010 -0.000000 -0.000050  0.000000  0.000420 -0.000000  0.000548
                                 0.000000  0.000735 -0.000000 -0.002365  0.000000  0.002237  0.000000

                                   1 2pz     1 2pz     1 2pz     1 2pz     1 2pz     1 2pz     1 2pz     1 2pz     1 2pz     1 2pz
                                   1 2pz     1 2pz     1 2pz     1 2pz     1 2pz     1 2pz     1 2pz     1 2pz     1 2pz     1 2pz
                                   1 2pz     1 2pz     1 2pz     1 2pz     1 2pz     1 2pz     1 2pz     1 2pz     1 2pz     1 2pz
                                   1 2pz     1 2pz     1 2pz     1 2pz     1 4f0     1 4f2+    1 4f0     1 4f2+    1 4f0     1 4f2+
                                   1 4f0     1 4f2+    1 4f0     1 4f2+    1 4f0     1 4f2+    1 4f0     1 4f2+    1 4f0     1 4f2+


   1.5   2  -268.3399 -777.0204  0.000000  0.000000  0.000001  0.000001  0.000011  0.000023  0.000125  0.000246  0.001625  0.000795
                                 0.008499  0.031201  0.105221  0.279750  0.428826  0.278189  0.040272 -0.011638 -0.036618 -0.013887
                                -0.005899 -0.000926  0.000447 -0.000280  0.000235 -0.000102  0.008669  0.034651  0.019163  0.004614
                                 0.003637 -0.000024 -0.000229  0.000125 -0.000002 -0.000000 -0.000000 -0.000000 -0.000006  0.000000
                                -0.000006 -0.000000  0.000000 -0.000000  0.000001 -0.000000  0.000006  0.000000  0.000004  0.000000

   2.5   2   -57.6409 -274.0127 -0.000000 -0.000000 -0.000000 -0.000001 -0.000005 -0.000012 -0.000058 -0.000126 -0.000775 -0.000439
                                -0.004116 -0.015686 -0.054288 -0.154939 -0.252085 -0.096009  0.286184  0.388118 -0.069618 -0.003930
                                 0.001314  0.000315 -0.000170  0.000112 -0.000093  0.134716  0.238673  0.172756  0.013722 -0.000525
                                -0.001024  0.000010  0.000091 -0.000050 -0.000002 -0.000000 -0.000056 -0.000000 -0.000105 -0.000000
                                -0.000081 -0.000000 -0.000025 -0.000000 -0.000011  0.000000  0.000098  0.000000  0.000042  0.000000

   3.5   2   -10.8769 -116.1196  0.000000  0.000000  0.000000  0.000000  0.000002  0.000006  0.000026  0.000061  0.000359  0.000223
                                 0.001921  0.007456  0.025847  0.075219  0.123671  0.039840 -0.160034 -0.184100  0.490334  0.228097
                                -0.149564 -0.021464  0.010614 -0.006766  0.005756 -0.106564 -0.274433 -0.015679  0.386611  0.187787
                                 0.090302 -0.000613 -0.005661  0.003104 -0.000013 -0.000000 -0.000048 -0.000000 -0.000070 -0.000000
                                 0.000044 -0.000000 -0.000347 -0.000000  0.000173 -0.000000 -0.000227 -0.000000 -0.000856 -0.000000

   4.5   2    -1.1591  -45.4529 -0.000000 -0.000000 -0.000000 -0.000000 -0.000001 -0.000002 -0.000009 -0.000022 -0.000126 -0.000080
                                -0.000677 -0.002640 -0.009150 -0.026740 -0.044037 -0.013762  0.057194  0.057714 -0.236129 -0.104675
                                 0.202337  0.379381  0.077448  0.007008 -0.009530  0.041757  0.115782 -0.013285 -0.249236  0.135599
                                 0.380896  0.000949  0.009747 -0.005181 -0.000029 -0.000000 -0.000065 -0.000000 -0.001256 -0.000000
                                -0.006802 -0.000000 -0.004486 -0.000000  0.010581 -0.000000  0.002597 -0.000000  0.006940 -0.000000

   5.5   +    -0.9744  -82.0398 -0.000000  0.000000 -0.000000  0.000000 -0.000000  0.000000 -0.000000  0.000000 -0.000000  0.000000
                                -0.000000 -0.000000 -0.000000 -0.000000 -0.000000  0.000000  0.000000  0.000000  0.000000 -0.000000
                                 0.000000  0.000000 -0.000000 -0.000000 -0.000000 -0.000000 -0.000000 -0.000000  0.000000 -0.000000
                                 0.000000 -0.000000 -0.000000  0.000000  0.000000  0.016369  0.000000  0.099486  0.000000  0.279043
                                 0.000000  0.408212  0.000000  0.379458  0.000000  0.163456  0.000000  0.017858  0.000000  0.026560

   6.5   +    -0.9647  -81.8959  0.000000  0.000000  0.000000  0.000000  0.000000  0.000000  0.000000  0.000000  0.000002  0.000001
                                 0.000008  0.000032  0.000110  0.000320  0.000529  0.000156 -0.000770 -0.000782  0.002796 -0.000888
                                -0.001273  0.004678  0.001411 -0.000372 -0.004639 -0.000467 -0.001338  0.000508  0.004556 -0.005547
                                -0.002344  0.000295  0.004690 -0.002153  0.016342 -0.000000  0.099365 -0.000000  0.278374 -0.000000
                                 0.405608 -0.000000  0.376904 -0.000000  0.168975 -0.000000  0.018762 -0.000000  0.028512 -0.000000

   7.5   0     0.0759   -5.4546 -0.000000  0.000000 -0.000000  0.000000  0.000000  0.000000  0.000000  0.000002  0.000005  0.000010
                                 0.000028  0.000149  0.000460  0.001472  0.002061  0.003112  0.022893  0.032452  0.248658  0.279891
                                 0.738695  0.484778 -0.735657  1.254107 -3.246673 -0.011834 -0.043251 -0.184746 -0.263898 -0.324581
                                -0.771463  4.198163  7.665758 -8.395012  0.000012  0.000000  0.000054  0.000000  0.000296  0.000000
                                 0.001099  0.000000  0.000801  0.000000 -0.001420 -0.000000 -0.000345 -0.000000 -0.000935 -0.000000

   8.5   0     0.1001   -8.8607  0.000000 -0.000000  0.000000  0.000000  0.000000  0.000000  0.000002  0.000002  0.000019  0.000004
                                 0.000097  0.000331  0.001213  0.003397  0.006024 -0.001045 -0.038060 -0.049418 -0.247281 -0.313738
                                -0.922553 -0.694843  0.857024 -1.510299  4.783603  0.005905  0.028564  0.221532  0.365360  0.348197
                                 0.829703 -4.366302-10.112844 11.181303  0.000024  0.000000  0.000110  0.000000  0.000630  0.000000
                                 0.002418  0.000000  0.001766  0.000000 -0.003197 -0.000000 -0.000776 -0.000000 -0.002109 -0.000000

                                   1 3d1+    1 3d1+    1 3d1+    1 3d1+    1 3d1+    1 3d1+    1 3d1+    1 3d1+    1 3d1+    1 3d1+
                                   1 3d1+    1 3d1+    1 3d1+    1 3d1+    1 3d1+    1 3d1+    1 3d1+    1 3d1+    1 3d1+    1 3d1+
                                   1 3d1+    1 5g1+    1 5g3+    1 5g1+    1 5g3+    1 5g1+    1 5g3+    1 5g1+    1 5g3+    1 5g1+
                                   1 5g3+    1 5g1+    1 5g3+    1 5g1+    1 5g3+    1 5g1+    1 5g3+

   1.6   2   -45.9018 -259.7666  0.000885  0.006884  0.034978  0.136041  0.327494  0.478578  0.408581 -0.075150  0.009929  0.005476
                                 0.000606 -0.076805 -0.235981  0.207078 -0.007635 -0.001961 -0.000483  0.000383 -0.000219  0.000103
                                -0.000019 -0.000065 -0.000000  0.000044  0.000000 -0.000039 -0.000000  0.000025  0.000000 -0.000017
                                -0.000000  0.000010  0.000000 -0.000005 -0.000000  0.000002  0.000000

   2.6   2    -6.2630 -104.0914 -0.000415 -0.003289 -0.016714 -0.066975 -0.160773 -0.240290 -0.250009  0.901437  0.399049  0.090191
                                 0.007996  0.098658  0.557498 -0.661625  0.052054 -0.003876 -0.005871  0.004810 -0.002832  0.001354
                                -0.000257 -0.000114 -0.000000 -0.000229 -0.000000 -0.000546 -0.000004 -0.000137 -0.000002  0.000100
                                 0.000003  0.000008  0.000000  0.000007  0.000000 -0.000001 -0.000000

   3.6   0     0.1000  -14.1807  0.000050  0.000389  0.002011  0.007969  0.019593  0.023005 -0.023021 -0.017268 -0.095185 -0.106894
                                 0.086153  0.001031  0.025642 -0.061399  0.111312  0.215150  0.410098 -0.378877  1.028926 -0.986498
                                 1.091021  0.000007 -0.000003  0.000002  0.000010  0.000016 -0.000027 -0.000330  0.000078 -0.000937
                                -0.000120  0.000107  0.000422  0.000590 -0.000654  0.005010  0.000676

   4.6   0     0.1190  -14.6734 -0.000055 -0.000449 -0.002236 -0.009175 -0.021333 -0.041278 -0.110837  0.298960  0.001052 -0.199799
                                -0.390693  0.035069  0.231172 -0.320086  0.110726  0.012132  0.322422 -1.082611  1.516124 -2.141192
                                 1.601566 -0.000009 -0.000004 -0.000000  0.000016 -0.000025 -0.000046  0.000381  0.000096  0.001033
                                -0.000305 -0.000274  0.000483 -0.000944 -0.001259 -0.004446  0.001700

                                   1 3d1-    1 3d1-    1 3d1-    1 3d1-    1 3d1-    1 3d1-    1 3d1-    1 3d1-    1 3d1-    1 3d1-
                                   1 3d1-    1 3d1-    1 3d1-    1 3d1-    1 3d1-    1 3d1-    1 3d1-    1 3d1-    1 3d1-    1 3d1-
                                   1 3d1-    1 5g1-    1 5g3-    1 5g1-    1 5g3-    1 5g1-    1 5g3-    1 5g1-    1 5g3-    1 5g1-
                                   1 5g3-    1 5g1-    1 5g3-    1 5g1-    1 5g3-    1 5g1-    1 5g3-

   1.7   2   -45.9018 -259.7666  0.000885  0.006884  0.034978  0.136041  0.327494  0.478578  0.408581 -0.075150  0.009929  0.005476
                                 0.000606 -0.076805 -0.235981  0.207078 -0.007635 -0.001961 -0.000483  0.000383 -0.000219  0.000103
                                -0.000019 -0.000065  0.000000  0.000044 -0.000000 -0.000039  0.000000  0.000025 -0.000000 -0.000017
                                 0.000000  0.000010 -0.000000 -0.000005  0.000000  0.000002 -0.000000

   2.7   2    -6.2630 -104.0914 -0.000415 -0.003289 -0.016714 -0.066975 -0.160773 -0.240290 -0.250009  0.901437  0.399049  0.090191
                                 0.007996  0.098658  0.557498 -0.661625  0.052054 -0.003876 -0.005871  0.004810 -0.002832  0.001354
                                -0.000257 -0.000114  0.000000 -0.000229  0.000000 -0.000546  0.000004 -0.000137  0.000002  0.000100
                                -0.000003  0.000008 -0.000000  0.000007 -0.000000 -0.000001  0.000000

   3.7   0     0.1000  -14.1807  0.000050  0.000389  0.002011  0.007969  0.019593  0.023005 -0.023021 -0.017268 -0.095185 -0.106894
                                 0.086153  0.001031  0.025642 -0.061399  0.111312  0.215150  0.410098 -0.378877  1.028926 -0.986498
                                 1.091020  0.000007  0.000003  0.000002 -0.000010  0.000016  0.000027 -0.000330 -0.000078 -0.000937
                                 0.000120  0.000107 -0.000422  0.000590  0.000654  0.005010 -0.000676

   4.7   0     0.1190  -14.6734 -0.000055 -0.000449 -0.002236 -0.009175 -0.021333 -0.041278 -0.110837  0.298960  0.001052 -0.199799
                                -0.390693  0.035069  0.231172 -0.320086  0.110726  0.012132  0.322422 -1.082611  1.516124 -2.141192
                                 1.601567 -0.000009  0.000004 -0.000000 -0.000016 -0.000025  0.000046  0.000381 -0.000096  0.001033
                                 0.000305 -0.000274 -0.000483 -0.000944  0.001259 -0.004446 -0.001700

                                   1 4f2-    1 4f2-    1 4f2-    1 4f2-    1 4f2-    1 4f2-    1 4f2-    1 4f2-

   1.8   +    -0.9743  -82.0489  0.016371  0.099499  0.279088  0.408334  0.379541  0.163162  0.017823  0.026496

   2.8   0     1.5792  -34.9833 -0.008482 -0.042418 -0.195316 -0.636130 -0.433138  1.090964  0.186102  0.500032

   3.8   0     5.3570  -47.6486 -0.012746 -0.121430  0.034890  2.018679  2.311771 -0.725936 -0.965680 -2.808912

 HOMO     12.1     0.233467 =       6.3530eV
 LUMO     13.1     0.047849 =       1.3021eV
 LUMO-HOMO        -0.185618 =      -5.0509eV

 No convergence



 **********************************************************************************************************************************
 DATASETS  * FILE   NREC   LENGTH (MB)   RECORD NAMES
              1      18       20.86       500      610      700      900      950      970     1000      129      960     1100
                                          VAR    BASINP    GEOM    SYMINP    ZMAT    AOBASIS   BASIS     P2S    ABASIS      S
                                         1400     1410     1200     1210     1080     1600     1650     1700
                                           T        V       H0       H01     AOSYM     SMH    MOLCAS    OPER

              2       4        3.42       700     1000      520     4202
                                         GEOM     BASIS   MCVARS     RHF

 PROGRAMS   *        TOTAL       RHF       INT
 CPU TIMES  *       126.86      4.09    122.32
 REAL TIME  *       134.36 SEC
 DISK USED  *         4.96 GB
 SF USED    *         0.09 MB
 GA USED    *         0.00 MB       (max)       0.00 MB       (current)
 **********************************************************************************************************************************
   -->
   <time start="05:44:29" end="05:46:42" cpu="126.86" system="2.8" real="134.36"/>
   <storage units="megabyte" memory="8001.84" sf="0.09" df="303.01" eaf="4655.58" ga="0.0"/>
  </jobstep><!--
  --><jobstep command="POP" commandset="POP">
   <!--


 PROGRAM * POP (Mulliken population analysis)


 Density matrix read from record         4202.2  Type=RHF/CHARGE (state 1.8)

 Population analysis by basis function type

 Unique atom        s        p        d        f        g    Total    Charge
   1  GD     10.69854 23.99951 23.29972  7.00049  0.00174 65.00000  - 1.00000


 **********************************************************************************************************************************
 DATASETS  * FILE   NREC   LENGTH (MB)   RECORD NAMES
              1      18       20.86       500      610      700      900      950      970     1000      129      960     1100
                                          VAR    BASINP    GEOM    SYMINP    ZMAT    AOBASIS   BASIS     P2S    ABASIS      S
                                         1400     1410     1200     1210     1080     1600     1650     1700
                                           T        V       H0       H01     AOSYM     SMH    MOLCAS    OPER

              2       4        3.42       700     1000      520     4202
                                         GEOM     BASIS   MCVARS     RHF

 PROGRAMS   *        TOTAL       POP       RHF       INT
 CPU TIMES  *       126.87      0.01      4.09    122.32
 REAL TIME  *       134.37 SEC
 DISK USED  *         4.96 GB
 SF USED    *         0.09 MB
 GA USED    *         0.00 MB       (max)       0.00 MB       (current)
 **********************************************************************************************************************************
   -->
   <time start="05:46:42" end="05:46:42" cpu="0.01" system="0.0" real="0.01"/>
   <storage units="megabyte" memory="8001.84" sf="0.09" df="303.01" eaf="4655.58" ga="0.0"/>
  </jobstep><!--
  --><jobstep command="MULTI" commandset="MULTI">
   <!--


 PROGRAM * MULTI (Direct Multiconfiguration SCF)       Authors: P.J. Knowles, H.-J. Werner (1984)     S.T. Elbert (1988)


 MAXITER IS LIMITED TO 40

 IF THE CALCULATION DOES NOT CONVERGE IN 40 ITERATIONS, IT IS VERY LIKELY THAT THE ACTIVE SPACE IS UNREASONABLE.

  Hint: In RASSCF calculations single excitations into the weakly occupied orbital space should be eliminated using:

  RESTRICT,-1,-1,orbital list

 ? Error
 ? Illegal input value
 ? The problem occurs in muinp1
   --><error type="Error" location="muinp1" message="Illegal input value"/><!--
  --></jobstep><!--
  -->
  <input>
  <!--
 --></job><!--
--></molpro>
