<?xml version="1.0"?>
<molpro xmlns="http://www.molpro.net/schema/molpro-output"
  xmlns:xsd="http://www.w3.org/1999/XMLSchema"
  xmlns:cml="http://www.xml-cml.org/schema"
  xmlns:stm="http://www.xml-cml.org/schema"
  xmlns:xhtml="http://www.w3.org/1999/xhtml">
 <!--

 Nodes     nprocs
 nid01909    11
 Number of processes for MPI-2 version of Molpro:   nprocs(total)=   12   nprocs(compute)=   11   nprocs(helper)=    1

 Using customized tuning parameters: mindgm=7; mindgv=16; mindgc=1; mindgr=1; noblas=0; minvec=7
 default implementation of scratch files=sf

 --><job>
  <!--

 Variables initialized (889), CPU time= 0.01 sec
 Commands  initialized (702), CPU time= 0.01 sec, 572 directives.
 Default parameters read. Elapsed time= 0.11 sec

 Checking input...
 Passed
1


                                         ***  PROGRAM SYSTEM MOLPRO  ***
                                       Copyright, TTI GmbH Stuttgart, 2015
                                    Version 2015.1 linked Dec 29 2018 15:55:43


 **********************************************************************************************************************************
 LABEL *   Calculation for GdH3 atom, singlet and triplet
  64 bit mpp version                                                                     DATE: 27-Dec-22          TIME: 13:36:47
 **********************************************************************************************************************************

 SHA1:             19cd028119e0e09f93f0674bd8af7968d9b3eff6
 **********************************************************************************************************************************
  -->
  <!--

 THRESHOLDS:

 ZERO    =  1.00D-12  ONEINT  =  1.00D-12  TWOINT  =  1.00D-15  PREFAC  =  1.00D-14  LOCALI  =  1.00D-09  EORDER  =  1.00D-04
 ENERGY  =  0.00D+00  ETEST   =  0.00D+00  EDENS   =  0.00D+00  THRDEDEF=  1.00D-06  GRADIENT=  1.00D-02  STEP    =  1.00D-03
 ORBITAL =  1.00D-05  CIVEC   =  1.00D-05  COEFF   =  1.00D-04  PRINTCI =  5.00D-02  PUNCHCI =  9.90D+01  OPTGRAD =  3.00D-04
 OPTENERG=  1.00D-06  OPTSTEP =  3.00D-04  THRGRAD =  1.00D-10  COMPRESS=  1.00D-11  VARMIN  =  1.00D-07  VARMAX  =  1.00D-03
 THRDOUB =  0.00D+00  THRDIV  =  1.00D-05  THRRED  =  1.00D-07  THRPSP  =  1.00D+00  THRDC   =  1.00D-10  THRCS   =  1.00D-10
 THRNRM  =  1.00D-08  THREQ   =  0.00D+00  THRDE   =  1.00D+00  THRREF  =  1.00D-05  SPARFAC =  1.00D+00  THRDLP  =  1.00D-07
 THRDIA  =  1.00D-10  THRDLS  =  1.00D-07  THRGPS  =  0.00D+00  THRKEX  =  0.00D+00  THRDIS  =  2.00D-01  THRVAR  =  1.00D-10
 THRLOC  =  1.00D-06  THRGAP  =  1.00D-06  THRLOCT = -1.00D+00  THRGAPT = -1.00D+00  THRORB  =  1.00D-06  THRMLTP =  0.00D+00
 THRCPQCI=  1.00D-10  KEXTA   =  0.00D+00  THRCOARS=  0.00D+00  SYMTOL  =  1.00D-06  GRADTOL =  1.00D-06  THROVL  =  1.00D-08
 THRORTH =  1.00D-08  GRID    =  1.00D-06  GRIDMAX =  1.00D-03  DTMAX   =  0.00D+00  THROCCDE=  1.00D-01  THROCCDE=  1.00D-01



 THRESHOLDS:

 ZERO    =  1.00D-12  ONEINT  =  1.00D-12  TWOINT  =  1.00D-15  PREFAC  =  1.00D-14  LOCALI  =  1.00D-09  EORDER  =  1.00D-04
 ENERGY  =  0.00D+00  ETEST   =  0.00D+00  EDENS   =  0.00D+00  THRDEDEF=  1.00D-06  GRADIENT=  1.00D-02  STEP    =  1.00D-03
 ORBITAL =  1.00D-05  CIVEC   =  1.00D-05  COEFF   =  1.00D-04  PRINTCI =  5.00D-02  PUNCHCI =  9.90D+01  OPTGRAD =  3.00D-04
 OPTENERG=  1.00D-06  OPTSTEP =  3.00D-04  THRGRAD =  1.00D-10  COMPRESS=  1.00D-11  VARMIN  =  1.00D-07  VARMAX  =  1.00D-03
 THRDOUB =  0.00D+00  THRDIV  =  1.00D-05  THRRED  =  1.00D-07  THRPSP  =  1.00D+00  THRDC   =  1.00D-10  THRCS   =  1.00D-10
 THRNRM  =  1.00D-08  THREQ   =  0.00D+00  THRDE   =  1.00D+00  THRREF  =  1.00D-05  SPARFAC =  1.00D+00  THRDLP  =  1.00D-07
 THRDIA  =  1.00D-10  THRDLS  =  1.00D-07  THRGPS  =  0.00D+00  THRKEX  =  0.00D+00  THRDIS  =  2.00D-01  THRVAR  =  1.00D-10
 THRLOC  =  1.00D-06  THRGAP  =  1.00D-06  THRLOCT = -1.00D+00  THRGAPT = -1.00D+00  THRORB  =  1.00D-06  THRMLTP =  0.00D+00
 THRCPQCI=  1.00D-10  KEXTA   =  0.00D+00  THRCOARS=  0.00D+00  SYMTOL  =  1.00D-06  GRADTOL =  1.00D-06  THROVL  =  1.00D-15
 THRORTH =  1.00D-08  GRID    =  1.00D-06  GRIDMAX =  1.00D-03  DTMAX   =  0.00D+00  THROCCDE=  1.00D-01  THROCCDE=  1.00D-01



 Variable memory set to 1000000000 words,  buffer space   230000 words

 SETTING BASIS          =    USERDEF
 SETTING GD_CCSD        =      -108.94859710
 SETTING H_CCSD         =        -0.49982987
 SETTING NE             =        19.00000000
 SETTING SYMM           =         4.00000000
 SETTING SS             =         9.00000000
 SETTING A1             =         7.00000000
 SETTING B1             =         3.00000000
 SETTING B2             =         3.00000000
 SETTING A2             =         1.00000000
 ZUNIT=ANG


Geometry recognized as XYZ

  --><jobstep command="RHF-SCF" commandset="SCFPRO">
   <!--


 Recomputing integrals since basis changed


 Using spherical harmonics



 PROGRAM * SEWARD (Integral evaluation for generally contracted gaussian basis sets)     Author: Roland Lindh, 1990

 Geometry written to block  1 of record 700


 Point group  C2v


   --><cml:molecule>
    <cml:symmetry pointGroup="C2v"/>
    <cml:atomArray>
     <cml:atom id="a1" elementType="Gd" x3="0.0" y3="0.0" z3="0.0"/>
     <cml:atom id="a2" elementType="H" x3="0.0" y3="0.0" z3="2.5"/>
    </cml:atomArray>
    <cml:bondArray>
     <cml:bond atomRefs2="a1 a2"/>
    </cml:bondArray>
   </cml:molecule><!--

 ATOMIC COORDINATES

 NR  ATOM    CHARGE       X              Y              Z

   1  GD     18.00    0.000000000    0.000000000    0.000000000
   2  H       1.00    0.000000000    0.000000000    4.724315311

 Bond lengths in Bohr (Angstrom)

 1-2  4.724315311
     ( 2.500000000)

 NUCLEAR CHARGE:                   19
 NUMBER OF PRIMITIVE AOS:         619
 NUMBER OF SYMMETRY AOS:          469
 NUMBER OF CONTRACTIONS:          469   ( 183A1  + 112B1  + 112B2  +  62A2  )
 NUMBER OF CORE ORBITALS:           0   (   0A1  +   0B1  +   0B2  +   0A2  )
 NUMBER OF VALENCE ORBITALS:       18   (   8A1  +   4B1  +   4B2  +   2A2  )


 NUCLEAR REPULSION ENERGY    3.81007592

 EXTRA SYMMETRY OF AOS IN SYMMETRY 1:   1 1 1 1 1 1 1 1 1 1   1 1 1 1 1 1 1 1 1 1   1 1 1 1 1 1 1 1 1 1   1 1 1 1 1 1 1 1 1 1
                                        1 1 1 1 1 1 1 1 1 1   1 1 1 1 1 1 1 1 1 1   1 1 1 2 1 2 1 2 1 2   1 2 1 2 1 2 1 2 1 2
                                        1 2 1 2 1 2 1 2 1 2   1 2 1 2 1 2 1 2 1 2   1 2 1 2 1 2 1 2 1 2   1 2 1 2 1 2 1 2 1 2
                                        1 2 1 2 1 2 1 2 1 2   1 2 1 2 1 3 2 1 3 2   1 3 2 1 3 2 1 3 2 1   3 2 1 3 2 1 3 2 1 3
                                        2 2 3 1 2 3 1 2 3 1   1 1 1 1 1 1 1 1 1 1   2 1 2
 EXTRA SYMMETRY OF AOS IN SYMMETRY 2:   1 1 1 1 1 1 1 1 1 1   1 1 1 1 1 1 1 1 1 1   1 1 1 1 1 1 1 1 1 1   1 1 1 1 1 1 1 1 1 1
                                        1 1 1 1 1 1 1 1 1 1   1 1 1 2 1 2 1 2 1 2   1 2 1 2 1 2 1 2 1 2   1 2 1 2 1 2 1 2 1 2
                                        1 2 1 2 1 2 1 2 1 2   1 2 1 2 1 2 1 2 1 2   3 1 2 3 1 2 3 1 1 1   1 1
 EXTRA SYMMETRY OF AOS IN SYMMETRY 3:   1 1 1 1 1 1 1 1 1 1   1 1 1 1 1 1 1 1 1 1   1 1 1 1 1 1 1 1 1 1   1 1 1 1 1 1 1 1 1 1
                                        1 1 1 1 1 1 1 1 1 1   1 1 1 2 1 2 1 2 1 2   1 2 1 2 1 2 1 2 1 2   1 2 1 2 1 2 1 2 1 2
                                        1 2 1 2 1 2 1 2 1 2   1 2 1 2 1 2 1 2 1 2   3 1 2 3 1 2 3 1 1 1   1 1
 EXTRA SYMMETRY OF AOS IN SYMMETRY 4:   1 1 1 1 1 1 1 1 1 1   1 1 1 1 1 1 1 1 1 1   1 1 1 1 1 1 1 1 1 1   1 1 1 1 1 1 1 2 1 2
                                        1 2 1 2 1 2 1 2 1 2   1 2 1 2 2 1 2 1 2 1   1 1

 Eigenvalues of metric

         1 0.116E-06 0.308E-06 0.614E-06 0.725E-06 0.727E-06 0.741E-06 0.134E-05 0.436E-05
         2 0.616E-06 0.727E-06 0.439E-05 0.139E-04 0.238E-04 0.448E-04 0.885E-04 0.148E-03
         3 0.616E-06 0.727E-06 0.439E-05 0.139E-04 0.238E-04 0.448E-04 0.885E-04 0.148E-03
         4 0.727E-06 0.238E-04 0.149E-03 0.540E-03 0.826E-03 0.926E-03 0.420E-02 0.882E-02


 Contracted 2-electron integrals neglected if value below      1.0D-15
 AO integral compression algorithm  1   Integral accuracy      1.0D-15

     5513.937 MB (compressed) written to integral file ( 47.3%)

     Node minimum: 318.243 MB, node maximum: 741.343 MB


 NUMBER OF SORTED TWO-ELECTRON INTEGRALS:  140249149.     BUFFER LENGTH:  32768
 NUMBER OF SEGMENTS:   5  SEGMENT LENGTH:   31999404      RECORD LENGTH: 524288

 Memory used in sort:      32.56 MW

 SORT1 READ  1457666564. AND WROTE    53690057. INTEGRALS IN    157 RECORDS. CPU TIME:    24.10 SEC, REAL TIME:    33.45 SEC
 SORT2 READ   594661678. AND WROTE  1542818159. INTEGRALS IN  21021 RECORDS. CPU TIME:     3.79 SEC, REAL TIME:     6.67 SEC

 Node minimum:   140147600.  Node maximum:   140434714. integrals

 OPERATOR DM      FOR CENTER  0  COORDINATES:    0.000000    0.000000    0.000000


 **********************************************************************************************************************************
 DATASETS  * FILE   NREC   LENGTH (MB)   RECORD NAMES
              1      19       22.57       500      610      700      900      950      970     1000      129      960     1100
                                          VAR    BASINP    GEOM    SYMINP    ZMAT    AOBASIS   BASIS     P2S    ABASIS      S
                                         1400     1410     1420     1200     1210     1080     1600     1650     1700
                                           T        V       ECP      H0       H01     AOSYM     SMH    MOLCAS    OPER

 PROGRAMS   *        TOTAL       INT
 CPU TIMES  *       113.12    112.83
 REAL TIME  *       127.74 SEC
 DISK USED  *        12.61 GB
 GA USED    *         0.00 MB       (max)       0.00 MB       (current)
 **********************************************************************************************************************************


 PROGRAM * RHF-SCF (OPEN SHELL)       Authors: W. Meyer, H.-J. Werner


 NUMBER OF ELECTRONS:      14+    5-    SPACE SYMMETRY=4    SPIN SYMMETRY: Decet
 CONVERGENCE THRESHOLDS:    1.00E-05 (Density)    1.00E-07 (Energy)
 MAX. NUMBER OF ITERATIONS:      200
 INTERPOLATION TYPE:            DIIS
 INTERPOLATION STEPS:              2 (START)      1 (STEP)
 LEVEL SHIFTS:                 -0.60 (CLOSED) -0.30 (OPEN)

 Number of closed-shell orbitals:    5 (   3   1   1   0 )
 Number of open-shell orbitals:      9 (   4   2   2   1 )


 Guess basis ATOMIC-GUESS,GD=ECP46_GUESS not found. No density guess!


 Molecular orbital dump at record        2100.2

 ITERATION    DDIFF          GRAD             ENERGY        2-EL.EN.            DIPOLE MOMENTS         DIIS   ORB.
    1      0.000D+00      0.000D+00       -75.28307983    337.442774    0.00000    0.00000    4.48581    0    start
    2      0.000D+00      0.168D+00       -23.41534877     18.350879    0.00000    0.00000  -75.79495    0    diag,B
    3      0.752D+01      0.403D-01       -76.38432538    335.124351    0.00000    0.00000    5.03585    1    diag,B
    4      0.752D+01      0.166D+00       -79.79007460    327.910195    0.00000    0.00000    5.01685    2    diag,B
    5      0.580D-01      0.152D+00       -83.95850528    318.226532    0.00000    0.00000    4.99957    3    diag,B
    6      0.643D-01      0.137D+00       -84.06646425    317.974170    0.00000    0.00000    4.99733    4    diag,B
    7      0.591D-02      0.137D+00       -84.34421557    317.271621    0.00000    0.00000    4.98927    5    diag,B
    8      0.209D-01      0.136D+00       -84.34754246    317.265095    0.00000    0.00000    4.98710    6    diag,B
    9      0.294D-02      0.136D+00       -84.50601342    316.861693    0.00000    0.00000    5.03603    7    diag,B
   10      0.111D-01      0.135D+00       -84.64244729    316.521322    0.00000    0.00000    5.02485    8    orth
   11      0.447D-02      0.135D+00       -84.68416928    316.421700    0.00000    0.00000    5.01209    9    diag,B
   12      0.767D-02      0.134D+00       -84.87067761    315.943217    0.00000    0.00000    5.01800    9    diag,B
   13      0.147D-01      0.134D+00       -85.53134853    314.263291    0.00000    0.00000    4.96384    9    diag,B
   14      0.238D-01      0.131D+00       -84.87176934    315.937359    0.00000    0.00000    4.94205    9    diag,B
   15      0.469D-01      0.134D+00       -86.18986363    312.555367    0.00000    0.00000    4.99924    9    diag,B
   16      0.640D-01      0.129D+00       -86.45591324    311.862793    0.00000    0.00000    5.01926    9    diag,B
   17      0.203D-01      0.128D+00       -86.65696078    311.307210    0.00000    0.00000    5.04361    9    diag,B
   18      0.651D-02      0.127D+00       -86.98153966    310.454725    0.00000    0.00000    4.96298    9    diag,B
   19      0.887D-02      0.126D+00       -86.81087355    310.897581    0.00000    0.00000    5.00908    9    diag,B
   20      0.158D-01      0.126D+00       -86.16608892    312.587283    0.00000    0.00000    5.09855    9    orth
   21      0.165D-01      0.129D+00       -85.77896809    313.587367    0.00000    0.00000    5.16804    9    diag,B
   22      0.136D-01      0.130D+00       -85.40051177    314.578780    0.00000    0.00000    5.11179    9    diag,B
   23      0.176D-01      0.132D+00       -85.27464166    314.887253    0.00000    0.00000    5.14052    9    diag,B
   24      0.114D-01      0.132D+00       -85.61175699    314.042556    0.00000    0.00000    5.07109    9    diag,B
   25      0.642D-02      0.131D+00       -85.78728410    313.543254    0.00000    0.00000    5.15990    9    diag,B
   26      0.915D-02      0.130D+00       -85.67234368    313.849603    0.00000    0.00000    5.20257    9    diag,B
   27      0.561D-02      0.131D+00       -85.05509025    315.450609    0.00000    0.00000    5.15594    9    diag,B
   28      0.106D-01      0.133D+00       -85.79989753    313.535781    0.00000    0.00000    5.09219    9    diag,B
   29      0.140D-01      0.130D+00       -85.62156090    314.021351    0.00000    0.00000    5.06310    9    diag,B
   30      0.441D-02      0.131D+00       -85.68400503    313.856455    0.00000    0.00000    5.12430    9    orth
   31      0.112D-01      0.131D+00       -85.15066211    315.210121    0.00000    0.00000    5.13723    9    diag,B
   32      0.780D-02      0.133D+00       -85.30166540    314.831922    0.00000    0.00000    5.11194    9    diag,B
   33      0.429D-02      0.132D+00       -85.93090125    313.219862    0.00000    0.00000    5.04229    9    diag,B
   34      0.124D-01      0.130D+00       -85.46236310    314.369157    0.00000    0.00000    5.18427    9    diag,B
   35      0.140D-01      0.132D+00       -85.25689706    314.938796    0.00000    0.00000    5.16436    9    diag,B
   36      0.544D-02      0.133D+00       -85.05605022    315.451459    0.00000    0.00000    5.14282    9    diag,B
   37      0.412D-02      0.133D+00       -85.49659750    314.343167    0.00000    0.00000    5.06438    9    diag,B
   38      0.854D-02      0.132D+00       -85.93559990    313.148035    0.00000    0.00000    5.11434    9    diag,B
   39      0.966D-02      0.130D+00       -85.17553959    315.131146    0.00000    0.00000    5.18257    9    diag,B
   40      0.130D-01      0.133D+00       -85.11057981    315.316782    0.00000    0.00000    5.13662    9    orth
   41      0.523D-02      0.133D+00       -85.60909246    314.047973    0.00000    0.00000    5.07501    9    diag,B
   42      0.905D-02      0.131D+00       -85.93128781    313.198685    0.00000    0.00000    5.08713    9    diag,B
   43      0.526D-02      0.130D+00       -85.35907177    314.688675    0.00000    0.00000    5.11251    9    diag,B
   44      0.115D-01      0.132D+00       -85.14352124    315.213876    0.00000    0.00000    5.15079    9    diag,B
   45      0.500D-02      0.133D+00       -85.39416378    314.605694    0.00000    0.00000    5.07572    9    diag,B
   46      0.528D-02      0.132D+00       -85.52895170    314.240430    0.00000    0.00000    5.10645    9    diag,B
   47      0.389D-02      0.131D+00       -86.47837605    311.805292    0.00000    0.00000    4.99405    9    diag,B
   48      0.143D-01      0.127D+00       -85.07121030    315.414256    0.00000    0.00000    5.14373    9    diag,B
   49      0.208D-01      0.133D+00       -85.67605695    313.873504    0.00000    0.00000    5.07546    9    diag,B
   50      0.111D-01      0.131D+00       -85.90248022    313.292950    0.00000    0.00000    5.08426    9    orth
   51      0.500D-02      0.130D+00       -85.81479853    313.507027    0.00000    0.00000    5.14724    9    diag,B
   52      0.122D-01      0.130D+00       -85.15037145    315.218228    0.00000    0.00000    5.11396    9    diag,B
   53      0.155D-01      0.133D+00       -85.98889563    313.060631    0.00000    0.00000    5.11161    9    diag,B
   54      0.146D-01      0.130D+00       -85.91749624    313.253738    0.00000    0.00000    5.08957    9    diag,B
   55      0.475D-02      0.130D+00       -85.09805354    315.345561    0.00000    0.00000    5.13875    9    diag,B
   56      0.127D-01      0.133D+00       -85.66369488    313.907651    0.00000    0.00000    5.08042    9    diag,B
   57      0.876D-02      0.131D+00       -85.63399705    313.980677    0.00000    0.00000    5.12381    9    diag,B
   58      0.391D-02      0.131D+00       -85.35204403    314.683946    0.00000    0.00000    5.15320    9    diag,B
   59      0.538D-02      0.132D+00       -85.20944433    315.069418    0.00000    0.00000    5.10716    9    fixocc
   60      0.555D-02      0.133D+00       -85.91284870    313.266773    0.00000    0.00000    5.04588    9    orth
   61      0.127D-01      0.130D+00       -85.76920311    313.630617    0.00000    0.00000    5.13693    9    diag,B
     Orbital  1.3 strongly deviates from fixed occupation: 1.83281  (now: 2.00)
     Orbital  2.3 strongly deviates from fixed occupation: 1.16676  (now: 1.00)
     Note:  Use {hf,nitord=N} to fix occupations at iteration N
            Use {gthresh,occdev=1.0} to suppress deviation warnings
   62      0.814D-02      0.130D+00       -85.48206071    314.366000    0.00000    0.00000    5.13319    9    diag,B
     Orbital  1.3 strongly deviates from fixed occupation: 1.74388  (now: 2.00)
     Orbital  2.3 strongly deviates from fixed occupation: 1.25605  (now: 1.00)
   63      0.600D-02      0.132D+00       -85.23779310    314.993538    0.00000    0.00000    5.11536    9    diag,B
   64      0.551D-02      0.133D+00       -85.63697724    313.959053    0.00000    0.00000    5.11763    9    diag,B
     Orbital  1.3 strongly deviates from fixed occupation: 1.87638  (now: 2.00)
     Orbital  2.3 strongly deviates from fixed occupation: 1.12346  (now: 1.00)
   65      0.730D-02      0.131D+00       -85.96113350    313.139823    0.00000    0.00000    5.07297    9    diag,B
   66      0.545D-02      0.130D+00       -85.58613960    314.098091    0.00000    0.00000    5.09038    9    diag,B
   67      0.816D-02      0.131D+00       -85.36053945    314.665176    0.00000    0.00000    5.13269    9    diag,B
     Orbital  1.3 strongly deviates from fixed occupation: 1.82690  (now: 2.00)
     Orbital  2.3 strongly deviates from fixed occupation: 1.17310  (now: 1.00)
   68      0.523D-02      0.132D+00       -85.34213504    314.729915    0.00000    0.00000    5.11002    9    diag,B
   69      0.565D-02      0.132D+00       -85.59636965    314.081155    0.00000    0.00000    5.06657    9    diag,B
     Orbital  1.3 strongly deviates from fixed occupation: 1.83642  (now: 2.00)
     Orbital  2.3 strongly deviates from fixed occupation: 1.16329  (now: 1.00)
   70      0.801D-02      0.131D+00       -85.56931026    314.126836    0.00000    0.00000    5.11291    9    orth
     Orbital  1.3 strongly deviates from fixed occupation: 1.72918  (now: 2.00)
     Orbital  2.3 strongly deviates from fixed occupation: 1.27070  (now: 1.00)
   71      0.520D-02      0.131D+00       -85.27643864    314.894932    0.00000    0.00000    5.12771    9    diag,B
   72      0.810D-02      0.132D+00       -85.37656225    314.644986    0.00000    0.00000    5.08722    9    diag,B
   73      0.730D-02      0.132D+00       -85.72529996    313.742953    0.00000    0.00000    5.08978    9    diag,B
     Orbital  1.3 strongly deviates from fixed occupation: 1.83601  (now: 2.00)
     Orbital  2.3 strongly deviates from fixed occupation: 1.16380  (now: 1.00)
   74      0.614D-02      0.131D+00       -85.45872880    314.429708    0.00000    0.00000    5.12104    9    diag,B
   75      0.778D-02      0.132D+00       -85.52373701    314.263869    0.00000    0.00000    5.09740    9    diag,B
   76      0.598D-02      0.132D+00       -85.21514414    315.049901    0.00000    0.00000    5.12498    9    diag,B
   77      0.675D-02      0.133D+00       -85.72379964    313.756001    0.00000    0.00000    5.08700    9    diag,B
   78      0.793D-02      0.131D+00       -85.51831079    314.278160    0.00000    0.00000    5.09673    9    diag,B
   79      0.421D-02      0.132D+00       -85.27657437    314.892143    0.00000    0.00000    5.12574    9    diag,B
     Orbital  1.3 strongly deviates from fixed occupation: 1.88444  (now: 2.00)
     Orbital  2.3 strongly deviates from fixed occupation: 1.11546  (now: 1.00)
   80      0.638D-02      0.132D+00       -85.57973589    314.124118    0.00000    0.00000    5.10102    9    orth
   81      0.583D-02      0.131D+00       -85.37616174    314.642894    0.00000    0.00000    5.10288    9    diag,B
   82      0.453D-02      0.132D+00       -85.32685773    314.764631    0.00000    0.00000    5.12004    9    diag,B
     Orbital  1.3 strongly deviates from fixed occupation: 1.87158  (now: 2.00)
     Orbital  2.3 strongly deviates from fixed occupation: 1.12830  (now: 1.00)
   83      0.508D-02      0.132D+00       -85.73537947    313.725232    0.00000    0.00000    5.09388    9    diag,B
   84      0.652D-02      0.131D+00       -85.32198239    314.779970    0.00000    0.00000    5.11161    9    diag,B
   85      0.657D-02      0.132D+00       -85.32448931    314.771218    0.00000    0.00000    5.11788    9    diag,B
   86      0.493D-02      0.132D+00       -85.77882906    313.613331    0.00000    0.00000    5.08754    9    diag,B
   87      0.706D-02      0.130D+00       -85.39196222    314.597717    0.00000    0.00000    5.11548    9    diag,B
   88      0.645D-02      0.132D+00       -85.45387037    314.439097    0.00000    0.00000    5.11471    9    diag,B
   89      0.505D-02      0.132D+00       -85.40988551    314.557200    0.00000    0.00000    5.10886    9    diag,B
   90      0.488D-02      0.132D+00       -85.37753551    314.637825    0.00000    0.00000    5.10660    9    orth
   91      0.510D-02      0.132D+00       -85.41489614    314.540423    0.00000    0.00000    5.11067    9    diag,B
     Orbital  1.3 strongly deviates from fixed occupation: 1.87506  (now: 2.00)
     Orbital  2.3 strongly deviates from fixed occupation: 1.12492  (now: 1.00)
   92      0.492D-02      0.132D+00       -85.57266311    314.141296    0.00000    0.00000    5.10457    9    diag,B
   93      0.516D-02      0.131D+00       -85.31921877    314.786746    0.00000    0.00000    5.11271    9    diag,B
   94      0.528D-02      0.132D+00       -85.33119401    314.754741    0.00000    0.00000    5.11564    9    diag,B
   95      0.493D-02      0.132D+00       -85.75706635    313.669928    0.00000    0.00000    5.08928    9    diag,B
   96      0.667D-02      0.131D+00       -85.36066997    314.679508    0.00000    0.00000    5.11324    9    diag,B
   97      0.645D-02      0.132D+00       -85.35562581    314.692318    0.00000    0.00000    5.11420    9    diag,B
     Orbital  1.3 strongly deviates from fixed occupation: 1.89858  (now: 2.00)
     Orbital  2.3 strongly deviates from fixed occupation: 1.10136  (now: 1.00)
   98      0.503D-02      0.132D+00       -85.58973669    314.098698    0.00000    0.00000    5.09909    9    diag,B
   99      0.508D-02      0.131D+00       -85.33588335    314.744128    0.00000    0.00000    5.11156    9    diag,B
  100      0.510D-02      0.132D+00       -85.34318220    314.724275    0.00000    0.00000    5.11457    9    orth
     Orbital  1.3 strongly deviates from fixed occupation: 1.89484  (now: 2.00)
     Orbital  2.3 strongly deviates from fixed occupation: 1.10506  (now: 1.00)
  101      0.493D-02      0.132D+00       -85.71462917    313.778822    0.00000    0.00000    5.09304    9    diag,B
  102      0.607D-02      0.131D+00       -85.32829892    314.763025    0.00000    0.00000    5.11377    9    diag,B
  103      0.627D-02      0.132D+00       -85.32797919    314.763120    0.00000    0.00000    5.11551    9    diag,B
  104      0.493D-02      0.132D+00       -85.74339293    313.705100    0.00000    0.00000    5.08994    9    diag,B
  105      0.657D-02      0.131D+00       -85.34794639    314.712154    0.00000    0.00000    5.11362    9    diag,B
  106      0.641D-02      0.132D+00       -85.35780248    314.686975    0.00000    0.00000    5.11345    9    diag,B
     Orbital  1.3 strongly deviates from fixed occupation: 1.89604  (now: 2.00)
     Orbital  2.3 strongly deviates from fixed occupation: 1.10389  (now: 1.00)
  107      0.502D-02      0.132D+00       -85.62246083    314.014961    0.00000    0.00000    5.09741    9    diag,B
  108      0.522D-02      0.131D+00       -85.32530053    314.770928    0.00000    0.00000    5.11307    9    diag,B
  109      0.543D-02      0.132D+00       -85.34206654    314.727249    0.00000    0.00000    5.11433    9    diag,B
  110      0.493D-02      0.132D+00       -85.73051626    313.738150    0.00000    0.00000    5.09160    9    orth
  111      0.623D-02      0.131D+00       -85.33127919    314.755105    0.00000    0.00000    5.11420    9    diag,B
  112      0.643D-02      0.132D+00       -85.33669312    314.741049    0.00000    0.00000    5.11430    9    diag,B
  113      0.495D-02      0.132D+00       -85.71158071    313.786801    0.00000    0.00000    5.09200    9    diag,B
  114      0.612D-02      0.131D+00       -85.33409957    314.748006    0.00000    0.00000    5.11373    9    diag,B
  115      0.618D-02      0.132D+00       -85.33671376    314.740975    0.00000    0.00000    5.11444    9    diag,B
  116      0.496D-02      0.132D+00       -85.71110655    313.788000    0.00000    0.00000    5.09217    9    diag,B
  117      0.612D-02      0.131D+00       -85.33256629    314.751939    0.00000    0.00000    5.11376    9    diag,B
  118      0.619D-02      0.132D+00       -85.33690474    314.740488    0.00000    0.00000    5.11447    9    diag,B
  119      0.495D-02      0.132D+00       -85.71601548    313.775405    0.00000    0.00000    5.09191    9    diag,B
  120      0.616D-02      0.131D+00       -85.33213650    314.752981    0.00000    0.00000    5.11390    9    orth
  121      0.625D-02      0.132D+00       -85.33878022    314.735720    0.00000    0.00000    5.11426    9    diag,B
  122      0.496D-02      0.132D+00       -85.71141130    313.787208    0.00000    0.00000    5.09218    9    diag,B
  123      0.610D-02      0.131D+00       -85.33063779    314.756838    0.00000    0.00000    5.11397    9    diag,B
  124      0.622D-02      0.132D+00       -85.33793645    314.737877    0.00000    0.00000    5.11432    9    diag,B
  125      0.495D-02      0.132D+00       -85.71696222    313.772977    0.00000    0.00000    5.09184    9    diag,B
  126      0.616D-02      0.131D+00       -85.33187956    314.753607    0.00000    0.00000    5.11401    9    diag,B
  127      0.627D-02      0.132D+00       -85.33918036    314.734715    0.00000    0.00000    5.11417    9    diag,B
  128      0.496D-02      0.132D+00       -85.70994300    313.790977    0.00000    0.00000    5.09225    9    diag,B
  129      0.608D-02      0.131D+00       -85.33054528    314.757074    0.00000    0.00000    5.11399    9    diag,B
  130      0.620D-02      0.132D+00       -85.33774961    314.738359    0.00000    0.00000    5.11432    9    orth
  131      0.495D-02      0.132D+00       -85.71768296    313.771130    0.00000    0.00000    5.09179    9    diag,B
  132      0.617D-02      0.131D+00       -85.33204115    314.753180    0.00000    0.00000    5.11402    9    diag,B
  133      0.627D-02      0.132D+00       -85.33955610    314.733761    0.00000    0.00000    5.11413    9    diag,B
  134      0.496D-02      0.132D+00       -85.70866929    313.794242    0.00000    0.00000    5.09232    9    diag,B
  135      0.606D-02      0.131D+00       -85.33011206    314.758186    0.00000    0.00000    5.11401    9    diag,B
  136      0.619D-02      0.132D+00       -85.33774098    314.738384    0.00000    0.00000    5.11432    9    diag,B
  137      0.495D-02      0.132D+00       -85.71893180    313.767926    0.00000    0.00000    5.09171    9    diag,B
  138      0.618D-02      0.131D+00       -85.33212328    314.752953    0.00000    0.00000    5.11405    9    diag,B
  139      0.629D-02      0.132D+00       -85.34005101    314.732504    0.00000    0.00000    5.11408    9    diag,B
  140      0.496D-02      0.132D+00       -85.70697632    313.798581    0.00000    0.00000    5.09242    9    orth
  141      0.604D-02      0.131D+00       -85.32970802    314.759227    0.00000    0.00000    5.11402    9    diag,B
  142      0.618D-02      0.132D+00       -85.33757673    314.738804    0.00000    0.00000    5.11434    9    diag,B
  143      0.495D-02      0.132D+00       -85.72040418    313.764149    0.00000    0.00000    5.09162    9    diag,B
  144      0.620D-02      0.131D+00       -85.33241086    314.752199    0.00000    0.00000    5.11407    9    diag,B
  145      0.630D-02      0.132D+00       -85.34056374    314.731199    0.00000    0.00000    5.11403    9    diag,B
  146      0.496D-02      0.132D+00       -85.70472438    313.804354    0.00000    0.00000    5.09256    9    diag,B
  147      0.601D-02      0.131D+00       -85.32928494    314.760322    0.00000    0.00000    5.11403    9    diag,B
  148      0.616D-02      0.132D+00       -85.33734203    314.739401    0.00000    0.00000    5.11437    9    diag,B
  149      0.495D-02      0.132D+00       -85.72219790    313.759547    0.00000    0.00000    5.09152    9    diag,B
  150      0.622D-02      0.131D+00       -85.33279124    314.751206    0.00000    0.00000    5.11408    9    orth
  151      0.632D-02      0.132D+00       -85.34121030    314.729551    0.00000    0.00000    5.11397    9    diag,B
  152      0.497D-02      0.132D+00       -85.70185747    313.811702    0.00000    0.00000    5.09272    9    diag,B
  153      0.598D-02      0.131D+00       -85.32878657    314.761614    0.00000    0.00000    5.11402    9    diag,B
  154      0.613D-02      0.132D+00       -85.33708322    314.740059    0.00000    0.00000    5.11440    9    diag,B
  155      0.495D-02      0.132D+00       -85.72425856    313.754260    0.00000    0.00000    5.09140    9    diag,B
  156      0.624D-02      0.131D+00       -85.33326396    314.749973    0.00000    0.00000    5.11410    9    diag,B
  157      0.634D-02      0.132D+00       -85.34200307    314.727530    0.00000    0.00000    5.11390    9    diag,B
  158      0.497D-02      0.132D+00       -85.69831103    313.820790    0.00000    0.00000    5.09293    9    diag,B
  159      0.594D-02      0.131D+00       -85.32823191    314.763053    0.00000    0.00000    5.11401    9    diag,B
  160      0.610D-02      0.132D+00       -85.33683765    314.740682    0.00000    0.00000    5.11444    9    orth
  161      0.494D-02      0.132D+00       -85.72645055    313.748634    0.00000    0.00000    5.09127    9    diag,B
  162      0.627D-02      0.131D+00       -85.33379235    314.748596    0.00000    0.00000    5.11411    9    diag,B
  163      0.636D-02      0.132D+00       -85.34292308    314.725184    0.00000    0.00000    5.11382    9    diag,B
  164      0.497D-02      0.132D+00       -85.69423831    313.831226    0.00000    0.00000    5.09317    9    diag,B
  165      0.589D-02      0.131D+00       -85.32765383    314.764554    0.00000    0.00000    5.11400    9    diag,B
  166      0.606D-02      0.132D+00       -85.33666019    314.741131    0.00000    0.00000    5.11447    9    diag,B
  167      0.494D-02      0.132D+00       -85.72854299    313.743263    0.00000    0.00000    5.09115    9    diag,B
  168      0.629D-02      0.131D+00       -85.33430531    314.747257    0.00000    0.00000    5.11413    9    diag,B
  169      0.638D-02      0.132D+00       -85.34387375    314.722758    0.00000    0.00000    5.11375    9    diag,B
  170      0.498D-02      0.132D+00       -85.69009067    313.841853    0.00000    0.00000    5.09342    9    orth
  171      0.584D-02      0.131D+00       -85.32712442    314.765929    0.00000    0.00000    5.11399    9    diag,B
  172      0.603D-02      0.132D+00       -85.33658136    314.741328    0.00000    0.00000    5.11450    9    diag,B
  173      0.494D-02      0.132D+00       -85.73026194    313.738850    0.00000    0.00000    5.09106    9    diag,B
  174      0.631D-02      0.131D+00       -85.33471967    314.746174    0.00000    0.00000    5.11415    9    diag,B
  175      0.639D-02      0.132D+00       -85.34468985    314.720675    0.00000    0.00000    5.11368    9    diag,B
  176      0.498D-02      0.132D+00       -85.68655837    313.850903    0.00000    0.00000    5.09362    9    diag,B
  177      0.580D-02      0.131D+00       -85.32672284    314.766973    0.00000    0.00000    5.11398    9    diag,B
  178      0.599D-02      0.132D+00       -85.33658349    314.741320    0.00000    0.00000    5.11451    9    diag,B
  179      0.494D-02      0.132D+00       -85.73143083    313.735848    0.00000    0.00000    5.09100    9    diag,B
  180      0.632D-02      0.131D+00       -85.33498558    314.745479    0.00000    0.00000    5.11417    9    orth
  181      0.640D-02      0.132D+00       -85.34523856    314.719275    0.00000    0.00000    5.11364    9    diag,B
  182      0.498D-02      0.132D+00       -85.68417236    313.857015    0.00000    0.00000    5.09376    9    diag,B
  183      0.578D-02      0.131D+00       -85.32648294    314.767597    0.00000    0.00000    5.11396    9    diag,B
  184      0.597D-02      0.132D+00       -85.33661461    314.741240    0.00000    0.00000    5.11452    9    diag,B
  185      0.494D-02      0.132D+00       -85.73207247    313.734200    0.00000    0.00000    5.09097    9    diag,B
  186      0.633D-02      0.131D+00       -85.33511973    314.745127    0.00000    0.00000    5.11417    9    diag,B
  187      0.641D-02      0.132D+00       -85.34552027    314.718556    0.00000    0.00000    5.11362    9    diag,B
     Orbital  1.3 strongly deviates from fixed occupation: 1.89981  (now: 2.00)
     Orbital  2.3 strongly deviates from fixed occupation: 1.10010  (now: 1.00)
  188      0.498D-02      0.132D+00       -85.68292211    313.860218    0.00000    0.00000    5.09383    9    diag,B
  189      0.576D-02      0.131D+00       -85.32637205    314.767886    0.00000    0.00000    5.11396    9    diag,B
  190      0.596D-02      0.132D+00       -85.33663825    314.741179    0.00000    0.00000    5.11452    9    orth
  191      0.494D-02      0.132D+00       -85.73235689    313.733470    0.00000    0.00000    5.09096    9    diag,B
  192      0.633D-02      0.131D+00       -85.33517441    314.744983    0.00000    0.00000    5.11418    9    diag,B
  193      0.641D-02      0.132D+00       -85.34563359    314.718267    0.00000    0.00000    5.11361    9    diag,B
     Orbital  1.3 strongly deviates from fixed occupation: 1.89973  (now: 2.00)
     Orbital  2.3 strongly deviates from fixed occupation: 1.10018  (now: 1.00)
  194      0.498D-02      0.132D+00       -85.68240369    313.861546    0.00000    0.00000    5.09386    9    diag,B
  195      0.576D-02      0.131D+00       -85.32633089    314.767994    0.00000    0.00000    5.11396    9    diag,B
  196      0.596D-02      0.132D+00       -85.33664921    314.741150    0.00000    0.00000    5.11452    9    diag,B
  197      0.494D-02      0.132D+00       -85.73246166    313.733201    0.00000    0.00000    5.09095    9    diag,B
  198      0.633D-02      0.131D+00       -85.33519307    314.744934    0.00000    0.00000    5.11418    9    diag,B
  199      0.641D-02      0.132D+00       -85.39007224    314.584471    0.00000    0.00000    5.13439    9    orth
     Orbital  1.1 strongly deviates from fixed occupation: 1.55815  (now: 2.00)
     Orbital  2.1 strongly deviates from fixed occupation: 0.83050  (now: 2.00)
     Orbital  3.1 strongly deviates from fixed occupation: 0.69160  (now: 2.00)
     Orbital  4.1 strongly deviates from fixed occupation: 0.34028  (now: 1.00)
     Orbital  5.1 strongly deviates from fixed occupation: 0.35494  (now: 1.00)
     Orbital  6.1 strongly deviates from fixed occupation: 0.55335  (now: 1.00)
     Orbital  7.1 strongly deviates from fixed occupation: 0.40576  (now: 1.00)
     Orbital  1.2 strongly deviates from fixed occupation: 0.64645  (now: 2.00)
     Orbital  2.2 strongly deviates from fixed occupation: 0.63974  (now: 1.00)
     Orbital  3.2 strongly deviates from fixed occupation: 0.56355  (now: 1.00)
     Orbital  1.3 strongly deviates from fixed occupation: 0.64128  (now: 2.00)
     Orbital  2.3 strongly deviates from fixed occupation: 0.57695  (now: 1.00)
     Orbital  3.3 strongly deviates from fixed occupation: 0.63051  (now: 1.00)
     Orbital  1.4 strongly deviates from fixed occupation: 0.42003  (now: 1.00)
  200      0.541D-02      0.132D+00       -66.58963149    163.645466    0.00000    0.00000    5.13088    0    orth

 Final alpha occupancy:   7   3   3   1
 Final beta  occupancy:   3   1   1   0

 !RHF STATE 1.4 Energy                -66.589631485523
   --><property name="Energy" method="RHF" principal="true" stateSymmetry="4" stateNumber="1"
     value="-66.589631485523"/><!--
 Nuclear energy                         3.81007592
 One-electron energy                 -152.22244048
 Two-electron energy                   81.82273306
 Virial quotient                       -0.49824517
 !RHF STATE 1.4 Dipole moment           0.00000000     0.00000000     5.13087634
 Dipole moment /Debye                   0.00000000     0.00000000    13.04053268
   --><property name="Dipole moment" method="RHF" principal="true" stateSymmetry="4"
     stateNumber="1" value="0.0 0.0 5.13087633747745"/><!--

 ELECTRON ORBITALS
 =================


   Orb  Occ    Energy  Couls-En    Coefficients

                                   1 1s      1 1s      1 1s      1 1s      1 1s      1 1s      1 1s      1 1s      1 1s      1 1s
                                   1 1s      1 1s      1 1s      1 1s      1 1s      1 1s      1 1s      1 1s      1 1s      1 1s
                                   1 1s      1 1s      1 1s      1 1s      1 1s      1 1s      1 1s      1 1s      1 1s      1 1s
                                   1 1s      1 1s      1 2pz     1 2pz     1 2pz     1 2pz     1 2pz     1 2pz     1 2pz     1 2pz
                                   1 2pz     1 2pz     1 2pz     1 2pz     1 2pz     1 2pz     1 2pz     1 2pz     1 2pz     1 2pz
                                   1 2pz     1 2pz     1 2pz     1 2pz     1 2pz     1 2pz     1 2pz     1 2pz     1 2pz     1 2pz
                                   1 2pz     1 2pz     1 3d0     1 3d2+    1 3d0     1 3d2+    1 3d0     1 3d2+    1 3d0     1 3d2+
                                   1 3d0     1 3d2+    1 3d0     1 3d2+    1 3d0     1 3d2+    1 3d0     1 3d2+    1 3d0     1 3d2+
                                   1 3d0     1 3d2+    1 3d0     1 3d2+    1 3d0     1 3d2+    1 3d0     1 3d2+    1 3d0     1 3d2+
                                   1 3d0     1 3d2+    1 3d0     1 3d2+    1 3d0     1 3d2+    1 3d0     1 3d2+    1 3d0     1 3d2+
                                   1 3d0     1 3d2+    1 3d0     1 3d2+    1 3d0     1 3d2+    1 4f0     1 4f2+    1 4f0     1 4f2+
                                   1 4f0     1 4f2+    1 4f0     1 4f2+    1 4f0     1 4f2+    1 4f0     1 4f2+    1 4f0     1 4f2+
                                   1 4f0     1 4f2+    1 4f0     1 4f2+    1 4f0     1 4f2+    1 4f0     1 4f2+    1 4f0     1 4f2+
                                   1 4f0     1 4f2+    1 4f0     1 4f2+    1 5g0     1 5g4+    1 5g2+    1 5g0     1 5g4+    1 5g2+
                                   1 5g0     1 5g4+    1 5g2+    1 5g0     1 5g4+    1 5g2+    1 5g0     1 5g4+    1 5g2+    1 5g0
                                   1 5g4+    1 5g2+    1 5g0     1 5g4+    1 5g2+    1 5g0     1 5g4+    1 5g2+    1 5g0     1 5g4+
                                   1 5g2+    1 6h2+    1 6h4+    1 6h0     1 6h2+    1 6h4+    1 6h0     1 6h2+    1 6h4+    1 6h0
                                   2 1s      2 1s      2 1s      2 1s      2 1s      2 1s      2 2pz     2 2pz     2 2pz     2 3d0
                                   2 3d2+    2 3d0     2 3d2+

   1.1   2    -0.0748  -10.4146 -0.000000  0.000000 -0.000002  0.000036  0.000158  0.000490  0.001038  0.002308 -0.000896  0.000725
                                 0.030789  0.433026 -0.082349 -0.154676  0.304219  0.664437  0.060210  0.022227  0.002117 -0.000063
                                -0.000284 -0.000839 -0.002384 -0.066996 -0.532913 -0.098209  0.295038 -0.027844 -0.008613 -0.000997
                                 0.001609 -0.000965  0.000000 -0.000000  0.000000 -0.000000  0.000000 -0.000000  0.000000 -0.000000
                                 0.000000 -0.000001  0.000008  0.000331  0.017587 -0.009827  0.040575  0.028377  0.023932  0.006937
                                -0.008164  0.000002 -0.000063 -0.010692 -0.013719  0.000747  0.009742  0.001592  0.007907 -0.006925
                                 0.000475 -0.000457  0.000000 -0.000000 -0.000000  0.000000  0.000002 -0.000000 -0.000010  0.000000
                                 0.000187 -0.000007  0.001666 -0.000069 -0.002901  0.000171  0.000657  0.000017  0.005556 -0.000119
                                 0.006775  0.000009 -0.000444  0.000017 -0.003146  0.000135  0.004434 -0.000223 -0.003696 -0.000070
                                 0.000409  0.000122  0.007758  0.000017 -0.001096  0.000002 -0.001699  0.000003  0.000455  0.000004
                                -0.000768 -0.000005  0.000356  0.000004 -0.000069 -0.000001 -0.000000 -0.000000  0.000001  0.000002
                                -0.000005 -0.000018  0.000192 -0.000125  0.001013  0.000462  0.001107  0.001296 -0.000093  0.005708
                                -0.000314 -0.000322 -0.001100 -0.001062  0.003418  0.002202  0.000983  0.000684 -0.001168 -0.000259
                                 0.000454  0.000126 -0.000234 -0.000038  0.000002 -0.000025  0.000003  0.000187  0.000001  0.000020
                                -0.000253 -0.000211 -0.000007  0.001034  0.000878 -0.000055  0.001023  0.001118 -0.000134  0.001258
                                -0.000239 -0.000080 -0.000022  0.000067  0.000025 -0.000104 -0.000067 -0.000008  0.000098  0.000025
                                 0.000004 -0.000000 -0.000012 -0.000004 -0.000008 -0.000036 -0.000032 -0.000005  0.000032  0.000139
                                 0.000304  0.003347  0.012817  0.030473  0.019197  0.004463 -0.000795 -0.006890 -0.006696  0.000674
                                 0.000000  0.001920  0.000014

   2.1   2     3.4960   -5.4627 -0.000000  0.000002 -0.000012  0.000222  0.000975  0.003029  0.006401  0.014235 -0.005704  0.020143
                                -0.210899 -0.958170 -1.851681  3.875998 11.518182 -3.621903-16.107517-10.565315 -4.035050 -0.000389
                                -0.001754 -0.005178 -0.014697  0.328541  1.638807-12.781870  7.299248 19.370764  5.985236  0.167476
                                -0.057696  0.012297 -0.000000  0.000001 -0.000002  0.000007 -0.000009  0.000012 -0.000026  0.000076
                                -0.000310  0.002849  0.031183  0.043369  0.295168  0.369993  1.192398  0.799585 -0.692678  0.509719
                                -0.244219 -0.011508 -0.044873 -0.231172 -0.363187 -0.465701 -1.259238  0.093783  0.312940 -0.268831
                                -0.024322  0.004252 -0.000004 -0.000022  0.000022  0.000114 -0.000094 -0.000479  0.000502  0.002557
                                -0.009310 -0.047474 -0.085415 -0.435731  0.180289  0.919890 -0.073197 -0.374922 -0.236483 -1.251710
                                -0.129647 -0.935931  0.022270  0.113571  0.163733  0.835342 -0.248822 -1.269550  0.167740  0.874902
                                 0.199838  1.092025  0.075730  1.126282 -0.059377 -1.018934  0.164270  0.664132 -0.089169 -0.369567
                                 0.016136  0.128322 -0.009012 -0.053063  0.002633  0.014906  0.000008  0.000127 -0.000065 -0.000975
                                 0.000634  0.009469  0.003110  0.041197 -0.014877 -0.241707 -0.004078 -0.078762  0.111641  1.613904
                                 0.013978  0.213292  0.032397  0.498088 -0.141921 -1.859190  0.087718  1.250830 -0.002550 -0.823331
                                 0.007548  0.411055 -0.006320 -0.131095  0.000033 -0.000003  0.000578 -0.000006  0.000002 -0.000858
                                 0.000277 -0.000014  0.005298 -0.000251 -0.000057 -0.007254  0.004011 -0.000359  0.049374 -0.002131
                                 0.000024 -0.012084 -0.013527  0.000021  0.004752  0.029023 -0.000009  0.001595 -0.005695  0.000002
                                 0.001118  0.000017 -0.000067 -0.000008 -0.000252 -0.000099 -0.000057  0.000997 -0.000234  0.000151
                                -0.000138  0.000411 -0.018978  0.031060 -0.168784  0.064027 -0.005793 -0.019120  0.031997 -0.014642
                                 0.002005  0.031134 -0.014145

   3.1   2     3.5233   -4.3243  0.000000 -0.000001  0.000006 -0.000106 -0.000463 -0.001437 -0.003034 -0.006736  0.002691 -0.009505
                                 0.099554  0.443130  0.712640 -1.101595 -0.850989 -0.348550 16.975150 13.504296  7.237450  0.000185
                                 0.000832  0.002455  0.006959 -0.154586 -0.726546  1.770505 -3.454113-24.025616 -9.481507 -0.223401
                                 0.077101 -0.016420  0.000001 -0.000004  0.000018 -0.000054  0.000072 -0.000094  0.000205 -0.000586
                                 0.002400 -0.022062 -0.241559 -0.336171 -2.285946 -2.912327 -9.978327 -7.594159  6.922831 -4.569966
                                 2.579956  0.089126  0.347702  1.790897  2.833426  3.765848 10.991047 -0.917480 -3.227557  2.768932
                                 0.231960 -0.039986  0.000066 -0.000001 -0.000345  0.000006  0.001449 -0.000024 -0.007733  0.000130
                                 0.143496 -0.002420  1.316407 -0.022197 -2.777339  0.046728  1.126087 -0.018825  3.630089 -0.063281
                                 2.008493 -0.046464 -0.343237  0.005788 -2.523306  0.042538  3.833901 -0.064570 -2.579363  0.044136
                                -3.055757  0.054187 -1.273022  0.056769  1.316334 -0.051788 -1.867743  0.033989  1.008782 -0.018918
                                -0.185223  0.006553  0.109598 -0.002704 -0.032484  0.000760 -0.000114  0.000009  0.000880 -0.000073
                                -0.008550  0.000704 -0.036999  0.002780  0.219664 -0.019054  0.073967 -0.006994 -1.534924  0.121506
                                -0.192551  0.016078 -0.451592  0.037855  1.940781 -0.138903 -1.071728  0.093221  0.230767 -0.061354
                                -0.190792  0.030641  0.103029 -0.009775 -0.000562  0.000057  0.000047  0.000796 -0.000182 -0.000070
                                -0.005491  0.000655  0.000434  0.009442 -0.000893 -0.000634 -0.068473  0.004279  0.003724  0.080714
                                -0.008241 -0.001216  0.147165  0.006042  0.000662 -0.287037 -0.002992 -0.000045  0.043030  0.000945
                                 0.000136  0.000010  0.000220 -0.000156  0.000005  0.000136  0.000519  0.000207  0.000479 -0.002506
                                 0.001879 -0.007586  0.255230 -0.288762  0.922889 -0.809516  0.064993  0.305241  0.164786  0.236696
                                 0.000162 -0.539192 -0.001061

   4.1   +     2.9124   -1.5448  0.000009 -0.000057  0.000299 -0.005490 -0.024077 -0.074783 -0.158014 -0.351427  0.140818 -0.496080
                                 5.174694 23.282111 45.539186-95.905461**********100.939135441.951146288.028022106.333189  0.009606
                                 0.043307  0.127827  0.362827 -8.052646-39.852766321.786355****************************** -4.535586
                                 1.560528 -0.332359  0.000002 -0.000009  0.000036 -0.000110  0.000147 -0.000193  0.000417 -0.001193
                                 0.004889 -0.044919 -0.491150 -0.682258 -4.642615 -5.732751-17.096297 -9.483749  7.336752 -6.733034
                                 3.244276  0.181366  0.706357  3.635844  5.673665  6.971836 17.113088 -1.306823 -4.058482  3.464213
                                 0.351074 -0.062516 -0.000010 -0.000001  0.000054  0.000003 -0.000227 -0.000015  0.001213  0.000078
                                -0.022486 -0.001454 -0.205829 -0.013371  0.430647  0.028169 -0.171107 -0.011504 -0.522429 -0.037776
                                -0.260441 -0.031019  0.053763  0.003481  0.393941  0.025633 -0.596359 -0.038917  0.384727  0.026826
                                 0.413458  0.033384  0.177582  0.040636 -0.838229 -0.037872 -0.972666  0.024989  0.622304 -0.013912
                                -0.052311  0.004810  0.032634 -0.001981 -0.009058  0.000556  0.000003  0.000004 -0.000023 -0.000033
                                 0.000191  0.000291 -0.000871 -0.000317 -0.011726 -0.013432 -0.008639 -0.007313  0.039969  0.066271
                                 0.005928  0.008073  0.015628  0.020018 -0.074144 -0.091693 -0.254174  0.064706 -0.430846 -0.043029
                                 0.234344  0.021462 -0.029481 -0.006826  0.000857 -0.000088 -0.000069 -0.003468  0.000345  0.000312
                                 0.009941 -0.001357 -0.000776 -0.027360  0.003045  0.002340  0.078453 -0.007393 -0.006023 -0.237957
                                 0.016094  0.019064  0.172052 -0.012689 -0.014854 -0.292529  0.006433  0.007499  0.112778 -0.002038
                                -0.002292  0.000003  0.000000 -0.000001 -0.000022 -0.000036 -0.000029  0.000049  0.000057  0.000031
                                -0.000719  0.004793 -0.086470 -0.158173  2.912988 -0.510275  0.014688 -0.117360 -1.349258 -0.070116
                                -0.000135  0.283199 -0.000431

   5.1   +     4.9393   -1.2252 -0.000000  0.000002 -0.000009  0.000170  0.000747  0.002319  0.004903  0.010913 -0.004381  0.015667
                                -0.167123 -0.794443 -1.509413  3.155188  8.253746 -1.827852 -6.000848 -3.822222 -1.411129 -0.000298
                                -0.001343 -0.003965 -0.011264  0.262073  1.361456 -9.674018  2.978720  7.008377  2.123206  0.060910
                                -0.021068  0.004503  0.000000 -0.000000  0.000001 -0.000002  0.000003 -0.000003  0.000007 -0.000021
                                 0.000084 -0.000775 -0.008519 -0.011989 -0.085308 -0.105741 -0.318995 -0.090321  0.035614 -0.027929
                                 0.042962  0.003137  0.012299  0.066069  0.106226  0.134587  0.274782 -0.015153 -0.056859  0.038350
                                 0.004001 -0.000703 -0.000000 -0.000011  0.000000  0.000058 -0.000001 -0.000243  0.000005  0.001298
                                -0.000094 -0.024155 -0.000869 -0.222525  0.001967  0.472203 -0.000874 -0.193554 -0.003233 -0.683317
                                 0.005505 -0.270104  0.000225  0.057851  0.001689  0.427596 -0.002657 -0.651736  0.002203  0.474362
                                 0.001552  0.484492 -0.017082  0.273740  0.011569 -0.237929 -0.000043  0.155566 -0.002713 -0.086939
                                -0.000065  0.030351 -0.000158 -0.012616  0.000053  0.003559  0.000001  0.000073 -0.000007 -0.000527
                                 0.000027  0.001406 -0.002103 -0.178904 -0.009734 -0.790489 -0.009897 -0.818465  0.018137  1.116335
                                 0.002756  0.213267  0.009062  0.713730 -0.018884 -0.947205  0.007650  0.580672 -0.002721 -0.379774
                                 0.000346  0.192156 -0.000436 -0.062139 -0.000012  0.000015  0.019957  0.000020 -0.000051 -0.076632
                                -0.000074  0.000137  0.231425  0.000109 -0.000298 -0.629090 -0.000136  0.001385  2.008989 -0.002065
                                -0.001357 -1.791617 -0.001553  0.000812  1.065377  0.002091 -0.000384 -0.500422 -0.001186  0.000122
                                 0.159425  0.000668  0.000038  0.000024 -0.002434  0.000104 -0.000037  0.016334 -0.000059  0.000341
                                -0.000007 -0.000304 -0.002761  0.004768 -0.002639  0.004913  0.007313 -0.011396  0.003575  0.003719
                                -0.017572  0.002090 -0.009091

   6.1   +     5.0265   -2.2020  0.000001 -0.000006  0.000029 -0.000533 -0.002339 -0.007267 -0.015363 -0.034200  0.013731 -0.049125
                                 0.524129  2.490219  4.737998 -9.897181-25.726744  5.681905 18.563492 11.700113  4.615548  0.000933
                                 0.004208  0.012424  0.035298 -0.822015 -4.267240 30.207826 -9.244616-21.611511 -6.684381 -0.182774
                                 0.063341 -0.013548 -0.000000  0.000001 -0.000005  0.000016 -0.000022  0.000028 -0.000062  0.000176
                                -0.000723  0.006658  0.073148  0.102742  0.725505  0.903467  2.683600  0.882726 -0.488971  0.336114
                                -0.459345 -0.026935 -0.105560 -0.563065 -0.902644 -1.145178 -2.335907  0.128768  0.554033 -0.289977
                                -0.034312  0.006044  0.000001  0.000005 -0.000006 -0.000027  0.000026  0.000112 -0.000138 -0.000598
                                 0.002571  0.011133  0.023698  0.102388 -0.050119 -0.216156  0.020318  0.087854  0.069226  0.321284
                                 0.017678  0.123645 -0.006158 -0.026660 -0.045521 -0.196608  0.069274  0.299081 -0.049364 -0.217560
                                -0.045480 -0.220194 -0.010096 -0.129488  0.016433  0.113839 -0.080873 -0.074044  0.065211  0.041025
                                 0.015271 -0.014147 -0.000470  0.005811 -0.000114 -0.001638 -0.000005 -0.000103  0.000036  0.000743
                                -0.000128 -0.002288  0.010726  0.235815  0.049198  1.060068  0.050237  1.090351 -0.076358 -1.568908
                                -0.013904 -0.292683 -0.045597 -0.969381  0.068091  1.344324 -0.035363 -0.822740 -0.001488  0.541395
                                 0.007493 -0.273189  0.007195  0.087949  0.001099 -0.000166  0.015170 -0.004029  0.000622 -0.055426
                                 0.012546 -0.001856  0.173009 -0.033093  0.004922 -0.452863  0.110448 -0.016229  1.477832 -0.099744
                                 0.014600 -1.316513  0.068050 -0.008649  0.777709 -0.042700  0.004095 -0.368947  0.016235 -0.001298
                                 0.116441  0.000282 -0.000063  0.000010 -0.001479 -0.000103 -0.000135  0.011531 -0.000136  0.000735
                                -0.000005  0.001255  0.004632 -0.019632  0.086876 -0.164805 -0.019077  0.022845 -0.033765 -0.003021
                                -0.011838 -0.000407  0.005453

   7.1   +     5.1903   -0.1797 -0.000012  0.000076 -0.000401  0.007361  0.032288  0.100312  0.212067  0.472124 -0.189582  0.678692
                                -7.248350-34.501431-65.562425136.548682348.316483-73.333790********************-54.187486 -0.012880
                                -0.058080 -0.171500 -0.487275 11.372576 59.107141**********118.136184282.354381 83.599558  2.470701
                                -0.854016  0.182504 -0.000002  0.000008 -0.000034  0.000103 -0.000138  0.000180 -0.000391  0.001117
                                -0.004583  0.042188  0.463159  0.648731  4.534195  5.623014 16.541200  7.511346 -5.907604  4.130391
                                -2.515116 -0.170632 -0.667863 -3.528132 -5.608915 -6.982613-15.207443  0.599750  2.700889 -1.276729
                                -0.161377  0.028574  0.000009  0.000001 -0.000049 -0.000003  0.000205  0.000013 -0.001094 -0.000070
                                 0.020376  0.001306  0.188493  0.012126 -0.401195 -0.025842  0.162401  0.010329  0.521139  0.036772
                                 0.841922  0.014524 -0.048840 -0.003136 -0.362474 -0.023357  0.552871  0.035670 -0.372925 -0.024883
                                -0.499188 -0.026063 -1.902176 -0.014228  1.735859  0.012188 -0.529372 -0.007835  0.275363  0.004357
                                 0.132679 -0.001518 -0.019470  0.000630  0.003954 -0.000178  0.000075 -0.000007 -0.000541  0.000048
                                 0.001634 -0.000210 -0.173841  0.012026 -0.784990  0.058626 -0.821007  0.060431  1.356357 -0.085187
                                 0.216056 -0.017486  0.722983 -0.056673 -1.411260  0.070422  0.707616 -0.042835 -0.215127  0.028131
                                 0.111287 -0.014208  0.015321  0.004581  0.008087 -0.000117  0.000281 -0.031905  0.000443 -0.000963
                                 0.095805 -0.001838  0.003213 -0.270182  0.005772 -0.007954  0.922507 -0.014241  0.026216 -0.981917
                                 0.010978 -0.022901  0.429941 -0.006203  0.013365 -0.074786  0.002897 -0.006419  0.015455 -0.000915
                                 0.002002  0.000016  0.000148  0.000856  0.000019 -0.000043 -0.003143  0.000189  0.000026  0.020289
                                -0.000539 -0.010614 -0.169417  0.208958 -0.492708 -0.989198  0.256186 -0.589875  0.323693  0.238132
                                -0.000173  0.192217  0.000365

   8.1   0    -0.3080   -4.6108 -0.000000  0.000000 -0.000000  0.000006  0.000024  0.000076  0.000161  0.000359 -0.000141  0.000117
                                 0.004846  0.072111 -0.005430 -0.038916  0.014556  0.093035  0.236862  0.314561  0.301168 -0.000010
                                -0.000044 -0.000130 -0.000371 -0.010521 -0.093830  0.042278 -0.022685 -0.320777 -0.313862  0.001646
                                -0.000164 -0.000195 -0.000000  0.000000 -0.000000  0.000000 -0.000000  0.000000 -0.000000  0.000000
                                -0.000000  0.000003  0.000018 -0.000164 -0.009185  0.008383 -0.005005 -0.027608  0.001278  0.032666
                                 0.053596 -0.000010  0.000007  0.005690  0.004689 -0.002937 -0.018575 -0.001333 -0.027906  0.053581
                                -0.000446  0.000006  0.000000  0.000000 -0.000000 -0.000000  0.000002  0.000000 -0.000009 -0.000000
                                 0.000176  0.000004  0.001668  0.000039 -0.004553 -0.000094  0.003084  0.000058  0.003136  0.000080
                                -0.011080 -0.000291 -0.000424 -0.000010 -0.003274 -0.000075  0.005550  0.000121 -0.002876 -0.000060
                                -0.012275 -0.000238  0.006907  0.000016  0.013558 -0.000064  0.026096  0.000046 -0.001182 -0.000022
                                 0.014887  0.000008 -0.001767 -0.000003  0.000308  0.000001 -0.000000 -0.000000  0.000000  0.000000
                                -0.000004 -0.000001 -0.000159 -0.000012 -0.000535  0.000028 -0.000925  0.000092 -0.003797  0.000432
                                 0.000036 -0.000025  0.000402 -0.000077  0.002658  0.000226  0.006861  0.000119  0.010589 -0.000024
                                 0.001736  0.000023  0.002844 -0.000007 -0.000002 -0.000002  0.000001  0.000022  0.000001  0.000003
                                -0.000044 -0.000016  0.000002  0.000126  0.000203 -0.000003 -0.000540  0.000238 -0.000072  0.001457
                                 0.000008 -0.000022  0.001918  0.000022  0.000035  0.001317 -0.000009 -0.000007  0.003045  0.000004
                                 0.000010 -0.000000  0.000000  0.000004  0.000002  0.000004 -0.000013  0.000001 -0.000037 -0.000029
                                -0.004207 -0.046155 -0.198522 -0.483899 -0.469328 -0.113436 -0.001795 -0.018073 -0.015543  0.000578
                                 0.000001 -0.001496  0.000059

   9.1   0    -0.0211   -1.9747 -0.000000  0.000000 -0.000000  0.000004  0.000019  0.000060  0.000127  0.000281 -0.000112  0.000334
                                -0.002548 -0.003917 -0.027592  0.049374  0.164934 -0.057286 -1.376690 -1.711643 -6.397155 -0.000008
                                -0.000035 -0.000103 -0.000291  0.003489  0.010941 -0.176518  0.282799  2.613051  4.295560  0.310398
                                 0.264956  0.022967 -0.000000  0.000000 -0.000000  0.000001 -0.000001  0.000001 -0.000002  0.000006
                                -0.000024  0.000220  0.002372  0.002968  0.006959  0.036930  0.050951  0.007812 -0.103985  0.203996
                                 0.246245 -0.000885 -0.003347 -0.007948 -0.017046 -0.030267 -0.088556  0.329845 -0.958051 -1.056504
                                 0.259681  0.051083  0.000000  0.000000 -0.000000 -0.000000  0.000000  0.000000 -0.000001 -0.000000
                                 0.000015  0.000004  0.000173  0.000042 -0.001127 -0.000104  0.001338  0.000046 -0.000924  0.000095
                                -0.010969 -0.000303 -0.000037 -0.000011 -0.000389 -0.000083  0.001016  0.000135  0.000148 -0.000035
                                -0.005877 -0.000232  0.000306 -0.000042  0.044127 -0.000095  0.250908  0.000001 -0.505680 -0.000074
                                -0.280046 -0.000042  0.270800 -0.000025  0.008225 -0.000003  0.000000 -0.000000 -0.000000  0.000000
                                 0.000001 -0.000001 -0.000103 -0.000009 -0.000590  0.000004 -0.001055  0.000036 -0.003443  0.000172
                                 0.000133 -0.000012  0.000677 -0.000030  0.000693  0.000104  0.014865  0.000060  0.083922 -0.000039
                                -0.171575 -0.000033  0.059416 -0.000050 -0.000003 -0.000000  0.000000  0.000008  0.000001  0.000000
                                -0.000032 -0.000003  0.000004  0.000041  0.000075  0.000001 -0.000349  0.000082 -0.000058  0.000462
                                -0.000001 -0.000016  0.001871 -0.000005  0.000009  0.016609 -0.000013 -0.000002 -0.007691 -0.000011
                                -0.000050 -0.000000  0.000001  0.000002  0.000003  0.000010  0.000004  0.000006 -0.000052 -0.000092
                                -0.000852 -0.009255 -0.044235 -0.115878 -0.419312  3.208252  0.002306  0.014413  0.264275  0.000647
                                 0.000001 -0.005213  0.000007

                                   1 2px     1 2px     1 2px     1 2px     1 2px     1 2px     1 2px     1 2px     1 2px     1 2px
                                   1 2px     1 2px     1 2px     1 2px     1 2px     1 2px     1 2px     1 2px     1 2px     1 2px
                                   1 2px     1 2px     1 2px     1 2px     1 2px     1 2px     1 2px     1 2px     1 2px     1 2px
                                   1 3d1+    1 3d1+    1 3d1+    1 3d1+    1 3d1+    1 3d1+    1 3d1+    1 3d1+    1 3d1+    1 3d1+
                                   1 3d1+    1 3d1+    1 3d1+    1 3d1+    1 3d1+    1 3d1+    1 3d1+    1 3d1+    1 3d1+    1 3d1+
                                   1 3d1+    1 3d1+    1 4f1+    1 4f3+    1 4f1+    1 4f3+    1 4f1+    1 4f3+    1 4f1+    1 4f3+
                                   1 4f1+    1 4f3+    1 4f1+    1 4f3+    1 4f1+    1 4f3+    1 4f1+    1 4f3+    1 4f1+    1 4f3+
                                   1 4f1+    1 4f3+    1 4f1+    1 4f3+    1 4f1+    1 4f3+    1 4f1+    1 4f3+    1 4f1+    1 4f3+
                                   1 5g1+    1 5g3+    1 5g1+    1 5g3+    1 5g1+    1 5g3+    1 5g1+    1 5g3+    1 5g1+    1 5g3+
                                   1 5g1+    1 5g3+    1 5g1+    1 5g3+    1 5g1+    1 5g3+    1 5g1+    1 5g3+    1 6h1+    1 6h3+
                                   1 6h5+    1 6h1+    1 6h3+    1 6h5+    1 6h1+    1 6h3+    1 6h5+    2 2px     2 2px     2 2px
                                   2 3d1+    2 3d1+

   1.2   2     5.3393   -2.4058 -0.000000  0.000001 -0.000004  0.000014 -0.000018  0.000024 -0.000051  0.000147 -0.000604  0.005558
                                 0.061063  0.085768  0.604454  0.749692  2.203324  0.750892 -0.449493  0.335488 -0.333100 -0.022486
                                -0.088118 -0.469340 -0.750025 -0.943379 -1.923006  0.104206  0.389479 -0.277730 -0.027269  0.004783
                                 0.000005 -0.000028  0.000118 -0.000633  0.011772  0.108272 -0.228485  0.093331  0.338588  0.120182
                                -0.028189 -0.207862  0.316090 -0.232827 -0.226501 -0.132490  0.149166 -0.107256  0.057361 -0.019421
                                 0.007950 -0.002232 -0.000066 -0.000089  0.000475  0.000643 -0.001472 -0.001951  0.150223  0.205874
                                 0.676580  0.924062  0.696119  0.953639 -0.994153 -1.349871 -0.187453 -0.254338 -0.620002 -0.843991
                                 0.846279  1.153194 -0.493305 -0.704836  0.323407  0.464914 -0.167022 -0.234520  0.054099  0.075531
                                 0.009468  0.008887 -0.034426 -0.032362  0.107850  0.101414 -0.281685 -0.265367  0.922376  0.863939
                                -0.828766 -0.768627  0.508647  0.453677 -0.241264 -0.214220  0.072426  0.067773  0.000092  0.000245
                                 0.000094 -0.001217 -0.000543  0.000151  0.006719  0.005850  0.000532 -0.001416 -0.009917  0.000931
                                -0.006981  0.027162

   2.2   +     3.2016   -5.5662  0.000000 -0.000001  0.000005 -0.000016  0.000021 -0.000027  0.000059 -0.000169  0.000692 -0.006363
                                -0.069651 -0.096911 -0.664405 -0.829781 -2.570618 -1.281901  0.929381 -0.737370  0.655509  0.025704
                                 0.100226  0.519399  0.819222  1.035412  2.525583 -0.231348 -0.840889  0.611256  0.060735 -0.010657
                                -0.000028  0.000147 -0.000616  0.003286 -0.060992 -0.559748  1.180958 -0.479674 -1.594092 -1.148922
                                 0.145907  1.073045 -1.630413  1.117577  1.368930  1.404537 -1.334779  0.792810 -0.480589  0.168884
                                -0.069966  0.019664  0.000126  0.000016 -0.000970 -0.000121  0.009283  0.001229  0.033802  0.007940
                                -0.262658 -0.021046 -0.098265 -0.004176  1.637122  0.173605  0.215776  0.024244  0.509472  0.055488
                                -1.868277 -0.199782  1.215647  0.134351 -0.871979 -0.088930  0.404027  0.044352 -0.128985 -0.014137
                                 0.000786  0.000060 -0.001495 -0.000119  0.007456  0.000595 -0.011860 -0.000917  0.064647  0.004962
                                -0.007667 -0.003948 -0.012735  0.002573 -0.022668 -0.001454 -0.014143  0.000518 -0.000192  0.000064
                                 0.000084 -0.000811  0.000043 -0.000001  0.001901  0.000484 -0.000482  0.009621 -0.049107  0.168149
                                 0.073614 -0.085987

   3.2   +     3.2119   -5.6142  0.000000 -0.000002  0.000006 -0.000019  0.000026 -0.000034  0.000074 -0.000210  0.000862 -0.007924
                                -0.086724 -0.120650 -0.821688 -1.029641 -3.231158 -1.708645  1.202503 -0.885940  0.867727  0.032007
                                 0.124798  0.643418  1.011606  1.290766  3.247215 -0.279279 -1.035821  0.742927  0.073008 -0.012782
                                -0.000005  0.000026 -0.000108  0.000575 -0.010674 -0.098019  0.207245 -0.084539 -0.280502 -0.194268
                                 0.025539  0.187995 -0.285928  0.196165  0.241655  0.228127 -0.209652  0.127453 -0.075600  0.026614
                                -0.011057  0.003111  0.000013 -0.000126 -0.000101  0.000965  0.000902 -0.009279  0.000085 -0.035964
                                -0.038248  0.253872 -0.017306  0.087556  0.202662 -1.637901  0.025123 -0.214022  0.060735 -0.502309
                                -0.231204  1.891033  0.151908 -1.271247 -0.107588  0.841440  0.050000 -0.419679 -0.015938  0.133774
                                 0.000078 -0.000438 -0.000158  0.000669  0.000749 -0.004066 -0.001265  0.005676  0.007052 -0.037520
                                 0.000479  0.015970 -0.001522 -0.008443 -0.002088  0.005854 -0.001887 -0.002408  0.000010 -0.000138
                                -0.000162 -0.000152 -0.000035 -0.000232  0.000122 -0.000164 -0.000140  0.002094 -0.007190  0.018583
                                 0.008032 -0.007938

   4.2   0    -0.0009   -1.6726 -0.000000  0.000000 -0.000000  0.000000 -0.000000  0.000000 -0.000000  0.000001 -0.000005  0.000047
                                 0.000531  0.001027  0.019557 -0.004596  0.037240  0.050760 -0.003973  0.064873 -0.281297 -0.000191
                                -0.000815 -0.012926 -0.014996 -0.006552  0.000046  0.743607  0.589370 -0.665289 -0.338677  0.672289
                                -0.000000  0.000001 -0.000003  0.000017 -0.000305 -0.002776  0.005897 -0.002384 -0.006263 -0.003541
                                 0.000728  0.005308 -0.008085  0.004499  0.006000  0.017076 -0.027125 -0.038342  0.036170  0.243807
                                 0.042110  0.381400 -0.000000 -0.000000  0.000002  0.000000 -0.000014 -0.000001 -0.000052  0.000186
                                 0.000315  0.000838 -0.000232  0.001223 -0.003064  0.001833 -0.000320 -0.000190 -0.000597 -0.000792
                                 0.005037 -0.000021 -0.014097  0.000535 -0.011333 -0.000380  0.024101  0.000267  0.212193 -0.000176
                                 0.000056  0.000001 -0.000218  0.000002  0.000595 -0.000001 -0.001456  0.000008  0.003533  0.000063
                                -0.008243  0.000022  0.019741 -0.000021 -0.052673 -0.000009  0.076146 -0.000059 -0.000000  0.000000
                                -0.000001  0.000005 -0.000025  0.000023  0.000110 -0.000049  0.000129  0.002720  0.017462  0.157363
                                 0.000376  0.002553

   5.2   0     0.0075   -1.2397 -0.000000  0.000000 -0.000001  0.000002 -0.000002  0.000003 -0.000006  0.000017 -0.000069  0.000633
                                 0.006868  0.009167  0.048787  0.084760  0.182944  0.102207 -0.216734  0.333509 -0.979639 -0.002550
                                -0.009793 -0.040774 -0.066075 -0.085444 -0.219631  3.784390  2.810955 -4.208209 -3.599855  2.297233
                                -0.000000  0.000002 -0.000007  0.000038 -0.000699 -0.006322  0.012795 -0.004773 -0.015215 -0.016018
                                 0.001666  0.012027 -0.017946  0.011373  0.011156  0.037180 -0.079931  0.230578 -0.306660  0.131779
                                -0.646258  0.541825  0.000000  0.000000 -0.000000 -0.000000  0.000007  0.000001  0.000142 -0.000186
                                 0.000328 -0.000837  0.000722 -0.001222  0.001932 -0.001831  0.000047  0.000189 -0.000130  0.000790
                                -0.001969  0.000017  0.004706 -0.000543  0.029062  0.000374 -0.064376 -0.000273 -0.132533  0.000159
                                -0.000046 -0.000001  0.000182 -0.000002 -0.000495  0.000000  0.001213 -0.000008 -0.002959 -0.000062
                                 0.006937 -0.000021 -0.016874  0.000017  0.044968  0.000011 -0.065762  0.000046  0.000000 -0.000000
                                 0.000001 -0.000004  0.000025 -0.000023 -0.000111  0.000049 -0.000129 -0.002494 -0.016415 -0.144735
                                -0.000311 -0.002650

                                   1 2py     1 2py     1 2py     1 2py     1 2py     1 2py     1 2py     1 2py     1 2py     1 2py
                                   1 2py     1 2py     1 2py     1 2py     1 2py     1 2py     1 2py     1 2py     1 2py     1 2py
                                   1 2py     1 2py     1 2py     1 2py     1 2py     1 2py     1 2py     1 2py     1 2py     1 2py
                                   1 3d1-    1 3d1-    1 3d1-    1 3d1-    1 3d1-    1 3d1-    1 3d1-    1 3d1-    1 3d1-    1 3d1-
                                   1 3d1-    1 3d1-    1 3d1-    1 3d1-    1 3d1-    1 3d1-    1 3d1-    1 3d1-    1 3d1-    1 3d1-
                                   1 3d1-    1 3d1-    1 4f1-    1 4f3-    1 4f1-    1 4f3-    1 4f1-    1 4f3-    1 4f1-    1 4f3-
                                   1 4f1-    1 4f3-    1 4f1-    1 4f3-    1 4f1-    1 4f3-    1 4f1-    1 4f3-    1 4f1-    1 4f3-
                                   1 4f1-    1 4f3-    1 4f1-    1 4f3-    1 4f1-    1 4f3-    1 4f1-    1 4f3-    1 4f1-    1 4f3-
                                   1 5g1-    1 5g3-    1 5g1-    1 5g3-    1 5g1-    1 5g3-    1 5g1-    1 5g3-    1 5g1-    1 5g3-
                                   1 5g1-    1 5g3-    1 5g1-    1 5g3-    1 5g1-    1 5g3-    1 5g1-    1 5g3-    1 6h1-    1 6h3-
                                   1 6h5-    1 6h1-    1 6h3-    1 6h5-    1 6h1-    1 6h3-    1 6h5-    2 2py     2 2py     2 2py
                                   2 3d1-    2 3d1-

   1.3   2     5.3367   -2.3584  0.000000 -0.000002  0.000007 -0.000021  0.000028 -0.000036  0.000079 -0.000225  0.000924 -0.008508
                                -0.093476 -0.131248 -0.925047 -1.147041 -3.381589 -1.162011  0.687058 -0.495320  0.486683  0.034421
                                 0.134881  0.718269  1.148167  1.440879  2.962585 -0.153394 -0.571169  0.408153  0.040179 -0.007051
                                -0.000005  0.000029 -0.000120  0.000643 -0.011960 -0.110077  0.232719 -0.095329 -0.344287 -0.122479
                                 0.028643  0.211407 -0.321733  0.237507  0.231793  0.133565 -0.148188  0.105956 -0.056574  0.019175
                                -0.007859  0.002206  0.000059 -0.000093 -0.000425  0.000670  0.001325 -0.002026 -0.133971  0.214683
                                -0.603813  0.963149 -0.621047  0.993464  0.889329 -1.409114  0.167396 -0.265077  0.553524 -0.879477
                                -0.757208  1.204197  0.440083 -0.736072 -0.288452  0.485509  0.149341 -0.244899 -0.048391  0.078869
                                -0.008874  0.009776  0.032321 -0.035653 -0.101161  0.111583  0.264650 -0.292306 -0.865740  0.951305
                                 0.777859 -0.846488 -0.477436  0.499712  0.226265 -0.235997 -0.067772  0.074671 -0.000031  0.000254
                                -0.000124  0.001228 -0.000553 -0.000270 -0.006239  0.006395 -0.000503  0.001002  0.010115 -0.001311
                                 0.008463 -0.026152

   2.3   +     3.2004   -5.5530  0.000000 -0.000001  0.000006 -0.000017  0.000023 -0.000030  0.000066 -0.000188  0.000771 -0.007084
                                -0.077540 -0.107888 -0.739389 -0.923805 -2.866135 -1.439512  1.039930 -0.818199  0.735481  0.028615
                                 0.111579  0.578068  0.911700  1.152946  2.823478 -0.256892 -0.935761  0.679233  0.067412 -0.011826
                                -0.000029  0.000149 -0.000625  0.003337 -0.061938 -0.568446  1.199502 -0.487489 -1.619706 -1.166623
                                 0.148170  1.089744 -1.655899  1.135634  1.391643  1.425113 -1.352921  0.804524 -0.487159  0.171188
                                -0.070925  0.019934  0.000126 -0.000012 -0.000970  0.000092  0.009277 -0.000957  0.033471 -0.006926
                                -0.263866  0.013444 -0.098522  0.001546  1.642484 -0.124985  0.216316 -0.017934  0.510696 -0.040647
                                -1.875087  0.143553  1.220524 -0.096497 -0.875149  0.063865  0.405565 -0.031849 -0.129470  0.010151
                                 0.000787 -0.000047 -0.001496  0.000089  0.007463 -0.000471 -0.011753  0.000630  0.064832 -0.003858
                                -0.006859  0.002811 -0.013246 -0.001804 -0.022364  0.001024 -0.014266 -0.000366 -0.000223 -0.000057
                                 0.000025 -0.000853 -0.000107 -0.000066  0.001854 -0.000807 -0.000512  0.009721 -0.049372  0.168153
                                 0.073532 -0.085746

   3.3   +     3.2096   -5.6439  0.000000 -0.000001  0.000006 -0.000018  0.000024 -0.000032  0.000069 -0.000198  0.000812 -0.007460
                                -0.081641 -0.113573 -0.773593 -0.969835 -3.043371 -1.612986  1.135130 -0.835212  0.819781  0.030132
                                 0.117479  0.605744  0.952694  1.215525  3.060318 -0.263294 -0.977051  0.700540  0.068819 -0.012047
                                -0.000004  0.000020 -0.000083  0.000441 -0.008184 -0.075153  0.158827 -0.064585 -0.214542 -0.147508
                                 0.019581  0.144141 -0.219194  0.149780  0.184344  0.171985 -0.157424  0.095837 -0.056819  0.020016
                                -0.008321  0.002342  0.000010  0.000126 -0.000073 -0.000970  0.000631  0.009342 -0.000807  0.037056
                                -0.030165 -0.252193 -0.014081 -0.085977  0.153820  1.638768  0.018692  0.214397  0.045488  0.502658
                                -0.175731 -1.893459  0.115782  1.273226 -0.081725 -0.842781  0.038035  0.420343 -0.012120 -0.133983
                                 0.000054  0.000441 -0.000116 -0.000665  0.000529  0.004080 -0.000798 -0.005693  0.005221  0.037563
                                 0.001439 -0.016139 -0.001792  0.008580 -0.001136 -0.005928 -0.001537  0.002433  0.000090  0.000098
                                -0.000193 -0.000027 -0.000001 -0.000331  0.000132  0.000208 -0.000501  0.001707 -0.005589  0.013616
                                 0.005861 -0.005544

   4.3   0    -0.0009   -1.6831 -0.000000  0.000000 -0.000000  0.000000 -0.000000  0.000000 -0.000000  0.000001 -0.000005  0.000045
                                 0.000510  0.001005  0.019739 -0.005043  0.037230  0.051264 -0.003134  0.064598 -0.279362 -0.000183
                                -0.000786 -0.013004 -0.015045 -0.006260  0.001019  0.737135  0.584736 -0.657171 -0.331964  0.666500
                                -0.000000  0.000001 -0.000003  0.000016 -0.000295 -0.002684  0.005697 -0.002335 -0.005991 -0.003829
                                 0.000704  0.005130 -0.007809  0.004410  0.005757  0.016957 -0.026869 -0.039015  0.037559  0.243620
                                 0.043810  0.378811 -0.000000  0.000000  0.000002 -0.000001 -0.000016  0.000003 -0.000084 -0.000152
                                 0.000246 -0.000795 -0.000321 -0.001187 -0.003132 -0.001832 -0.000326  0.000211 -0.000583  0.000823
                                 0.005038  0.000002 -0.014053 -0.000568 -0.011444  0.000332  0.024701 -0.000300  0.212246  0.000102
                                 0.000056 -0.000001 -0.000219 -0.000001  0.000593 -0.000007 -0.001461 -0.000007  0.003584  0.000041
                                -0.008254  0.000018  0.019799 -0.000028 -0.052796 -0.000004  0.076382 -0.000044 -0.000000 -0.000000
                                -0.000001  0.000004  0.000023  0.000019  0.000111  0.000045  0.000128  0.002737  0.017579  0.158118
                                 0.000377  0.002566

   5.3   0     0.0074   -1.2424 -0.000000  0.000000 -0.000001  0.000002 -0.000002  0.000003 -0.000006  0.000017 -0.000069  0.000632
                                 0.006855  0.009144  0.048350  0.084810  0.182030  0.101134 -0.216516  0.332068 -0.976865 -0.002545
                                -0.009775 -0.040488 -0.065695 -0.085318 -0.219545  3.771880  2.801557 -4.195247 -3.588509  2.294316
                                -0.000000  0.000002 -0.000007  0.000038 -0.000708 -0.006409  0.012984 -0.004818 -0.015471 -0.015714
                                 0.001688  0.012195 -0.018206  0.011450  0.011391  0.037279 -0.080126  0.230579 -0.307267  0.132664
                                -0.646127  0.545464  0.000000 -0.000000 -0.000001  0.000001  0.000008 -0.000003  0.000174  0.000152
                                 0.000401  0.000792  0.000812  0.001182  0.001983  0.001825  0.000050 -0.000209 -0.000150 -0.000818
                                -0.001937  0.000001  0.004567  0.000575  0.029120 -0.000334 -0.064880  0.000313 -0.131126 -0.000112
                                -0.000046  0.000001  0.000181  0.000001 -0.000490  0.000007  0.001208  0.000007 -0.002986 -0.000041
                                 0.006895 -0.000016 -0.016808  0.000027  0.044757  0.000006 -0.065513  0.000038  0.000000  0.000000
                                 0.000001 -0.000004 -0.000023 -0.000019 -0.000112 -0.000044 -0.000127 -0.002494 -0.016431 -0.144547
                                -0.000309 -0.002645

                                   1 3d2-    1 3d2-    1 3d2-    1 3d2-    1 3d2-    1 3d2-    1 3d2-    1 3d2-    1 3d2-    1 3d2-
                                   1 3d2-    1 3d2-    1 3d2-    1 3d2-    1 3d2-    1 3d2-    1 3d2-    1 3d2-    1 3d2-    1 3d2-
                                   1 3d2-    1 3d2-    1 4f2-    1 4f2-    1 4f2-    1 4f2-    1 4f2-    1 4f2-    1 4f2-    1 4f2-
                                   1 4f2-    1 4f2-    1 4f2-    1 4f2-    1 4f2-    1 4f2-    1 5g2-    1 5g4-    1 5g2-    1 5g4-
                                   1 5g2-    1 5g4-    1 5g2-    1 5g4-    1 5g2-    1 5g4-    1 5g2-    1 5g4-    1 5g2-    1 5g4-
                                   1 5g2-    1 5g4-    1 5g2-    1 5g4-    1 6h4-    1 6h2-    1 6h4-    1 6h2-    1 6h4-    1 6h2-
                                   2 3d2-    2 3d2-

   1.4   +     5.0865   -3.5424  0.000006 -0.000032  0.000134 -0.000716  0.013329  0.122527 -0.258614  0.105710  0.388496  0.141627
                                -0.031917 -0.235245  0.357833 -0.265199 -0.256804 -0.149828  0.132680 -0.087361  0.048555 -0.016758
                                 0.006891 -0.001942 -0.000123  0.000888 -0.002762  0.280556  1.265121  1.313166 -1.799254 -0.347602
                                -1.157467  1.529241 -0.934835  0.614634 -0.310424  0.100048  0.008536 -0.000033 -0.030065  0.000119
                                 0.096295 -0.000348 -0.245067  0.000767  0.812643 -0.003109 -0.722939  0.002908  0.425089 -0.001717
                                -0.203125  0.000810  0.063687 -0.000256 -0.000069  0.000304 -0.000161 -0.000478 -0.000053  0.006078
                                -0.006177  0.007741

   2.4   0     0.0119   -0.8238  0.000001 -0.000004  0.000018 -0.000097  0.001781  0.016150 -0.033183  0.012710  0.038204  0.034885
                                -0.004247 -0.030772  0.046209 -0.028217 -0.030537 -0.096477  0.190367 -0.360157  0.497883 -0.684888
                                 1.165701 -1.633990  0.000000 -0.000001  0.000009 -0.000112 -0.000802 -0.000610  0.001417  0.000342
                                 0.000909 -0.003796  0.011398 -0.028696  0.057496 -0.104045 -0.000007  0.000000  0.000028 -0.000000
                                -0.000078  0.000000  0.000191 -0.000000 -0.000449  0.000000  0.001032 -0.000000 -0.002328  0.000001
                                 0.005169 -0.000001 -0.010155  0.000004 -0.000000  0.000000  0.000000 -0.000000 -0.000000  0.000000
                                 0.000017 -0.000745

   3.4   0     0.0326   -1.1957 -0.000002  0.000009 -0.000037  0.000196 -0.003611 -0.032749  0.067273 -0.025773 -0.077731 -0.071299
                                 0.008613  0.062401 -0.093696  0.057381  0.062097  0.196036 -0.385968  0.748325 -1.044420  1.539199
                                -2.839911  1.432952  0.000001 -0.000004  0.000028 -0.000344 -0.002462 -0.001879  0.004346  0.001047
                                 0.002784 -0.011781  0.035980 -0.091114  0.187855 -0.429055 -0.000035  0.000000  0.000136 -0.000000
                                -0.000375  0.000000  0.000925 -0.000000 -0.002181  0.000001  0.005029 -0.000001 -0.011401  0.000005
                                 0.025819 -0.000005 -0.052703  0.000022 -0.000000  0.000000  0.000000 -0.000000 -0.000000  0.000001
                                 0.000221 -0.004455

 HOMO      7.1     5.190338 =     141.2363eV
 LUMO      8.1    -0.307993 =      -8.3809eV
 LUMO-HOMO        -5.498331 =    -149.6172eV

 No convergence



 **********************************************************************************************************************************
 DATASETS  * FILE   NREC   LENGTH (MB)   RECORD NAMES
              1      19       22.63       500      610      700      900      950      970     1000      129      960     1100
                                          VAR    BASINP    GEOM    SYMINP    ZMAT    AOBASIS   BASIS     P2S    ABASIS      S
                                         1400     1410     1420     1200     1210     1080     1600     1650     1700
                                           T        V       ECP      H0       H01     AOSYM     SMH    MOLCAS    OPER

              2       4        4.60       700     1000      520     2100
                                         GEOM     BASIS   MCVARS     RHF

 PROGRAMS   *        TOTAL       RHF       INT
 CPU TIMES  *       246.24    133.11    112.83
 REAL TIME  *       271.51 SEC
 DISK USED  *        13.01 GB
 SF USED    *         0.25 MB
 GA USED    *         0.00 MB       (max)       0.00 MB       (current)
 **********************************************************************************************************************************
   -->
   <time start="13:36:47" end="13:41:18" cpu="246.24" system="21.1" real="271.51"/>
   <storage units="megabyte" memory="8001.84" sf="0.25" df="400.41" eaf="12605.55" ga="0.0"/>
  </jobstep><!--
 SETTING SCF            =       -66.58963149  AU
 SETTING _CC_NORM_MAX   =         2.00000000
  --><jobstep command="RCCSD(T)" commandset="CCSD">
   <!--


 PROGRAM * CCSD (Restricted open-shell coupled cluster)     Authors: C. Hampel, H.-J. Werner, 1991, M. Deegan, P.J. Knowles, 1992


 Convergence thresholds:  THRVAR = 1.00D-08  THRDEN = 1.00D-06

 CCSD(T)     terms to be evaluated (factor= 1.000)


 Number of closed-shell orbitals:   5 (   3   1   1   0 )
 Number of active  orbitals:        9 (   4   2   2   1 )
 Number of external orbitals:     455 ( 176 109 109  61 )

 Memory could be reduced to 526.37 Mwords without degradation in triples

 Number of N-1 electron functions:              19
 Number of N-2 electron functions:             171
 Number of singly external CSFs:              2750
 Number of doubly external CSFs:           6649251
 Total number of CSFs:                     6652001

 Molecular orbitals read from record     2100.2  Type=RHF/CANONICAL (state 1.4)

 ?Error: RHF not converged. This error exit can be avoided using the IGNORE_ERROR option on the ORBITAL directive
   --><error/><!--
  --></jobstep><!--
  -->
  <input>
  <!--
 --></job><!--
--></molpro>
