
 Primary working directories    : /global/cscratch1/sd/haihan
 Secondary working directories  : /global/cscratch1/sd/haihan
 Wavefunction directory         : /global/homes/h/haihan/wfu/
 Main file repository           : /global/cscratch1/sd/haihan/

 SHA1      : 19cd028119e0e09f93f0674bd8af7968d9b3eff6
 NAME      : 2015.1.36
 ARCHNAME  : linux/x86_64
 FC        : /opt/cray/pe/craype/2.5.14/bin/ftn
 BLASLIB   : -L/opt/intel/compilers_and_libraries_2018.1.163/linux/mkl/lib/intel64 -Wl,-_start-group -lmkl_intel_ilp64 -lmkl_intel_thread -lmkl_core -Wl,-_end-group -liomp5
 id        : lbl

 Nodes     nprocs
 nid00778    11
 Number of processes for MPI-2 version of Molpro:   nprocs(total)=   12   nprocs(compute)=   11   nprocs(helper)=    1

 Using customized tuning parameters: mindgm=7; mindgv=16; mindgc=1; mindgr=1; noblas=0; minvec=7
 default implementation of scratch files=sf  

 ***,Calculation for all-electron YH molecule, SCF and CCSD(T)
 memory,1,g
 gthresh,twoint=1.0E-12
 gthresh,throvl=1.0E-12
 
 set,dkroll=1,dkho=10,dkhp=4
 basis={
 Including file /global/u2/h/haihan/Research/ECP/f_group_element_ecps/Y/Molpro/molecule/YO/UC/r_1.70/../generate/Y-aug-cc-pwCVTZ.basis
 Including file /global/u2/h/haihan/Research/ECP/f_group_element_ecps/Y/Molpro/molecule/YO/UC/r_1.70/../generate/O-aug-cc-pwCVTZ.basis
 }
 
 Y_ccsd=-3383.299108
 O_ccsd=-75.03694110
 
                                                                                 !These are the wf cards parameters
 ne = 47
 symm = 1
 ss= 1
 
                                                                                 !There are irrep cards paramters
 A1=13
 B1=5
 B2=5
 A2=1
 
 
 geometry={
     2
     YO molecule
     Y 0.0 0.0 0.0
     O 0.0 0.0 1.70
 }
 {rhf,nitord=20;
  maxit,200;
  wf,ne,symm,ss
  occ,A1,B1,B2,A2
  closed,A1-1,B1,B2,A2
  print,orbitals=2
 }
 scf=energy
 _CC_NORM_MAX=2.0
 {rccsd(t);maxit,100;core,8,3,3,1}
 ccsd=energy
 bind=ccsd-Y_ccsd-O_ccsd
 
 
 table,1.70,scf,ccsd,bind
 save
 type,csv
 

 Variables initialized (889), CPU time= 0.01 sec
 Commands  initialized (702), CPU time= 0.01 sec, 572 directives.
 Default parameters read. Elapsed time= 0.14 sec

 Checking input...
 Passed
1


                                         ***  PROGRAM SYSTEM MOLPRO  ***
                                       Copyright, TTI GmbH Stuttgart, 2015
                                    Version 2015.1 linked Dec 29 2018 15:55:43


 **********************************************************************************************************************************
 LABEL *   Calculation for all-electron YH molecule, SCF and CCSD(T)                     
  64 bit mpp version                                                                     DATE: 09-Sep-22          TIME: 07:06:45  
 **********************************************************************************************************************************

 SHA1:             19cd028119e0e09f93f0674bd8af7968d9b3eff6
 **********************************************************************************************************************************

 THRESHOLDS:

 ZERO    =  1.00D-12  ONEINT  =  1.00D-12  TWOINT  =  1.00D-12  PREFAC  =  1.00D-14  LOCALI  =  1.00D-09  EORDER  =  1.00D-04
 ENERGY  =  0.00D+00  ETEST   =  0.00D+00  EDENS   =  0.00D+00  THRDEDEF=  1.00D-06  GRADIENT=  1.00D-02  STEP    =  1.00D-03
 ORBITAL =  1.00D-05  CIVEC   =  1.00D-05  COEFF   =  1.00D-04  PRINTCI =  5.00D-02  PUNCHCI =  9.90D+01  OPTGRAD =  3.00D-04
 OPTENERG=  1.00D-06  OPTSTEP =  3.00D-04  THRGRAD =  1.00D-10  COMPRESS=  1.00D-11  VARMIN  =  1.00D-07  VARMAX  =  1.00D-03
 THRDOUB =  0.00D+00  THRDIV  =  1.00D-05  THRRED  =  1.00D-07  THRPSP  =  1.00D+00  THRDC   =  1.00D-10  THRCS   =  1.00D-10
 THRNRM  =  1.00D-08  THREQ   =  0.00D+00  THRDE   =  1.00D+00  THRREF  =  1.00D-05  SPARFAC =  1.00D+00  THRDLP  =  1.00D-07
 THRDIA  =  1.00D-10  THRDLS  =  1.00D-07  THRGPS  =  0.00D+00  THRKEX  =  0.00D+00  THRDIS  =  2.00D-01  THRVAR  =  1.00D-10
 THRLOC  =  1.00D-06  THRGAP  =  1.00D-06  THRLOCT = -1.00D+00  THRGAPT = -1.00D+00  THRORB  =  1.00D-06  THRMLTP =  0.00D+00
 THRCPQCI=  1.00D-10  KEXTA   =  0.00D+00  THRCOARS=  0.00D+00  SYMTOL  =  1.00D-06  GRADTOL =  1.00D-06  THROVL  =  1.00D-08
 THRORTH =  1.00D-08  GRID    =  1.00D-06  GRIDMAX =  1.00D-03  DTMAX   =  0.00D+00  THROCCDE=  1.00D-01  THROCCDE=  1.00D-01



 THRESHOLDS:

 ZERO    =  1.00D-12  ONEINT  =  1.00D-12  TWOINT  =  1.00D-12  PREFAC  =  1.00D-14  LOCALI  =  1.00D-09  EORDER  =  1.00D-04
 ENERGY  =  0.00D+00  ETEST   =  0.00D+00  EDENS   =  0.00D+00  THRDEDEF=  1.00D-06  GRADIENT=  1.00D-02  STEP    =  1.00D-03
 ORBITAL =  1.00D-05  CIVEC   =  1.00D-05  COEFF   =  1.00D-04  PRINTCI =  5.00D-02  PUNCHCI =  9.90D+01  OPTGRAD =  3.00D-04
 OPTENERG=  1.00D-06  OPTSTEP =  3.00D-04  THRGRAD =  1.00D-10  COMPRESS=  1.00D-11  VARMIN  =  1.00D-07  VARMAX  =  1.00D-03
 THRDOUB =  0.00D+00  THRDIV  =  1.00D-05  THRRED  =  1.00D-07  THRPSP  =  1.00D+00  THRDC   =  1.00D-10  THRCS   =  1.00D-10
 THRNRM  =  1.00D-08  THREQ   =  0.00D+00  THRDE   =  1.00D+00  THRREF  =  1.00D-05  SPARFAC =  1.00D+00  THRDLP  =  1.00D-07
 THRDIA  =  1.00D-10  THRDLS  =  1.00D-07  THRGPS  =  0.00D+00  THRKEX  =  0.00D+00  THRDIS  =  2.00D-01  THRVAR  =  1.00D-10
 THRLOC  =  1.00D-06  THRGAP  =  1.00D-06  THRLOCT = -1.00D+00  THRGAPT = -1.00D+00  THRORB  =  1.00D-06  THRMLTP =  0.00D+00
 THRCPQCI=  1.00D-10  KEXTA   =  0.00D+00  THRCOARS=  0.00D+00  SYMTOL  =  1.00D-06  GRADTOL =  1.00D-06  THROVL  =  1.00D-12
 THRORTH =  1.00D-08  GRID    =  1.00D-06  GRIDMAX =  1.00D-03  DTMAX   =  0.00D+00  THROCCDE=  1.00D-01  THROCCDE=  1.00D-01


 SETTING DKROLL         =         1.00000000                                  
 SETTING DKHO           =        10.00000000                                  
 SETTING DKHP           =         4.00000000                                  

 Variable memory set to 1000000000 words,  buffer space   230000 words

 SETTING BASIS          =    USERDEF
 SETTING Y_CCSD         =     -3383.29910800                                  
 SETTING O_CCSD         =       -75.03694110                                  
 SETTING NE             =        47.00000000                                  
 SETTING SYMM           =         1.00000000                                  
 SETTING SS             =         1.00000000                                  
 SETTING A1             =        13.00000000                                  
 SETTING B1             =         5.00000000                                  
 SETTING B2             =         5.00000000                                  
 SETTING A2             =         1.00000000                                  

Geometry recognized as XYZ



 Recomputing integrals since basis changed


 Using spherical harmonics



 PROGRAM * SEWARD (Integral evaluation for generally contracted gaussian basis sets)     Author: Roland Lindh, 1990

 Geometry written to block  1 of record 700


 Point group  C2v 



 ATOMIC COORDINATES

 NR  ATOM    CHARGE       X              Y              Z

   1  Y      39.00    0.000000000    0.000000000    0.000000000
   2  O       8.00    0.000000000    0.000000000    3.212534412

 Bond lengths in Bohr (Angstrom)

 1-2  3.212534412
     ( 1.700000000)

 NUCLEAR CHARGE:                   47
 NUMBER OF PRIMITIVE AOS:         395
 NUMBER OF SYMMETRY AOS:          335
 NUMBER OF CONTRACTIONS:          335   ( 147A1  +  76B1  +  76B2  +  36A2  )
 NUMBER OF CORE ORBITALS:          19   (  10A1  +   4B1  +   4B2  +   1A2  )
 NUMBER OF VALENCE ORBITALS:       10   (   5A1  +   2B1  +   2B2  +   1A2  )


 NUCLEAR REPULSION ENERGY   97.11958224

 One-electron integrals computed with SEWARD

 10nd-order Douglas-Kroll-Hess method activated. McWeeny DKH parametrization is used.

 Computing Douglas-Kroll / X2C integrals

 AO integral compression algorithm  1   Integral accuracy      1.0D-12

     1166.017 MB (compressed) written to integral file ( 29.5%)

     Node minimum: 65.274 MB, node maximum: 192.414 MB


 NUMBER OF SORTED TWO-ELECTRON INTEGRALS:   37228718.     BUFFER LENGTH:  32768
 NUMBER OF SEGMENTS:   2  SEGMENT LENGTH:   31966706      RECORD LENGTH: 524288

 Memory used in sort:      32.52 MW

 SORT1 READ   494494318. AND WROTE    15772846. INTEGRALS IN     46 RECORDS. CPU TIME:     6.51 SEC, REAL TIME:     8.10 SEC
 SORT2 READ   172107319. AND WROTE   409742306. INTEGRALS IN   5027 RECORDS. CPU TIME:     0.66 SEC, REAL TIME:     1.14 SEC

 Node minimum:    37201338.  Node maximum:    37282548. integrals

 OPERATOR DM      FOR CENTER  0  COORDINATES:    0.000000    0.000000    0.000000

 EXTRA SYMMETRY OF AOS IN SYMMETRY 1:   1 1 1 1 1 1 1 1 1 1   1 1 1 1 1 1 1 1 1 1   1 1 1 1 1 1 1 1 1 1   1 1 1 1 1 1 1 1 1 1
                                        1 1 1 1 1 1 1 1 1 1   1 1 1 1 1 1 1 1 2 1   2 1 2 1 2 1 2 1 2 1   2 1 2 1 2 1 2 1 2 1
                                        2 1 2 1 2 1 2 1 2 1   2 1 2 1 2 1 2 1 2 1   2 1 2 1 2 1 3 2 1 3   2 1 3 2 1 1 1 1 1 1
                                        1 1 1 1 1 1 1 1 1 1   1 1 1 1 1 1 2 1 2 1   2 1 2 1 2 1 2
 EXTRA SYMMETRY OF AOS IN SYMMETRY 2:   1 1 1 1 1 1 1 1 1 1   1 1 1 1 1 1 1 1 1 1   1 1 1 1 1 1 1 1 1 1   1 1 1 1 1 1 1 1 1 1
                                        1 1 1 1 1 1 1 2 1 2   1 2 1 2 1 2 1 2 1 2   1 1 1 1 1 1 1 1 1 1   1 1 1 2 1 2
 EXTRA SYMMETRY OF AOS IN SYMMETRY 3:   1 1 1 1 1 1 1 1 1 1   1 1 1 1 1 1 1 1 1 1   1 1 1 1 1 1 1 1 1 1   1 1 1 1 1 1 1 1 1 1
                                        1 1 1 1 1 1 1 2 1 2   1 2 1 2 1 2 1 2 1 2   1 1 1 1 1 1 1 1 1 1   1 1 1 2 1 2
 EXTRA SYMMETRY OF AOS IN SYMMETRY 4:   1 1 1 1 1 1 1 1 1 1   1 1 1 1 1 1 1 1 1 1   1 1 1 1 1 2 1 2 1 2   1 1 1 1 1 1

 Eigenvalues of metric

         1 0.101E-06 0.181E-06 0.126E-05 0.259E-05 0.382E-05 0.136E-04 0.146E-04 0.168E-04
         2 0.189E-06 0.267E-05 0.144E-04 0.165E-04 0.683E-04 0.144E-03 0.159E-03 0.786E-03
         3 0.189E-06 0.267E-05 0.144E-04 0.165E-04 0.683E-04 0.144E-03 0.159E-03 0.786E-03
         4 0.168E-04 0.686E-04 0.167E-03 0.105E-02 0.381E-02 0.795E-02 0.224E-01 0.450E-01


 **********************************************************************************************************************************
 DATASETS  * FILE   NREC   LENGTH (MB)   RECORD NAMES
              1      22       22.27       500      610      700      900      950      970     1000      129      960     1700   
                                          VAR    BASINP    GEOM    SYMINP    ZMAT    AOBASIS   BASIS     P2S    ABASIS    OPER   
                                         1101     1401     1411     1412     1650     1100     1400     1410     1200     1210   
                                          SR      EKINR    POTR     PVPR    MOLCAS      S      EKIN      POT      H0       H01  
                                         1080     1600   
                                         AOSYM     SMH  

 PROGRAMS   *        TOTAL       INT
 CPU TIMES  *        54.28     54.08
 REAL TIME  *        57.70 SEC
 DISK USED  *         3.21 GB      
 GA USED    *         0.00 MB       (max)       0.00 MB       (current)
 **********************************************************************************************************************************


 PROGRAM * RHF-SCF (OPEN SHELL)       Authors: W. Meyer, H.-J. Werner


 NUMBER OF ELECTRONS:      24+   23-    SPACE SYMMETRY=1    SPIN SYMMETRY: Doublet 
 CONVERGENCE THRESHOLDS:    1.00E-05 (Density)    1.00E-07 (Energy)
 MAX. NUMBER OF ITERATIONS:      200
 INTERPOLATION TYPE:            DIIS
 INTERPOLATION STEPS:              2 (START)      1 (STEP)
 LEVEL SHIFTS:                 -0.60 (CLOSED) -0.30 (OPEN) 

 Number of closed-shell orbitals:   23 (  12   5   5   1 )
 Number of open-shell orbitals:      1 (   1   0   0   0 )


 Orbital guess generated from atomic densities. Full valence occupancy:   15   6   6   2

 Molecular orbital dump at record        2100.2

 ITERATION    DDIFF          GRAD             ENERGY        2-EL.EN.            DIPOLE MOMENTS         DIIS   ORB.
    1      0.000D+00      0.000D+00     -3457.69080293   2833.220535    0.00000    0.00000   -4.62017    0    start
    2      0.000D+00      0.109D-01     -3457.94656209   2839.796052    0.00000    0.00000   -2.25145    1    diag,B
    3      0.856D-02      0.498D-02     -3457.97657122   2838.907333    0.00000    0.00000   -2.29505    2    diag,B
    4      0.322D-02      0.890D-03     -3457.98163980   2839.926066    0.00000    0.00000   -2.02288    3    diag,B
    5      0.143D-02      0.397D-03     -3457.98359380   2839.989897    0.00000    0.00000   -1.88175    4    diag,B
    6      0.836D-03      0.212D-03     -3457.98478690   2840.225404    0.00000    0.00000   -1.77900    5    diag,B
    7      0.773D-03      0.115D-03     -3457.98538388   2840.333768    0.00000    0.00000   -1.70188    6    diag,B
    8      0.568D-03      0.591D-04     -3457.98556638   2840.370360    0.00000    0.00000   -1.65707    7    diag,B
    9      0.298D-03      0.268D-04     -3457.98560642   2840.359043    0.00000    0.00000   -1.62877    8    diag,B
   10      0.157D-03      0.129D-04     -3457.98561677   2840.338466    0.00000    0.00000   -1.61124    9    orth
   11      0.619D-04      0.665D-05     -3457.98561969   2840.319121    0.00000    0.00000   -1.59860    9    diag,B
   12      0.436D-04      0.283D-05     -3457.98562010   2840.311122    0.00000    0.00000   -1.59397    9    diag,B
   13      0.176D-04      0.140D-05     -3457.98562018   2840.306863    0.00000    0.00000   -1.59153    9    diag,B
   14      0.958D-05      0.515D-06     -3457.98562018   2840.306589    0.00000    0.00000   -1.59138    0    orth

 Final alpha occupancy:  13   5   5   1
 Final beta  occupancy:  12   5   5   1

 !RHF STATE 1.1 Energy              -3457.985620184884
 Nuclear energy                        97.11958224
 One-electron energy                -4975.25849672
 Two-electron energy                 1420.15329430
 Virial quotient                       -0.91704314
 !RHF STATE 1.1 Dipole moment           0.00000000     0.00000000    -1.59137846
 Dipole moment /Debye                   0.00000000     0.00000000    -4.04461567

 ELECTRON ORBITALS
 =================


   Orb  Occ    Energy  Couls-En    Coefficients

                                   1 1s      1 1s      1 1s      1 1s      1 1s      1 1s      1 1s      1 1s      1 1s      1 1s   
                                   1 1s      1 1s      1 1s      1 1s      1 1s      1 1s      1 1s      1 1s      1 1s      1 1s   
                                   1 1s      1 1s      1 1s      1 1s      1 1s      1 1s      1 1s      1 1s      1 1s      1 1s   
                                   1 1s      1 2pz     1 2pz     1 2pz     1 2pz     1 2pz     1 2pz     1 2pz     1 2pz     1 2pz  
                                   1 2pz     1 2pz     1 2pz     1 2pz     1 2pz     1 2pz     1 2pz     1 2pz     1 2pz     1 2pz  
                                   1 2pz     1 2pz     1 2pz     1 2pz     1 2pz     1 2pz     1 2pz     1 3d0     1 3d2+    1 3d0  
                                   1 3d2+    1 3d0     1 3d2+    1 3d0     1 3d2+    1 3d0     1 3d2+    1 3d0     1 3d2+    1 3d0  
                                   1 3d2+    1 3d0     1 3d2+    1 3d0     1 3d2+    1 3d0     1 3d2+    1 3d0     1 3d2+    1 3d0  
                                   1 3d2+    1 3d0     1 3d2+    1 3d0     1 3d2+    1 3d0     1 3d2+    1 3d0     1 3d2+    1 3d0  
                                   1 3d2+    1 3d0     1 3d2+    1 3d0     1 3d2+    1 3d0     1 3d2+    1 4f0     1 4f2+    1 4f0  
                                   1 4f2+    1 4f0     1 4f2+    1 4f0     1 4f2+    1 5g0     1 5g4+    1 5g2+    1 5g0     1 5g4+ 
                                   1 5g2+    1 5g0     1 5g4+    1 5g2+    2 1s      2 1s      2 1s      2 1s      2 1s      2 1s   
                                   2 1s      2 1s      2 1s      2 1s      2 1s      2 1s      2 1s      2 2pz     2 2pz     2 2pz  
                                   2 2pz     2 2pz     2 2pz     2 2pz     2 2pz     2 3d0     2 3d2+    2 3d0     2 3d2+    2 3d0  
                                   2 3d2+    2 3d0     2 3d2+    2 4f0     2 4f2+    2 4f0     2 4f2+ 

   1.1   2  -629.6174-1408.4787  0.000041  0.000109  0.000302  0.000698  0.001520  0.003159  0.006523  0.013590  0.028843  0.061543
                                 0.126272  0.229723  0.321095  0.274183 -0.006124  0.101222  0.004780  0.003375 -0.005716  0.015138
                                -0.014023  0.011593 -0.010943  0.003988 -0.002469  0.000768 -0.000089  0.000006 -0.000017  0.000004
                                -0.000001 -0.000000 -0.000000 -0.000000 -0.000000 -0.000000 -0.000000 -0.000000 -0.000001  0.000001
                                 0.000001  0.000001 -0.000007  0.000011 -0.000010  0.000033 -0.000070  0.000106 -0.000111  0.000087
                                -0.000048  0.000018 -0.000023  0.000003 -0.000004  0.000001 -0.000000 -0.000000 -0.000000 -0.000000
                                -0.000000 -0.000000  0.000000 -0.000000 -0.000000 -0.000000 -0.000000  0.000001  0.000000 -0.000001
                                -0.000000  0.000000  0.000000 -0.000000 -0.000000  0.000000  0.000000 -0.000001 -0.000000  0.000002
                                 0.000000 -0.000002 -0.000000  0.000001  0.000000 -0.000014 -0.000000  0.000012  0.000000 -0.000004
                                -0.000000  0.000001  0.000000  0.000001 -0.000000 -0.000000  0.000000  0.000000 -0.000000 -0.000002
                                -0.000000  0.000001 -0.000000  0.000000 -0.000000 -0.000000 -0.000000  0.000000  0.000000  0.000000
                                 0.000000  0.000001 -0.000000  0.000000 -0.000000  0.000000 -0.000000  0.000000 -0.000000  0.000000
                                 0.000001  0.000001 -0.000003  0.000008  0.000014 -0.000001 -0.000000 -0.000000 -0.000001  0.000000
                                -0.000000 -0.000013 -0.000006  0.000001  0.000000 -0.000000 -0.000000  0.000001  0.000000  0.000006
                                -0.000000  0.000000  0.000000  0.000000 -0.000000 -0.000001  0.000000

   2.1   2   -88.8266 -284.1888 -0.000013 -0.000036 -0.000099 -0.000230 -0.000501 -0.001045 -0.002170 -0.004562 -0.009831 -0.021569
                                -0.046648 -0.094076 -0.160101 -0.184507  0.004474 -0.024607  0.372664  0.539902  0.216460  0.031040
                                -0.010356  0.041130 -0.039549  0.016234 -0.010567  0.003328 -0.000442  0.000019 -0.000081  0.000020
                                -0.000004  0.000000  0.000000  0.000000  0.000001  0.000002  0.000008  0.000024  0.000066  0.000144
                                 0.000236  0.000303  0.000197  0.000012  0.000009  0.000116 -0.000266  0.000430 -0.000468  0.000384
                                -0.000218  0.000089 -0.000111  0.000011 -0.000022  0.000007 -0.000001  0.000000 -0.000000  0.000000
                                -0.000000  0.000000  0.000000 -0.000002 -0.000000 -0.000002  0.000000  0.000007 -0.000000 -0.000007
                                 0.000000  0.000003 -0.000000 -0.000001  0.000000  0.000001 -0.000000 -0.000004  0.000000  0.000007
                                -0.000000 -0.000006  0.000000  0.000004 -0.000000 -0.000066  0.000000  0.000056 -0.000000 -0.000018
                                 0.000000  0.000004 -0.000000  0.000004  0.000000 -0.000001 -0.000000  0.000005  0.000000 -0.000009
                                -0.000000  0.000006  0.000000  0.000002  0.000000 -0.000001 -0.000000  0.000000  0.000000 -0.000000
                                -0.000000  0.000003 -0.000000  0.000000 -0.000000 -0.000000 -0.000000  0.000000 -0.000000  0.000001
                                 0.000005  0.000007 -0.000014  0.000043  0.000073 -0.000006 -0.000003 -0.000000 -0.000002  0.000001
                                -0.000002 -0.000066 -0.000029  0.000002  0.000000 -0.000001 -0.000000  0.000004 -0.000000  0.000028
                                 0.000000  0.000000  0.000000  0.000002  0.000000 -0.000003 -0.000000

   3.1   2   -78.8740 -270.8042  0.000000  0.000000  0.000000  0.000000  0.000000  0.000001  0.000002  0.000004  0.000008  0.000019
                                 0.000040  0.000081  0.000138  0.000160 -0.000002  0.000013 -0.000345 -0.000423 -0.000181  0.000017
                                -0.000089  0.000117 -0.000152  0.000120 -0.000096  0.000051 -0.000011 -0.000000  0.000043 -0.000011
                                 0.000002  0.000014  0.000053  0.000206  0.000769  0.002805  0.009658  0.030133  0.082173  0.183300
                                 0.308905  0.340236  0.185118  0.005643  0.036900  0.012889 -0.016640  0.018972 -0.014487  0.007523
                                -0.002911  0.000398 -0.000157  0.000068  0.000001  0.000001 -0.000001  0.000000  0.000000  0.000001
                                -0.000000  0.000003 -0.000000  0.000015 -0.000000  0.000056 -0.000000  0.000056 -0.000000 -0.000012
                                 0.000000  0.000006 -0.000000  0.000002 -0.000000  0.000003 -0.000000  0.000005 -0.000000  0.000001
                                -0.000000 -0.000020  0.000000  0.000034 -0.000000 -0.000040  0.000000  0.000037 -0.000000 -0.000006
                                 0.000000  0.000004 -0.000000 -0.000002  0.000000  0.000000  0.000000 -0.000004 -0.000000  0.000000
                                 0.000000  0.000004 -0.000000 -0.000001  0.000000 -0.000000 -0.000000  0.000000  0.000001 -0.000000
                                 0.000000  0.000000  0.000000  0.000000  0.000000  0.000000  0.000000  0.000000 -0.000000  0.000002
                                 0.000003 -0.000000 -0.000000 -0.000013 -0.000030 -0.000001 -0.000003  0.000000  0.000000  0.000002
                                 0.000005 -0.000001  0.000011 -0.000000 -0.000000 -0.000001  0.000000 -0.000003  0.000000  0.000004
                                -0.000000 -0.000000 -0.000000 -0.000001 -0.000000  0.000001  0.000000

   4.1   2   -20.4765  -64.5664  0.000000  0.000000  0.000000  0.000000  0.000000  0.000000  0.000000  0.000000  0.000000  0.000000
                                 0.000000  0.000001 -0.000001  0.000009 -0.000035  0.000040 -0.000034  0.000064 -0.000329  0.001754
                                -0.002244  0.006233 -0.008403  0.008123 -0.008865  0.004494 -0.000733 -0.008199 -0.001943 -0.000663
                                 0.000178  0.000000 -0.000000  0.000000 -0.000000  0.000000 -0.000000  0.000000 -0.000001  0.000004
                                -0.000013  0.000052 -0.000566  0.000894 -0.000770  0.002262 -0.004096  0.003976 -0.001648 -0.000958
                                 0.001051 -0.000465 -0.000092 -0.006591 -0.002729  0.000050  0.000007 -0.000000 -0.000000 -0.000000
                                 0.000000 -0.000000 -0.000000 -0.000001  0.000000 -0.000005  0.000000  0.000020 -0.000000 -0.000039
                                 0.000000  0.000021 -0.000000 -0.000063 -0.000000  0.000171 -0.000000 -0.000882 -0.000000  0.001739
                                 0.000000 -0.001855 -0.000000  0.000913  0.000000 -0.000469 -0.000000 -0.003511  0.000000  0.000506
                                -0.000000 -0.001416  0.000000  0.000085 -0.000000 -0.000014  0.000000  0.000042 -0.000000  0.000007
                                -0.000000 -0.001503 -0.000000 -0.000102  0.000000  0.000123  0.000000 -0.000000  0.000046 -0.000000
                                -0.000000 -0.000387  0.000000 -0.000000  0.000743  0.004237  0.020738  0.079663  0.231827  0.425374
                                 0.336184  0.042699 -0.012276  0.013520  0.006075  0.008639  0.012709 -0.000010  0.000094 -0.000474
                                 0.000590 -0.004777 -0.000665 -0.000294 -0.000014  0.000101 -0.000000  0.000116  0.000000  0.000988
                                -0.000000 -0.000006  0.000000  0.000038  0.000000 -0.000156  0.000000

   5.1   2   -15.2731  -96.1908  0.000006  0.000015  0.000041  0.000095  0.000207  0.000432  0.000898  0.001891  0.004084  0.008994
                                 0.019591  0.040094  0.070202  0.085341 -0.003511  0.012454 -0.239514 -0.483620 -0.194348 -0.033439
                                 0.516680  0.754107 -0.094624  0.239017 -0.071216  0.028612 -0.002068 -0.000105 -0.000737  0.000129
                                -0.000020 -0.000000 -0.000000 -0.000000 -0.000001 -0.000005 -0.000019 -0.000059 -0.000165 -0.000379
                                -0.000670 -0.000780 -0.000225  0.000200  0.001253  0.002609 -0.001102  0.003440 -0.002173  0.002033
                                -0.001249  0.000542 -0.000853 -0.000120 -0.000299  0.000062 -0.000008 -0.000000  0.000000 -0.000001
                                -0.000000 -0.000005 -0.000000 -0.000016 -0.000000 -0.000049  0.000000 -0.000128 -0.000000  0.000017
                                 0.000000 -0.000174 -0.000000 -0.000092 -0.000000 -0.000080 -0.000000 -0.000161  0.000000  0.000188
                                -0.000000 -0.000074  0.000000 -0.000038 -0.000000 -0.000479  0.000000  0.000290 -0.000000 -0.000119
                                 0.000000 -0.000027 -0.000000  0.000034  0.000000 -0.000007 -0.000000  0.000054 -0.000000 -0.000153
                                 0.000000 -0.000003  0.000000  0.000014  0.000000 -0.000002 -0.000000 -0.000000 -0.000021 -0.000000
                                 0.000000  0.000016  0.000000 -0.000000 -0.000000 -0.000000 -0.000000 -0.000001 -0.000002  0.000004
                                 0.000021  0.000017 -0.000073  0.000534  0.000821 -0.000026 -0.000014 -0.000002 -0.000020  0.000007
                                -0.000084 -0.000542 -0.000256  0.000013  0.000001  0.000001  0.000000  0.000051 -0.000000  0.000184
                                 0.000000  0.000001 -0.000000  0.000002 -0.000000 -0.000010  0.000000

   6.1   2   -11.9413  -89.9436 -0.000000 -0.000000 -0.000000 -0.000000 -0.000001 -0.000002 -0.000004 -0.000009 -0.000019 -0.000041
                                -0.000090 -0.000184 -0.000321 -0.000397  0.000035 -0.000076  0.001146  0.002154  0.000969 -0.000284
                                -0.001709 -0.006192  0.003554 -0.002318  0.001616 -0.000942 -0.000159  0.000446  0.000435 -0.000048
                                 0.000002 -0.000006 -0.000022 -0.000087 -0.000327 -0.001195 -0.004146 -0.013098 -0.036659 -0.084983
                                -0.151210 -0.169283 -0.004807 -0.000264  0.297085  0.469486 -0.000379  0.313838 -0.029040  0.075379
                                -0.009704  0.003190 -0.000781  0.000712  0.000188 -0.000013 -0.000002  0.000000  0.000000  0.000001
                                 0.000000  0.000009  0.000000  0.000031  0.000000  0.000079  0.000000  0.000138  0.000000  0.000130
                                -0.000000  0.000425  0.000000  0.000789  0.000000  0.000748  0.000000 -0.000304  0.000000  0.000613
                                 0.000000 -0.000987 -0.000000  0.000802  0.000000 -0.000345 -0.000000  0.000435  0.000000 -0.000067
                                -0.000000  0.000101  0.000000 -0.000024  0.000000  0.000005 -0.000000 -0.000217 -0.000000  0.000137
                                 0.000000  0.000085 -0.000000 -0.000006  0.000000  0.000009 -0.000000 -0.000000  0.000038  0.000000
                                 0.000000  0.000005  0.000000  0.000000 -0.000000 -0.000000 -0.000001 -0.000003 -0.000007 -0.000025
                                -0.000054 -0.000038  0.000056 -0.000428 -0.000600  0.000048  0.000020 -0.000001 -0.000009 -0.000030
                                -0.000005  0.000103  0.000152 -0.000002 -0.000000  0.000004  0.000000  0.000022 -0.000000  0.000037
                                -0.000000  0.000001 -0.000000 -0.000018 -0.000000 -0.000035  0.000000

   7.1   2    -6.4492  -79.8230  0.000000  0.000000  0.000000  0.000000  0.000000  0.000000  0.000000  0.000001  0.000001  0.000003
                                 0.000006  0.000015  0.000020  0.000055 -0.000110  0.000130 -0.000168  0.000088 -0.001133  0.005215
                                -0.006567  0.014655 -0.018009  0.016457 -0.017148  0.008422 -0.001840 -0.003299 -0.002229 -0.000061
                                 0.000067  0.000000  0.000000  0.000000  0.000001  0.000003  0.000011  0.000033  0.000094  0.000217
                                 0.000397  0.000412  0.000115 -0.000304 -0.000655 -0.002856  0.003145 -0.005856  0.007011 -0.004590
                                 0.002302  0.000289 -0.001542 -0.002060 -0.001842  0.000250 -0.000036  0.000172 -0.000000  0.001505
                                -0.000000  0.008897 -0.000000  0.035034 -0.000000  0.102026 -0.000000  0.219460 -0.000000 -0.000706
                                 0.000000  0.324575 -0.000000  0.332926 -0.000000  0.197492 -0.000000  0.046116 -0.000000  0.003309
                                -0.000000 -0.004176  0.000000  0.005626 -0.000000 -0.005176  0.000000  0.002763 -0.000000 -0.001998
                                 0.000000  0.000424 -0.000000  0.000029  0.000000  0.000001 -0.000000  0.000501 -0.000000 -0.000969
                                 0.000000 -0.000370 -0.000000  0.000019  0.000000 -0.000264  0.000000  0.000000 -0.000217  0.000000
                                 0.000000  0.000012  0.000000  0.000000 -0.000000 -0.000001 -0.000003 -0.000012 -0.000040 -0.000044
                                 0.000022 -0.000050  0.000238  0.003185  0.004301 -0.000094 -0.000075 -0.000011 -0.000094 -0.000051
                                -0.000844 -0.001843 -0.000983  0.000029  0.000000  0.000090  0.000000  0.000388 -0.000000  0.000223
                                -0.000000 -0.000003 -0.000000 -0.000095 -0.000000  0.000039  0.000000

   8.1   2    -6.4466  -79.7460  0.000000  0.000000  0.000000  0.000000  0.000000  0.000000  0.000000  0.000000  0.000000  0.000000
                                 0.000000  0.000000  0.000000  0.000000 -0.000000  0.000000 -0.000000  0.000000 -0.000000  0.000000
                                -0.000000  0.000000 -0.000000  0.000000 -0.000000  0.000000 -0.000000 -0.000000 -0.000000 -0.000000
                                 0.000000  0.000000  0.000000  0.000000  0.000000  0.000000  0.000000  0.000000  0.000000  0.000000
                                 0.000000  0.000000  0.000000 -0.000000 -0.000000 -0.000000  0.000000 -0.000000  0.000000 -0.000000
                                 0.000000  0.000000 -0.000000 -0.000000 -0.000000  0.000000 -0.000000  0.000000  0.000171  0.000000
                                 0.001504  0.000000  0.008887  0.000000  0.034992  0.000000  0.101905  0.000000  0.219174 -0.000000
                                -0.000667  0.000000  0.324232  0.000000  0.332800  0.000000  0.197810  0.000000  0.047877  0.000000
                                 0.001586 -0.000000 -0.002839  0.000000  0.005661 -0.000000 -0.004203  0.000000  0.003309 -0.000000
                                -0.001978  0.000000  0.000993  0.000000 -0.000106  0.000000  0.000027  0.000000  0.000230 -0.000000
                                -0.000223 -0.000000  0.000045  0.000000 -0.000015 -0.000000 -0.000000 -0.000172 -0.000000  0.000000
                                -0.000010  0.000000 -0.000000 -0.000001 -0.000000 -0.000000 -0.000000 -0.000000 -0.000000 -0.000000
                                 0.000000 -0.000000  0.000000  0.000000  0.000000 -0.000000 -0.000000 -0.000000 -0.000000 -0.000000
                                -0.000000 -0.000000 -0.000000  0.000000  0.000000  0.000000 -0.000001  0.000000  0.000014  0.000000
                                 0.000002 -0.000000  0.000000 -0.000000  0.000001  0.000000 -0.000030

   9.1   2    -2.2144  -37.3396 -0.000002 -0.000005 -0.000015 -0.000035 -0.000075 -0.000157 -0.000327 -0.000688 -0.001487 -0.003273
                                -0.007150 -0.014634 -0.025860 -0.031202 -0.000412 -0.002665  0.092489  0.205648  0.062231  0.129054
                                -0.415233 -0.260273 -0.410862  0.142716 -0.246393  0.860002  0.524463  0.023803 -0.032404  0.005276
                                -0.000917  0.000000  0.000000  0.000000  0.000001  0.000003  0.000010  0.000030  0.000092  0.000189
                                 0.000408  0.000237  0.002204 -0.003637  0.002456 -0.015753  0.033456 -0.058569  0.065914 -0.053007
                                 0.035852 -0.007277 -0.016824 -0.008710 -0.010475  0.000793 -0.000060  0.000000 -0.000000  0.000003
                                -0.000000  0.000018 -0.000000  0.000082 -0.000000  0.000197 -0.000000  0.000843 -0.000000 -0.000496
                                 0.000000  0.000991 -0.000000  0.000244 -0.000000  0.000624 -0.000000 -0.005004  0.000000  0.003312
                                -0.000000 -0.005523  0.000000 -0.008503  0.000000  0.002780 -0.000000 -0.009342 -0.000000  0.007409
                                 0.000000 -0.007744 -0.000000  0.001125  0.000000 -0.000238 -0.000000  0.000147 -0.000000 -0.002511
                                 0.000000 -0.000915 -0.000000 -0.000094  0.000000  0.000531  0.000000 -0.000000  0.000173 -0.000000
                                -0.000000  0.000115  0.000000  0.000000 -0.000012 -0.000068 -0.000335 -0.001312 -0.004147 -0.008601
                                -0.009696  0.009532  0.033770  0.031852  0.026560 -0.001662 -0.001498 -0.000513 -0.003735 -0.011366
                                -0.021675 -0.020019 -0.005381 -0.000297 -0.000095  0.001595 -0.000000  0.006765  0.000000  0.004402
                                 0.000000  0.000097  0.000000 -0.001120  0.000000 -0.001598 -0.000000

  10.1   2    -1.4105  -29.2745  0.000000  0.000000  0.000001  0.000003  0.000007  0.000014  0.000030  0.000063  0.000136  0.000302
                                 0.000652  0.001356  0.002331  0.003126 -0.001045  0.001490 -0.009519 -0.016797 -0.016018  0.041508
                                -0.028495  0.187089 -0.167782  0.166182 -0.179766  0.033507 -0.104822 -0.062505 -0.025196 -0.005356
                                 0.001806  0.000002  0.000006  0.000023  0.000084  0.000308  0.001072  0.003383  0.009539  0.022146
                                 0.040062  0.043984  0.004553 -0.014669 -0.085752 -0.226835  0.132697 -0.374686  0.360741 -0.259037
                                 0.430666  0.336908  0.160046 -0.012375 -0.025026  0.001845 -0.000119 -0.000003 -0.000000 -0.000024
                                -0.000000 -0.000148 -0.000000 -0.000558 -0.000000 -0.001731 -0.000000 -0.002846 -0.000000 -0.001067
                                -0.000000 -0.004635 -0.000000 -0.005876 -0.000000  0.000267  0.000000  0.004340 -0.000000  0.008091
                                 0.000000  0.024267 -0.000000 -0.030053  0.000000  0.040978 -0.000000 -0.055576  0.000000  0.031157
                                -0.000000 -0.025021  0.000000  0.002918 -0.000000 -0.000621  0.000000  0.005037 -0.000000  0.003379
                                -0.000000 -0.004525  0.000000 -0.000297 -0.000000  0.002327 -0.000000 -0.000000  0.000464 -0.000000
                                 0.000000 -0.000434  0.000000  0.000000 -0.000087 -0.000499 -0.002473 -0.009698 -0.030758 -0.064091
                                -0.072705  0.083920  0.278257  0.219130  0.074132 -0.014840 -0.011708 -0.001954 -0.014279 -0.045413
                                -0.081684 -0.065815 -0.013195 -0.001320 -0.000372  0.003955  0.000000  0.017933  0.000000  0.008861
                                -0.000000  0.000256 -0.000000 -0.002494  0.000000 -0.003526 -0.000000

  11.1   2    -1.0278  -24.2311  0.000000  0.000001  0.000002  0.000004  0.000010  0.000020  0.000041  0.000087  0.000188  0.000412
                                 0.000904  0.001842  0.003286  0.003830  0.000529 -0.000212 -0.011314 -0.027258 -0.003440 -0.040296
                                 0.083670 -0.030880  0.140710 -0.087903  0.106757 -0.188257 -0.064653 -0.008269 -0.016088 -0.002868
                                 0.000843 -0.000001 -0.000005 -0.000018 -0.000067 -0.000245 -0.000851 -0.002689 -0.007573 -0.017615
                                -0.031787 -0.035206 -0.000634  0.007050  0.073287  0.163907 -0.062147  0.225752 -0.204664  0.130733
                                -0.320562 -0.291384 -0.146740 -0.044663 -0.011183 -0.001340  0.000510 -0.000006 -0.000000 -0.000057
                                -0.000000 -0.000337 -0.000000 -0.001325 -0.000000 -0.003933 -0.000000 -0.008148  0.000000 -0.000354
                                -0.000000 -0.011856 -0.000000 -0.011859 -0.000000  0.000696  0.000000  0.018981 -0.000000  0.020616
                                 0.000000  0.020643 -0.000000  0.039534  0.000000  0.017626 -0.000000 -0.007101  0.000000  0.009418
                                -0.000000 -0.007844  0.000000  0.000508 -0.000000 -0.000065  0.000000  0.008056  0.000000  0.014783
                                -0.000000 -0.002084  0.000000 -0.000201 -0.000000  0.001848 -0.000000 -0.000000  0.001912  0.000000
                                 0.000000 -0.001247 -0.000000  0.000000 -0.000137 -0.000782 -0.003878 -0.015209 -0.048344 -0.100566
                                -0.113677  0.142890  0.454986  0.391696  0.063643 -0.026374 -0.019517  0.000804  0.005473  0.024080
                                 0.028941 -0.020510 -0.006304  0.001577  0.000211 -0.001488  0.000000  0.000293  0.000000  0.007078
                                -0.000000 -0.000044 -0.000000  0.000279  0.000000 -0.000180 -0.000000

  12.1   2    -0.4087  -20.5329 -0.000000 -0.000001 -0.000002 -0.000004 -0.000010 -0.000020 -0.000042 -0.000089 -0.000191 -0.000423
                                -0.000918 -0.001897 -0.003300 -0.004243  0.000837 -0.001370  0.012859  0.025180  0.016790 -0.027868
                                 0.000644 -0.177033  0.115793 -0.123805  0.118706  0.084496  0.132828  0.032955  0.031308 -0.004439
                                -0.001423  0.000000  0.000002  0.000007  0.000025  0.000092  0.000316  0.001008  0.002806  0.006626
                                 0.011676  0.013916 -0.009017  0.012298 -0.042134 -0.005607 -0.108662  0.127499 -0.148368  0.122331
                                 0.049617  0.127349  0.077191  0.081975  0.030995 -0.008093  0.000890  0.000020 -0.000000  0.000169
                                -0.000000  0.001018 -0.000000  0.003947 -0.000000  0.011920 -0.000000  0.022847 -0.000000  0.003310
                                -0.000000  0.034325 -0.000000  0.036888 -0.000000 -0.005169  0.000000 -0.069520 -0.000000 -0.037415
                                 0.000000 -0.135576 -0.000000 -0.030083  0.000000 -0.177215 -0.000000  0.081779  0.000000 -0.120211
                                -0.000000  0.052785  0.000000 -0.016296 -0.000000  0.003984  0.000000 -0.017825  0.000000 -0.029227
                                -0.000000 -0.008932  0.000000 -0.004089 -0.000000 -0.003640 -0.000000 -0.000000 -0.001541  0.000000
                                 0.000000 -0.003258 -0.000000  0.000000 -0.000010 -0.000058 -0.000289 -0.001119 -0.003671 -0.006514
                                -0.004279  0.019781  0.035327  0.051350  0.007011 -0.007826 -0.003746  0.010240  0.075373  0.256700
                                 0.412231  0.341440  0.075805  0.008476  0.002022 -0.004531  0.000000 -0.023292  0.000000 -0.021053
                                -0.000000 -0.000270 -0.000000  0.003082 -0.000000  0.005250  0.000000

  13.1   +    -0.2149  -12.1958  0.000000  0.000001  0.000003  0.000008  0.000017  0.000036  0.000074  0.000156  0.000337  0.000745
                                 0.001620  0.003337  0.005837  0.007351 -0.000940  0.001795 -0.022159 -0.045494 -0.023910  0.018225
                                 0.038193  0.214262 -0.080310  0.119622 -0.118709 -0.157580 -0.351657  0.049742  0.602762  0.343739
                                 0.000569  0.000000  0.000001  0.000004  0.000013  0.000048  0.000167  0.000528  0.001488  0.003459
                                 0.006258  0.006890  0.000396 -0.001944 -0.014103 -0.035010  0.017379 -0.054802  0.054541 -0.039078
                                 0.078086  0.066549  0.084332 -0.098570 -0.328695 -0.088810  0.002547  0.000005  0.000000  0.000043
                                 0.000000  0.000256  0.000000  0.000998  0.000000  0.002986  0.000000  0.005958  0.000000  0.000553
                                -0.000000  0.008798  0.000000  0.009124  0.000000 -0.001292 -0.000000 -0.018799  0.000000 -0.008161
                                -0.000000 -0.028860  0.000000 -0.016420 -0.000000 -0.050026  0.000000 -0.022380 -0.000000 -0.043832
                                 0.000000 -0.009640 -0.000000  0.002646 -0.000000 -0.000096  0.000000 -0.001476 -0.000000 -0.000233
                                 0.000000  0.007141 -0.000000  0.005064  0.000000  0.000072  0.000000  0.000000  0.000565 -0.000000
                                -0.000000 -0.000625  0.000000  0.000000  0.000009  0.000050  0.000248  0.000977  0.003103  0.006605
                                 0.007894 -0.009437 -0.034170 -0.023058  0.076351  0.001228  0.001068  0.000024  0.000247  0.000154
                                 0.001505 -0.000455 -0.017853 -0.000102 -0.000002 -0.000789 -0.000000 -0.003998 -0.000000 -0.005017
                                 0.000000 -0.000064  0.000000  0.000505  0.000000  0.001369 -0.000000

  14.1   0     0.0154   -4.5395  0.000000  0.000000  0.000001  0.000002  0.000005  0.000011  0.000022  0.000047  0.000099  0.000224
                                 0.000474  0.001013  0.001658  0.002637 -0.002163  0.002699 -0.008298 -0.009783 -0.024432  0.093930
                                -0.098111  0.308830 -0.329197  0.274583 -0.276652  0.071953 -0.159214  0.504744  0.265832  1.096715
                                -1.107009 -0.000000 -0.000000 -0.000001 -0.000003 -0.000012 -0.000035 -0.000133 -0.000304 -0.000919
                                -0.001040 -0.003249  0.019338 -0.031246  0.033570 -0.112549  0.280794 -0.470631  0.544956 -0.481061
                                 0.280319 -0.146900  0.165537 -0.046485  0.628076 -0.629818  1.126160  0.000002 -0.000000  0.000015
                                -0.000000  0.000106 -0.000000  0.000355 -0.000000  0.001309 -0.000000  0.000376  0.000000  0.002898
                                -0.000000  0.001789  0.000000  0.005548 -0.000000 -0.004939  0.000000  0.021241 -0.000000 -0.094853
                                 0.000000  0.181895 -0.000000 -0.238437  0.000000  0.380484 -0.000000 -0.486498  0.000000  0.628019
                                -0.000000 -0.462419  0.000000  0.046928 -0.000000 -0.318338  0.000000 -0.000312  0.000000  0.010954
                                -0.000000  0.020122 -0.000000 -0.033102 -0.000000  0.000684  0.000000 -0.000000  0.004733 -0.000000
                                -0.000000 -0.004773  0.000000  0.000000  0.000003  0.000018  0.000091  0.000337  0.001178  0.001256
                                -0.001417 -0.008953  0.001834 -0.079284 -0.782007  0.005538  0.002685 -0.000582 -0.004113 -0.016328
                                -0.024519  0.074202  0.330716 -0.000890 -0.000139 -0.000181  0.000000 -0.005182  0.000000 -0.037119
                                -0.000000 -0.000088  0.000000  0.000098 -0.000000  0.003003 -0.000000

  15.1   0     0.0223   -4.3276 -0.000000 -0.000000 -0.000000 -0.000001 -0.000002 -0.000004 -0.000008 -0.000017 -0.000033 -0.000083
                                -0.000154 -0.000396 -0.000450 -0.001731  0.004094 -0.004781  0.005955 -0.003175  0.039276 -0.190002
                                 0.228850 -0.546028  0.662652 -0.529458  0.539233 -0.247985  0.134840 -0.859001  2.189682 -2.749749
                                 2.219805 -0.000000 -0.000000 -0.000001 -0.000006 -0.000020 -0.000072 -0.000215 -0.000648 -0.001384
                                -0.002860 -0.001945 -0.011316  0.019001 -0.011472  0.084094 -0.171423  0.302311 -0.345679  0.299752
                                -0.205394  0.058707 -0.190737  0.032513  0.487122 -0.292537  0.346031 -0.000000 -0.000000 -0.000006
                                -0.000000 -0.000026 -0.000000 -0.000150 -0.000000 -0.000243 -0.000000 -0.002337  0.000000  0.002156
                                -0.000000 -0.002432 -0.000000  0.000556 -0.000000 -0.003548  0.000000  0.026041 -0.000000 -0.074462
                                 0.000000  0.180953 -0.000000 -0.251559  0.000000  0.352833 -0.000000 -0.585963  0.000000  1.008930
                                -0.000001 -0.812472  0.000000  0.193156 -0.000000 -0.533898  0.000000  0.002268  0.000000 -0.012759
                                -0.000000  0.012647 -0.000000 -0.043419 -0.000000 -0.001265 -0.000000 -0.000000  0.002193  0.000000
                                -0.000000 -0.004646 -0.000000 -0.000000  0.000001  0.000007  0.000029  0.000154  0.000255  0.003323
                                 0.010542  0.011243 -0.039508  0.101820 -0.449359 -0.011329 -0.004976 -0.000511 -0.003789 -0.012851
                                -0.017044 -0.150222  0.315233 -0.000352 -0.000096 -0.001034  0.000000  0.007004  0.000000  0.052571
                                 0.000000  0.000088  0.000000  0.000702 -0.000000 -0.007795 -0.000000

                                   1 2px     1 2px     1 2px     1 2px     1 2px     1 2px     1 2px     1 2px     1 2px     1 2px  
                                   1 2px     1 2px     1 2px     1 2px     1 2px     1 2px     1 2px     1 2px     1 2px     1 2px  
                                   1 2px     1 2px     1 2px     1 2px     1 2px     1 2px     1 3d1+    1 3d1+    1 3d1+    1 3d1+ 
                                   1 3d1+    1 3d1+    1 3d1+    1 3d1+    1 3d1+    1 3d1+    1 3d1+    1 3d1+    1 3d1+    1 3d1+ 
                                   1 3d1+    1 3d1+    1 3d1+    1 3d1+    1 3d1+    1 3d1+    1 4f1+    1 4f3+    1 4f1+    1 4f3+ 
                                   1 4f1+    1 4f3+    1 4f1+    1 4f3+    1 5g1+    1 5g3+    1 5g1+    1 5g3+    1 5g1+    1 5g3+ 
                                   2 2px     2 2px     2 2px     2 2px     2 2px     2 2px     2 2px     2 2px     2 3d1+    2 3d1+ 
                                   2 3d1+    2 3d1+    2 4f1+    2 4f3+    2 4f1+    2 4f3+ 

   1.2   2   -78.8742 -270.8006  0.000014  0.000053  0.000206  0.000769  0.002805  0.009658  0.030133  0.082172  0.183299  0.308906
                                 0.340232  0.185142  0.005603  0.036946  0.012750 -0.016336  0.018506 -0.014012  0.007169 -0.002730
                                 0.000356 -0.000127  0.000046 -0.000020  0.000005 -0.000002  0.000000  0.000000  0.000001  0.000008
                                 0.000036  0.000044 -0.000006  0.000012 -0.000000 -0.000001 -0.000002  0.000002 -0.000003  0.000004
                                -0.000002 -0.000001  0.000004 -0.000006 -0.000000  0.000000  0.000001 -0.000000  0.000000  0.000000
                                -0.000001 -0.000000 -0.000001  0.000000  0.000001 -0.000000 -0.000000 -0.000000 -0.000001 -0.000000
                                -0.000000 -0.000000 -0.000001 -0.000001  0.000001  0.000006 -0.000000 -0.000000  0.000000  0.000000
                                -0.000001  0.000000 -0.000000 -0.000000 -0.000000  0.000000

   2.2   2   -11.9444  -89.9032 -0.000006 -0.000022 -0.000087 -0.000327 -0.001195 -0.004145 -0.013096 -0.036653 -0.084968 -0.151185
                                -0.169265 -0.004767 -0.000337  0.297098  0.469241 -0.000097  0.313173 -0.028541  0.075548 -0.009641
                                 0.003391 -0.000852  0.000363 -0.000135  0.000042 -0.000012  0.000000  0.000002  0.000012  0.000045
                                 0.000120  0.000284  0.000044  0.000560  0.000637  0.000419 -0.000051  0.000123 -0.000208  0.000192
                                -0.000111  0.000127 -0.000051  0.000010 -0.000003  0.000001 -0.000153 -0.000000  0.000031  0.000000
                                 0.000005 -0.000000 -0.000005  0.000000 -0.000005  0.000000  0.000005  0.000000 -0.000001 -0.000000
                                 0.000001  0.000005  0.000015  0.000022 -0.000054  0.000018  0.000000  0.000000 -0.000004  0.000012
                                 0.000038  0.000000  0.000003  0.000000 -0.000020 -0.000000

   3.2   2    -6.4461  -79.7881  0.000000  0.000000  0.000000  0.000001  0.000002  0.000007  0.000023  0.000065  0.000151  0.000271
                                 0.000294 -0.000004 -0.000017 -0.000540 -0.001065  0.000158 -0.000930  0.000625 -0.000050 -0.000067
                                 0.000126 -0.000327 -0.000387 -0.000159 -0.000048  0.000010  0.000171  0.001504  0.008891  0.035008
                                 0.101953  0.219247 -0.000637  0.324335  0.332917  0.197715  0.047340  0.001469 -0.002312  0.004699
                                -0.003669  0.002237 -0.001323  0.000509 -0.000101  0.000025  0.000371  0.000000 -0.000664 -0.000000
                                -0.000182  0.000000 -0.000036 -0.000000 -0.000246 -0.000000 -0.000152  0.000000 -0.000021  0.000000
                                 0.000002  0.000021  0.000009  0.000057  0.000778  0.000294 -0.000009 -0.000000  0.000006 -0.000190
                                -0.000461 -0.000003  0.000027  0.000000  0.000177 -0.000000

   4.2   2    -1.2848  -32.8055  0.000002  0.000007  0.000029  0.000109  0.000399  0.001387  0.004385  0.012335  0.028725  0.051711
                                 0.057657 -0.002343 -0.005675 -0.124181 -0.243617  0.051268 -0.283879  0.240698 -0.146650  0.463873
                                 0.472156  0.221371  0.031564 -0.000536 -0.000165  0.000037  0.000000  0.000001  0.000006  0.000025
                                 0.000081  0.000133  0.000018  0.000148  0.000141 -0.000090  0.003264 -0.006977  0.009857 -0.016960
                                 0.002570 -0.007222  0.001268 -0.002351 -0.000224  0.000046 -0.002422 -0.000000 -0.006553  0.000000
                                -0.002672 -0.000000 -0.000282 -0.000000  0.000269 -0.000000 -0.000698  0.000000 -0.000605 -0.000000
                                 0.000576  0.004201  0.014004  0.023298  0.015778  0.002893  0.000456  0.000113 -0.001438 -0.005618
                                -0.002468 -0.000091  0.001054 -0.000000  0.001306  0.000000

   5.2   2    -0.4283  -18.7734 -0.000000 -0.000001 -0.000004 -0.000014 -0.000053 -0.000183 -0.000578 -0.001630 -0.003788 -0.006852
                                -0.007544 -0.000520  0.002245  0.015237  0.039305 -0.022582  0.068137 -0.071877  0.058293 -0.096890
                                -0.062232 -0.048190 -0.004504 -0.012074 -0.013916  0.003403 -0.000012 -0.000101 -0.000600 -0.002364
                                -0.006975 -0.014799 -0.000247 -0.021412 -0.020757  0.000257  0.052142 -0.012916  0.129169 -0.022168
                                 0.148792 -0.087449  0.115605 -0.067751 -0.002596  0.000698  0.012345 -0.000000  0.027262 -0.000000
                                -0.002418 -0.000000 -0.007743 -0.000000  0.004863 -0.000000  0.002734  0.000000 -0.007532 -0.000000
                                 0.009861  0.072369  0.247584  0.395640  0.369283  0.098363  0.008284  0.001953 -0.004322 -0.025886
                                -0.041272 -0.000365  0.002345  0.000000  0.008967  0.000000

   6.2   0     0.0012   -7.0406 -0.000000 -0.000001 -0.000004 -0.000013 -0.000049 -0.000169 -0.000541 -0.001501 -0.003558 -0.006234
                                -0.007550  0.005872 -0.008271  0.024139 -0.003301  0.074094 -0.100121  0.124934 -0.119728  0.018054
                                -0.109473 -0.020432 -0.008398  0.281954  0.165207  0.605161  0.000004  0.000034  0.000205  0.000785
                                 0.002401  0.004326  0.001003  0.006663  0.007680 -0.001782 -0.008948 -0.026787  0.023865 -0.071562
                                 0.062453 -0.167310  0.162188 -0.270790 -0.052250 -0.159686  0.000145 -0.000000 -0.000587 -0.000000
                                -0.014064  0.000000 -0.022530 -0.000000  0.000132  0.000000  0.000846 -0.000000  0.000473 -0.000000
                                -0.000071 -0.000566 -0.001437 -0.003322  0.011733  0.056267  0.000028 -0.000009  0.000559  0.002596
                                -0.006189  0.000045 -0.000452  0.000000  0.000093 -0.000000

   7.2   0     0.0333   -5.0900  0.000000  0.000001  0.000003  0.000011  0.000039  0.000146  0.000418  0.001320  0.002652  0.006012
                                 0.002522  0.038256 -0.063451  0.047334 -0.264231  0.569272 -0.986498  1.129286 -0.981465  0.638726
                                -0.171937  0.298584 -0.366107  0.108483 -1.585467  1.571897 -0.000004 -0.000030 -0.000183 -0.000691
                                -0.002169 -0.003421 -0.001482 -0.005566 -0.007259  0.002565  0.002193  0.042110 -0.057333  0.104614
                                -0.107116  0.144308 -0.109616  0.039150 -0.034209  0.239836 -0.000003  0.000000 -0.005265  0.000000
                                -0.036766 -0.000000 -0.106267  0.000000 -0.000247 -0.000000 -0.006789 -0.000000 -0.033107  0.000000
                                -0.000256 -0.002094 -0.004712 -0.011568  0.031791  0.316751  0.000230 -0.000024 -0.000658  0.000707
                                -0.030863 -0.000002 -0.000038 -0.000000  0.002858  0.000000

                                   1 2py     1 2py     1 2py     1 2py     1 2py     1 2py     1 2py     1 2py     1 2py     1 2py  
                                   1 2py     1 2py     1 2py     1 2py     1 2py     1 2py     1 2py     1 2py     1 2py     1 2py  
                                   1 2py     1 2py     1 2py     1 2py     1 2py     1 2py     1 3d1-    1 3d1-    1 3d1-    1 3d1- 
                                   1 3d1-    1 3d1-    1 3d1-    1 3d1-    1 3d1-    1 3d1-    1 3d1-    1 3d1-    1 3d1-    1 3d1- 
                                   1 3d1-    1 3d1-    1 3d1-    1 3d1-    1 3d1-    1 3d1-    1 4f1-    1 4f3-    1 4f1-    1 4f3- 
                                   1 4f1-    1 4f3-    1 4f1-    1 4f3-    1 5g1-    1 5g3-    1 5g1-    1 5g3-    1 5g1-    1 5g3- 
                                   2 2py     2 2py     2 2py     2 2py     2 2py     2 2py     2 2py     2 2py     2 3d1-    2 3d1- 
                                   2 3d1-    2 3d1-    2 4f1-    2 4f3-    2 4f1-    2 4f3- 

   1.3   2   -78.8742 -270.8006  0.000014  0.000053  0.000206  0.000769  0.002805  0.009658  0.030133  0.082172  0.183299  0.308906
                                 0.340232  0.185142  0.005603  0.036946  0.012750 -0.016336  0.018506 -0.014012  0.007169 -0.002730
                                 0.000356 -0.000127  0.000046 -0.000020  0.000005 -0.000002  0.000000  0.000000  0.000001  0.000008
                                 0.000036  0.000044 -0.000006  0.000012 -0.000000 -0.000001 -0.000002  0.000002 -0.000003  0.000004
                                -0.000002 -0.000001  0.000004 -0.000006 -0.000000  0.000000  0.000001  0.000000  0.000000 -0.000000
                                -0.000001  0.000000 -0.000001 -0.000000  0.000001  0.000000 -0.000000  0.000000 -0.000001  0.000000
                                -0.000000 -0.000000 -0.000001 -0.000001  0.000001  0.000006 -0.000000 -0.000000  0.000000  0.000000
                                -0.000001  0.000000 -0.000000  0.000000 -0.000000 -0.000000

   2.3   2   -11.9444  -89.9032 -0.000006 -0.000022 -0.000087 -0.000327 -0.001195 -0.004145 -0.013096 -0.036653 -0.084968 -0.151185
                                -0.169265 -0.004767 -0.000337  0.297097  0.469241 -0.000097  0.313173 -0.028541  0.075548 -0.009641
                                 0.003391 -0.000852  0.000363 -0.000135  0.000042 -0.000012  0.000000  0.000002  0.000012  0.000045
                                 0.000120  0.000284  0.000044  0.000560  0.000637  0.000419 -0.000051  0.000123 -0.000208  0.000192
                                -0.000111  0.000127 -0.000051  0.000010 -0.000003  0.000001 -0.000153 -0.000000  0.000031  0.000000
                                 0.000005 -0.000000 -0.000005 -0.000000 -0.000005 -0.000000  0.000005 -0.000000 -0.000001  0.000000
                                 0.000001  0.000005  0.000015  0.000022 -0.000054  0.000018  0.000000  0.000000 -0.000004  0.000012
                                 0.000038  0.000000  0.000003 -0.000000 -0.000020  0.000000

   3.3   2    -6.4461  -79.7881  0.000000  0.000000  0.000000  0.000001  0.000002  0.000007  0.000023  0.000065  0.000151  0.000271
                                 0.000294 -0.000004 -0.000017 -0.000540 -0.001065  0.000158 -0.000930  0.000625 -0.000050 -0.000067
                                 0.000126 -0.000327 -0.000387 -0.000159 -0.000048  0.000010  0.000171  0.001504  0.008891  0.035008
                                 0.101953  0.219247 -0.000637  0.324335  0.332917  0.197715  0.047340  0.001469 -0.002312  0.004699
                                -0.003669  0.002237 -0.001323  0.000509 -0.000101  0.000025  0.000371 -0.000000 -0.000664  0.000000
                                -0.000182 -0.000000 -0.000036  0.000000 -0.000246  0.000000 -0.000152  0.000000 -0.000021 -0.000000
                                 0.000002  0.000021  0.000009  0.000057  0.000778  0.000294 -0.000009 -0.000000  0.000006 -0.000190
                                -0.000461 -0.000003  0.000027 -0.000000  0.000177  0.000000

   4.3   2    -1.2848  -32.8055  0.000002  0.000007  0.000029  0.000109  0.000399  0.001387  0.004385  0.012335  0.028725  0.051711
                                 0.057657 -0.002343 -0.005676 -0.124181 -0.243617  0.051268 -0.283879  0.240698 -0.146650  0.463874
                                 0.472156  0.221371  0.031564 -0.000536 -0.000165  0.000037  0.000000  0.000001  0.000006  0.000025
                                 0.000081  0.000133  0.000018  0.000148  0.000141 -0.000090  0.003264 -0.006977  0.009857 -0.016960
                                 0.002570 -0.007222  0.001268 -0.002351 -0.000224  0.000046 -0.002422  0.000000 -0.006553  0.000000
                                -0.002672 -0.000000 -0.000282  0.000000  0.000269  0.000000 -0.000698  0.000000 -0.000605 -0.000000
                                 0.000576  0.004201  0.014004  0.023298  0.015778  0.002893  0.000456  0.000113 -0.001438 -0.005618
                                -0.002468 -0.000091  0.001054  0.000000  0.001306 -0.000000

   5.3   2    -0.4283  -18.7734 -0.000000 -0.000001 -0.000004 -0.000014 -0.000053 -0.000183 -0.000578 -0.001630 -0.003788 -0.006852
                                -0.007544 -0.000520  0.002245  0.015237  0.039305 -0.022582  0.068137 -0.071877  0.058293 -0.096890
                                -0.062232 -0.048190 -0.004504 -0.012074 -0.013916  0.003403 -0.000012 -0.000101 -0.000600 -0.002364
                                -0.006975 -0.014799 -0.000247 -0.021412 -0.020757  0.000257  0.052142 -0.012916  0.129169 -0.022168
                                 0.148792 -0.087449  0.115605 -0.067751 -0.002596  0.000698  0.012345 -0.000000  0.027262  0.000000
                                -0.002418  0.000000 -0.007743  0.000000  0.004863 -0.000000  0.002734  0.000000 -0.007532  0.000000
                                 0.009861  0.072369  0.247584  0.395640  0.369283  0.098363  0.008284  0.001953 -0.004322 -0.025886
                                -0.041272 -0.000365  0.002345 -0.000000  0.008967  0.000000

   6.3   0     0.0012   -7.0406 -0.000000 -0.000001 -0.000004 -0.000013 -0.000049 -0.000169 -0.000541 -0.001501 -0.003558 -0.006234
                                -0.007550  0.005872 -0.008271  0.024139 -0.003301  0.074094 -0.100121  0.124934 -0.119728  0.018054
                                -0.109473 -0.020432 -0.008398  0.281954  0.165207  0.605161  0.000004  0.000034  0.000205  0.000785
                                 0.002401  0.004326  0.001003  0.006663  0.007680 -0.001782 -0.008948 -0.026787  0.023865 -0.071562
                                 0.062453 -0.167310  0.162188 -0.270790 -0.052250 -0.159686  0.000145 -0.000000 -0.000587 -0.000000
                                -0.014064  0.000000 -0.022530 -0.000000  0.000132  0.000000  0.000846 -0.000000  0.000473  0.000000
                                -0.000071 -0.000566 -0.001437 -0.003322  0.011733  0.056267  0.000028 -0.000009  0.000559  0.002596
                                -0.006189  0.000045 -0.000452  0.000000  0.000093 -0.000000

   7.3   0     0.0333   -5.0900  0.000000  0.000001  0.000003  0.000011  0.000039  0.000146  0.000418  0.001320  0.002652  0.006012
                                 0.002522  0.038256 -0.063451  0.047334 -0.264231  0.569272 -0.986498  1.129286 -0.981465  0.638726
                                -0.171937  0.298584 -0.366107  0.108483 -1.585467  1.571897 -0.000004 -0.000030 -0.000183 -0.000691
                                -0.002169 -0.003421 -0.001482 -0.005566 -0.007259  0.002565  0.002193  0.042110 -0.057333  0.104614
                                -0.107116  0.144308 -0.109616  0.039150 -0.034209  0.239836 -0.000003  0.000000 -0.005265  0.000000
                                -0.036766 -0.000000 -0.106267  0.000000 -0.000247 -0.000000 -0.006789  0.000000 -0.033107 -0.000000
                                -0.000256 -0.002094 -0.004712 -0.011568  0.031791  0.316751  0.000230 -0.000024 -0.000658  0.000707
                                -0.030863 -0.000002 -0.000038  0.000000  0.002858 -0.000000

                                   1 3d2-    1 3d2-    1 3d2-    1 3d2-    1 3d2-    1 3d2-    1 3d2-    1 3d2-    1 3d2-    1 3d2- 
                                   1 3d2-    1 3d2-    1 3d2-    1 3d2-    1 3d2-    1 3d2-    1 3d2-    1 3d2-    1 3d2-    1 3d2- 
                                   1 4f2-    1 4f2-    1 4f2-    1 4f2-    1 5g2-    1 5g4-    1 5g2-    1 5g4-    1 5g2-    1 5g4- 
                                   2 3d2-    2 3d2-    2 3d2-    2 3d2-    2 4f2-    2 4f2- 

   1.4   2    -6.4466  -79.7460  0.000171  0.001504  0.008887  0.034992  0.101905  0.219174 -0.000667  0.324232  0.332800  0.197810
                                 0.047877  0.001586 -0.002839  0.005661 -0.004203  0.003309 -0.001978  0.000993 -0.000106  0.000027
                                 0.000230 -0.000223  0.000045 -0.000015 -0.000172 -0.000000 -0.000010  0.000000 -0.000001 -0.000000
                                -0.000001  0.000014  0.000002  0.000000  0.000001 -0.000030

   2.4   0     0.0295   -3.9449 -0.000004 -0.000023 -0.000180 -0.000534 -0.002302  0.001750 -0.007952 -0.000916 -0.011356  0.013185
                                -0.066033  0.251780 -0.505879  0.658554 -0.921386  1.301163 -1.814746  1.597095 -0.840729  1.405848
                                 0.000034 -0.001366 -0.004573 -0.040443 -0.000154 -0.000000 -0.000946 -0.000000 -0.005326 -0.000000
                                 0.000299  0.000960  0.001605  0.000017 -0.000092 -0.000164

   3.4   0     0.0657   -9.3107 -0.000014 -0.000131 -0.000725 -0.003080 -0.008176 -0.025671  0.009570 -0.032797 -0.018683 -0.015081
                                 0.167046 -0.324653  0.817710 -0.849769  1.461229 -1.760696  2.773156 -2.141553  1.786988 -1.094616
                                -0.000260 -0.004478 -0.028289 -0.101193 -0.000625 -0.000000 -0.005011 -0.000000 -0.014180  0.000000
                                 0.001142  0.004573  0.004428  0.000081 -0.000606 -0.000567

 HOMO     13.1    -0.214932 =      -5.8486eV
 LUMO      6.2     0.001223 =       0.0333eV
 LUMO-HOMO         0.216154 =       5.8819eV


 **********************************************************************************************************************************
 DATASETS  * FILE   NREC   LENGTH (MB)   RECORD NAMES
              1      22       22.27       500      610      700      900      950      970     1000      129      960     1700   
                                          VAR    BASINP    GEOM    SYMINP    ZMAT    AOBASIS   BASIS     P2S    ABASIS    OPER   
                                         1101     1401     1411     1412     1650     1100     1400     1410     1200     1210   
                                          SR      EKINR    POTR     PVPR    MOLCAS      S      EKIN      POT      H0       H01  
                                         1080     1600   
                                         AOSYM     SMH  

              2       4        3.78       700     1000      520     2100   
                                         GEOM     BASIS   MCVARS     RHF  

 PROGRAMS   *        TOTAL       RHF       INT
 CPU TIMES  *        57.57      3.29     54.08
 REAL TIME  *        61.31 SEC
 DISK USED  *         3.55 GB      
 SF USED    *         0.14 MB      
 GA USED    *         0.00 MB       (max)       0.00 MB       (current)
 **********************************************************************************************************************************
 SETTING SCF            =     -3457.98562018  AU                              
 SETTING _CC_NORM_MAX   =         2.00000000                                  


 PROGRAM * CCSD (Restricted open-shell coupled cluster)     Authors: C. Hampel, H.-J. Werner, 1991, M. Deegan, P.J. Knowles, 1992


 Convergence thresholds:  THRVAR = 1.00D-08  THRDEN = 1.00D-06

 CCSD(T)     terms to be evaluated (factor= 1.000)


 Number of core orbitals:          15 (   8   3   3   1 )
 Number of closed-shell orbitals:   8 (   4   2   2   0 )
 Number of active  orbitals:        1 (   1   0   0   0 )
 Number of external orbitals:     311 ( 134  71  71  35 )

 Memory could be reduced to 131.71 Mwords without degradation in triples

 Number of N-1 electron functions:              17
 Number of N-2 electron functions:             136
 Number of singly external CSFs:              1783
 Number of doubly external CSFs:           2657040
 Total number of CSFs:                     2658823

 Molecular orbitals read from record     2100.2  Type=RHF/CANONICAL (state 1.1)

 Integral transformation finished. Total CPU:   4.01 sec, npass=  1  Memory used:  14.00 MW

 Starting RMP2 calculation

 Wavefunction is spin-projected

 ITER.      SQ.NORM     CORR.ENERGY   TOTAL ENERGY   ENERGY CHANGE        DEN1      VAR(S)    VAR(P)  DIIS     TIME
   1      1.16390052    -0.58426724 -3458.56988743    -0.58426724    -0.00203250  0.28D-05  0.91D-03  1  1     4.48
   2      1.16607768    -0.58645376 -3458.57207394    -0.00218652    -0.00000408  0.36D-07  0.26D-05  2  2     4.77
   3      1.16616835    -0.58650281 -3458.57212300    -0.00004906    -0.00000001  0.50D-09  0.66D-08  3  3     5.12
   4      1.16616991    -0.58650308 -3458.57212326    -0.00000026    -0.00000000  0.84D-11  0.39D-10  4  4     5.39

 Norm of t1 vector:      0.01187220      S-energy:    -0.00017135      T1 diagnostic:  0.00005571
 Norm of t2 vector:      0.40746651      P-energy:    -0.58633172
                                         Alpha-Beta:  -0.42443956
                                         Alpha-Alpha: -0.08531879
                                         Beta-Beta:   -0.07657337

 Spin contamination <S**2-Sz**2-Sz>     0.00000000
  Reference energy                  -3457.985620184879
  RHF-RMP2 correlation energy          -0.586503075486
 !RHF-RMP2 energy                   -3458.572123260365
 (NB above energy spin projected)

 Starting RCCSD calculation

 ITER.      SQ.NORM     CORR.ENERGY   TOTAL ENERGY   ENERGY CHANGE        DEN1      VAR(S)    VAR(P)  DIIS     TIME
   1      1.14674141    -0.55827636 -3458.54389655    -0.55827636    -0.02104895  0.94D-02  0.36D-02  1  1     8.40
   2      1.16057393    -0.57452264 -3458.56014282    -0.01624628    -0.00237021  0.48D-03  0.86D-03  2  2    11.05
   3      1.16835061    -0.57587068 -3458.56149087    -0.00134804    -0.00047079  0.54D-03  0.47D-04  3  3    13.73
   4      1.17391447    -0.57724935 -3458.56286954    -0.00137867    -0.00011200  0.15D-03  0.14D-04  4  4    16.40
   5      1.17922323    -0.57788349 -3458.56350367    -0.00063413    -0.00002579  0.44D-04  0.22D-05  5  5    19.11
   6      1.18202053    -0.57805483 -3458.56367501    -0.00017134    -0.00000742  0.12D-04  0.11D-05  6  6    21.91
   7      1.18358925    -0.57814362 -3458.56376381    -0.00008879    -0.00000205  0.29D-05  0.30D-06  6  1    24.58
   8      1.18437349    -0.57817323 -3458.56379341    -0.00002960    -0.00000030  0.37D-06  0.42D-07  6  3    27.36
   9      1.18466353    -0.57819292 -3458.56381311    -0.00001970    -0.00000004  0.42D-07  0.61D-08  6  2    30.13
  10      1.18470550    -0.57819751 -3458.56381770    -0.00000459    -0.00000001  0.67D-08  0.21D-08  6  4    32.88
  11      1.18471691    -0.57819669 -3458.56381688     0.00000082    -0.00000000  0.23D-08  0.40D-09  6  5    35.64

 Norm of t1 vector:      0.16838046      S-energy:    -0.00022054      T1 diagnostic:  0.02873562
                                                                       D1 diagnostic:  0.07771689
 Norm of t2 vector:      0.39543005      P-energy:    -0.57797615
                                         Alpha-Beta:  -0.43580064
                                         Alpha-Alpha: -0.07566663
                                         Beta-Beta:   -0.06650888

 Singles amplitudes (print threshold =  0.500E-01):

         I         SYM. A    A   T(IA) [Alpha-Alpha]

         5         1         2      0.05138071
         5         1         6     -0.06992323

 Spin contamination <S**2-Sz**2-Sz>     0.00000000

 Memory could be reduced to 136.27 Mwords without degradation in triples
 

  Correlated core orbitals:             9.1      10.1       4.2       4.3
  Orbital energies:                    -2.2184   -1.4131   -1.2873   -1.2873
 
  RCCSD core-core energy               -0.160231258842
  RCCSD core-valence energy            -0.133384126593
  RCCSD valence correlation energy     -0.284581306855
 

 RESULTS
 =======

  Reference energy                  -3457.985620184879
  RCCSD singles energy                 -0.000220541488
  RCCSD pair energy                    -0.577976150802
  RCCSD correlation energy             -0.578196692290
  Triples (T) contribution             -0.029450555970
  Total correlation energy             -0.607647248260
 
  RHF-RCCSD energy                  -3458.563816877169
  RHF-RCCSD[T] energy               -3458.597008184295
  RHF-RCCSD-T energy                -3458.592308552150
 !RHF-RCCSD(T) energy               -3458.593267433139

 Program statistics:

 Available memory in ccsd:               999999162
 Min. memory needed in ccsd:               8066079
 Max. memory used in ccsd:                11250600
 Max. memory used in cckext:              10366964 (11 integral passes)
 Max. memory used in cckint:              13995209 ( 1 integral passes)



 **********************************************************************************************************************************
 DATASETS  * FILE   NREC   LENGTH (MB)   RECORD NAMES
              1      22       22.27       500      610      700      900      950      970     1000      129      960     1700   
                                          VAR    BASINP    GEOM    SYMINP    ZMAT    AOBASIS   BASIS     P2S    ABASIS    OPER   
                                         1101     1401     1411     1412     1650     1100     1400     1410     1200     1210   
                                          SR      EKINR    POTR     PVPR    MOLCAS      S      EKIN      POT      H0       H01  
                                         1080     1600   
                                         AOSYM     SMH  

              2       4        3.78       700     1000      520     2100   
                                         GEOM     BASIS   MCVARS     RHF  

 PROGRAMS   *        TOTAL  RCCSD(T)       RHF       INT
 CPU TIMES  *       131.51     73.87      3.29     54.08
 REAL TIME  *       150.96 SEC
 DISK USED  *         7.16 GB      
 SF USED    *         2.03 GB      
 GA USED    *         0.00 MB       (max)       0.00 MB       (current)
 **********************************************************************************************************************************
 SETTING CCSD           =     -3458.59326743  AU                              
 SETTING BIND           =        -0.25721833  AU                              
 Output type csv         
                                                                                                                                                                                                                                                                

  1.70,SCF,CCSD,BIND
   1.7,   -3457.985620,   -3458.593267,   -0.25721833
                                                  

 RCCSD(T)/USERDEF energy=  -3458.593267433139

        RCCSD(T)        RHF-SCF 
  -3458.59326743  -3457.98562018
 **********************************************************************************************************************************
 Molpro calculation terminated
 Variable memory released
