<?xml version="1.0"?>
<molpro xmlns="http://www.molpro.net/schema/molpro-output"
  xmlns:xsd="http://www.w3.org/1999/XMLSchema"
  xmlns:cml="http://www.xml-cml.org/schema"
  xmlns:stm="http://www.xml-cml.org/schema"
  xmlns:xhtml="http://www.w3.org/1999/xhtml">
 <!--

 Nodes     nprocs
 nid01822    11
 Number of processes for MPI-2 version of Molpro:   nprocs(total)=   12   nprocs(compute)=   11   nprocs(helper)=    1

 Using customized tuning parameters: mindgm=7; mindgv=16; mindgc=1; mindgr=1; noblas=0; minvec=7
 default implementation of scratch files=sf

 --><job>
  <!--

 Variables initialized (889), CPU time= 0.03 sec
 Commands  initialized (702), CPU time= 0.03 sec, 572 directives.
 Default parameters read. Elapsed time= 0.87 sec

 Checking input...
 Passed
1


                                         ***  PROGRAM SYSTEM MOLPRO  ***
                                       Copyright, TTI GmbH Stuttgart, 2015
                                    Version 2015.1 linked Dec 29 2018 15:55:43


 **********************************************************************************************************************************
 LABEL *   Calculation for Lu atom, singlet and triplet
  64 bit mpp version                                                                     DATE: 17-Apr-23          TIME: 12:14:49
 **********************************************************************************************************************************

 SHA1:             19cd028119e0e09f93f0674bd8af7968d9b3eff6
 **********************************************************************************************************************************
  -->
  <!--

 THRESHOLDS:

 ZERO    =  1.00D-12  ONEINT  =  1.00D-12  TWOINT  =  1.00D-15  PREFAC  =  1.00D-14  LOCALI  =  1.00D-09  EORDER  =  1.00D-04
 ENERGY  =  0.00D+00  ETEST   =  0.00D+00  EDENS   =  0.00D+00  THRDEDEF=  1.00D-06  GRADIENT=  1.00D-02  STEP    =  1.00D-03
 ORBITAL =  1.00D-05  CIVEC   =  1.00D-05  COEFF   =  1.00D-04  PRINTCI =  5.00D-02  PUNCHCI =  9.90D+01  OPTGRAD =  3.00D-04
 OPTENERG=  1.00D-06  OPTSTEP =  3.00D-04  THRGRAD =  1.00D-10  COMPRESS=  1.00D-11  VARMIN  =  1.00D-07  VARMAX  =  1.00D-03
 THRDOUB =  0.00D+00  THRDIV  =  1.00D-05  THRRED  =  1.00D-07  THRPSP  =  1.00D+00  THRDC   =  1.00D-10  THRCS   =  1.00D-10
 THRNRM  =  1.00D-08  THREQ   =  0.00D+00  THRDE   =  1.00D+00  THRREF  =  1.00D-05  SPARFAC =  1.00D+00  THRDLP  =  1.00D-07
 THRDIA  =  1.00D-10  THRDLS  =  1.00D-07  THRGPS  =  0.00D+00  THRKEX  =  0.00D+00  THRDIS  =  2.00D-01  THRVAR  =  1.00D-10
 THRLOC  =  1.00D-06  THRGAP  =  1.00D-06  THRLOCT = -1.00D+00  THRGAPT = -1.00D+00  THRORB  =  1.00D-06  THRMLTP =  0.00D+00
 THRCPQCI=  1.00D-10  KEXTA   =  0.00D+00  THRCOARS=  0.00D+00  SYMTOL  =  1.00D-06  GRADTOL =  1.00D-06  THROVL  =  1.00D-08
 THRORTH =  1.00D-08  GRID    =  1.00D-06  GRIDMAX =  1.00D-03  DTMAX   =  0.00D+00  THROCCDE=  1.00D-01  THROCCDE=  1.00D-01



 THRESHOLDS:

 ZERO    =  1.00D-12  ONEINT  =  1.00D-15  TWOINT  =  1.00D-15  PREFAC  =  1.00D-14  LOCALI  =  1.00D-09  EORDER  =  1.00D-04
 ENERGY  =  0.00D+00  ETEST   =  0.00D+00  EDENS   =  0.00D+00  THRDEDEF=  1.00D-06  GRADIENT=  1.00D-02  STEP    =  1.00D-03
 ORBITAL =  1.00D-05  CIVEC   =  1.00D-05  COEFF   =  1.00D-04  PRINTCI =  5.00D-02  PUNCHCI =  9.90D+01  OPTGRAD =  3.00D-04
 OPTENERG=  1.00D-06  OPTSTEP =  3.00D-04  THRGRAD =  1.00D-10  COMPRESS=  1.00D-11  VARMIN  =  1.00D-07  VARMAX  =  1.00D-03
 THRDOUB =  0.00D+00  THRDIV  =  1.00D-05  THRRED  =  1.00D-07  THRPSP  =  1.00D+00  THRDC   =  1.00D-10  THRCS   =  1.00D-10
 THRNRM  =  1.00D-08  THREQ   =  0.00D+00  THRDE   =  1.00D+00  THRREF  =  1.00D-05  SPARFAC =  1.00D+00  THRDLP  =  1.00D-07
 THRDIA  =  1.00D-10  THRDLS  =  1.00D-07  THRGPS  =  0.00D+00  THRKEX  =  0.00D+00  THRDIS  =  2.00D-01  THRVAR  =  1.00D-10
 THRLOC  =  1.00D-06  THRGAP  =  1.00D-06  THRLOCT = -1.00D+00  THRGAPT = -1.00D+00  THRORB  =  1.00D-06  THRMLTP =  0.00D+00
 THRCPQCI=  1.00D-10  KEXTA   =  0.00D+00  THRCOARS=  0.00D+00  SYMTOL  =  1.00D-06  GRADTOL =  1.00D-06  THROVL  =  1.00D-08
 THRORTH =  1.00D-08  GRID    =  1.00D-06  GRIDMAX =  1.00D-03  DTMAX   =  0.00D+00  THROCCDE=  1.00D-01  THROCCDE=  1.00D-01



Geometry recognized as XYZ


 Variable memory set to 1000000000 words,  buffer space   230000 words

 SETTING BASIS          =    USERDEF

 DO I                   =         4.00000000

 Running procedure=IEF1S2
  --><jobstep command="RHF-SCF" commandset="SCFPRO">
   <!--


 Recomputing integrals since basis changed


 Using spherical harmonics



 PROGRAM * SEWARD (Integral evaluation for generally contracted gaussian basis sets)     Author: Roland Lindh, 1990

 Geometry written to block  1 of record 700

 Orientation using atomic masses
 Molecule type: Atom
 Symmetry elements: X,Y,Z
 Rotational constants:       0.0000000      0.0000000      0.0000000 GHz  (calculated with average atomic masses)

 Point group  D2h


   --><cml:molecule>
    <cml:symmetry pointGroup="D2h"/>
    <cml:atomArray>
     <cml:atom id="a1" elementType="Lu" x3="0.0" y3="0.0" z3="0.0"/>
    </cml:atomArray>
    <cml:bondArray>
    </cml:bondArray>
   </cml:molecule><!--

 ATOMIC COORDINATES

 NR  ATOM    CHARGE       X              Y              Z

   1  LU     25.00    0.000000000    0.000000000    0.000000000

 NUCLEAR CHARGE:                   25
 NUMBER OF PRIMITIVE AOS:         463
 NUMBER OF SYMMETRY AOS:          341
 NUMBER OF CONTRACTIONS:          341   (  77Ag  +  54B3u +  54B2u +  28B1g +  54B1u +  28B2g +  28B3g +  18Au  )
 NUMBER OF CORE ORBITALS:           0   (   0Ag  +   0B3u +   0B2u +   0B1g +   0B1u +   0B2g +   0B3g +   0Au  )
 NUMBER OF VALENCE ORBITALS:       17   (   4Ag  +   3B3u +   3B2u +   1B1g +   3B1u +   1B2g +   1B3g +   1Au  )


 NUCLEAR REPULSION ENERGY    0.00000000

 EXTRA SYMMETRY OF AOS IN SYMMETRY 1:   1 1 1 1 1 1 1 1 1 1   1 1 1 1 1 1 1 1 1 1   1 1 1 1 1 1 1 2 3 2   3 2 3 2 3 2 3 2 3 2
                                        3 2 3 2 3 2 3 2 3 2   3 2 3 2 3 2 3 2 3 4   5 6 4 5 6 4 5 6 4 5   6 4 5 6 4 5 6
 EXTRA SYMMETRY OF AOS IN SYMMETRY 2:   1 1 1 1 1 1 1 1 1 1   1 1 1 1 1 1 1 1 1 1   1 1 2 3 2 3 2 3 2 3   2 3 2 3 2 3 2 3 2 3
                                        2 3 4 5 6 4 5 6 4 5   6 4 5 6
 EXTRA SYMMETRY OF AOS IN SYMMETRY 3:   1 1 1 1 1 1 1 1 1 1   1 1 1 1 1 1 1 1 1 1   1 1 2 3 2 3 2 3 2 3   2 3 2 3 2 3 2 3 2 3
                                        2 3 4 5 6 4 5 6 4 5   6 4 5 6
 EXTRA SYMMETRY OF AOS IN SYMMETRY 4:   1 1 1 1 1 1 1 1 1 1   1 1 1 1 1 1 2 3 2 3   2 3 2 3 2 3 2 3
 EXTRA SYMMETRY OF AOS IN SYMMETRY 5:   1 1 1 1 1 1 1 1 1 1   1 1 1 1 1 1 1 1 1 1   1 1 2 3 2 3 2 3 2 3   2 3 2 3 2 3 2 3 2 3
                                        2 3 4 5 6 4 5 6 4 5   6 4 5 6
 EXTRA SYMMETRY OF AOS IN SYMMETRY 6:   1 1 1 1 1 1 1 1 1 1   1 1 1 1 1 1 2 3 2 3   2 3 2 3 2 3 2 3
 EXTRA SYMMETRY OF AOS IN SYMMETRY 7:   1 1 1 1 1 1 1 1 1 1   1 1 1 1 1 1 2 3 2 3   2 3 2 3 2 3 2 3
 EXTRA SYMMETRY OF AOS IN SYMMETRY 8:   1 1 1 1 1 1 1 1 1 1   2 3 2 3 2 3 2 3

 Eigenvalues of metric

         1 0.198E-06 0.285E-05 0.880E-05 0.110E-03 0.147E-03 0.147E-03 0.226E-03 0.428E-03
         2 0.115E-06 0.864E-04 0.280E-03 0.685E-03 0.202E-02 0.951E-02 0.162E-01 0.364E-01
         3 0.115E-06 0.864E-04 0.280E-03 0.685E-03 0.202E-02 0.951E-02 0.162E-01 0.364E-01
         4 0.147E-03 0.324E-02 0.233E-01 0.406E-01 0.866E-01 0.997E-01 0.997E-01 0.141E+00
         5 0.115E-06 0.864E-04 0.280E-03 0.685E-03 0.202E-02 0.951E-02 0.162E-01 0.364E-01
         6 0.147E-03 0.324E-02 0.233E-01 0.406E-01 0.866E-01 0.997E-01 0.997E-01 0.141E+00
         7 0.147E-03 0.324E-02 0.233E-01 0.406E-01 0.866E-01 0.997E-01 0.997E-01 0.141E+00
         8 0.437E-01 0.880E-01 0.207E+00 0.366E+00 0.366E+00 0.370E+00 0.551E+00 0.646E+00


 Contracted 2-electron integrals neglected if value below      1.0D-15
 AO integral compression algorithm  1   Integral accuracy      1.0D-15

     1450.181 MB (compressed) written to integral file ( 50.0%)

     Node minimum: 103.023 MB, node maximum: 163.578 MB


 NUMBER OF SORTED TWO-ELECTRON INTEGRALS:   19830178.     BUFFER LENGTH:  32768
 NUMBER OF SEGMENTS:   1  SEGMENT LENGTH:   19830178      RECORD LENGTH: 524288

 Memory used in sort:      20.39 MW

 SORT1 READ   362089039. AND WROTE    12371716. INTEGRALS IN     36 RECORDS. CPU TIME:     8.75 SEC, REAL TIME:     9.07 SEC
 SORT2 READ   135657947. AND WROTE   217701552. INTEGRALS IN   4730 RECORDS. CPU TIME:     0.50 SEC, REAL TIME:     1.05 SEC

 Node minimum:    19722951.  Node maximum:    19859000. integrals

 OPERATOR DM      FOR CENTER  0  COORDINATES:    0.000000    0.000000    0.000000


 **********************************************************************************************************************************
 DATASETS  * FILE   NREC   LENGTH (MB)   RECORD NAMES
              1      19       20.70       500      610      700      900      950      970     1000      129      960     1100
                                          VAR    BASINP    GEOM    SYMINP    ZMAT    AOBASIS   BASIS     P2S    ABASIS      S
                                         1400     1410     1420     1200     1210     1080     1600     1650     1700
                                           T        V       ECP      H0       H01     AOSYM     SMH    MOLCAS    OPER

 PROGRAMS   *        TOTAL       INT
 CPU TIMES  *        33.66     32.32
 REAL TIME  *        35.93 SEC
 DISK USED  *         3.08 GB
 GA USED    *         0.00 MB       (max)       0.00 MB       (current)
 **********************************************************************************************************************************


 PROGRAM * RHF-SCF (CLOSED SHELL)       Authors: W. Meyer, H.-J. Werner


 NUMBER OF ELECTRONS:      12+   12-    SPACE SYMMETRY=1    SPIN SYMMETRY: Singlet
 CONVERGENCE THRESHOLDS:    1.00E-05 (Density)    1.00E-07 (Energy)
 MAX. NUMBER OF ITERATIONS:      150
 INTERPOLATION TYPE:            DIIS
 INTERPOLATION STEPS:              2 (START)      1 (STEP)
 LEVEL SHIFTS:                  0.00 (CLOSED)  0.00 (OPEN)

 Number of closed-shell orbitals:   12 (   2   3   3   0   3   0   0   1 )



 Extra symmetries of mos in symmetry 2:   3   2   1   3   2
 Extra symmetries of mos in symmetry 3:   3   2   1   3   2
 Extra symmetries of mos in symmetry 5:   3   2   1   3   2
 Guess basis ATOMIC-GUESS,LU=ECP46_GUESS not found. No density guess!


 Molecular orbital dump at record        4202.2

 ITERATION    DDIFF          GRAD             ENERGY        2-EL.EN.            DIPOLE MOMENTS         DIIS   ORB.
    1      0.000D+00      0.000D+00      -164.33722655    571.372161    0.00000    0.00000    0.00000    0    start
    2      0.000D+00      0.496D+00      -103.15079832     83.244758    0.00000    0.00000    0.00000    0    diag
    3      0.213D+01      0.305D+00      -168.09506936    563.498141    0.00000    0.00000    0.00000    1    diag
    4      0.181D+01      0.478D+00      -193.43950603    469.608919    0.00000    0.00000    0.00000    2    diag
    5      0.632D+00      0.265D+00      -201.40336681    464.936692    0.00000    0.00000    0.00000    3    diag
    6      0.452D+00      0.196D+00      -208.13687315    420.400636    0.00000    0.00000    0.00000    4    diag
    7      0.248D+00      0.908D-01      -210.31281367    369.535456    0.00000    0.00000    0.00000    5    diag
    8      0.650D-01      0.143D-01      -210.34555694    369.732551    0.00000    0.00000    0.00000    6    diag
    9      0.110D-01      0.668D-02      -210.35504970    372.024167    0.00000    0.00000    0.00000    7    diag
   10      0.602D-02      0.115D-02      -210.35566818    372.506601    0.00000    0.00000    0.00000    8    orth
   11      0.190D-02      0.250D-03      -210.35583805    372.371772    0.00000    0.00000    0.00000    9    diag
   12      0.457D-03      0.114D-03      -210.35589176    372.337326    0.00000    0.00000    0.00000    9    diag
   13      0.317D-03      0.861D-04      -210.35590328    372.357498    0.00000    0.00000    0.00000    9    diag
   14      0.211D-03      0.197D-04      -210.35590652    372.359400    0.00000    0.00000    0.00000    9    diag
   15      0.399D-04      0.189D-04      -210.35590979    372.356084    0.00000    0.00000    0.00000    9    diag
   16      0.334D-04      0.166D-04      -210.35591662    372.355881    0.00000    0.00000    0.00000    9    diag
   17      0.640D-04      0.154D-04      -210.35592806    372.354661    0.00000    0.00000    0.00000    9    diag
   18      0.118D-03      0.133D-04      -210.35594670    372.354968    0.00000    0.00000    0.00000    9    diag
   19      0.276D-03      0.935D-05      -210.35595066    372.353307    0.00000    0.00000    0.00000    9    diag
   20      0.991D-04      0.626D-05      -210.35595361    372.355264    0.00000    0.00000    0.00000    9    orth
   21      0.165D-03      0.373D-05      -210.35595369    372.354623    0.00000    0.00000    0.00000    9    diag
   22      0.141D-04      0.186D-05      -210.35595372    372.354410    0.00000    0.00000    0.00000    9    diag
   23      0.184D-04      0.710D-06      -210.35595372    372.354687    0.00000    0.00000    0.00000    9    diag
   24      0.144D-05      0.209D-06      -210.35595372    372.354618    0.00000    0.00000    0.00000    0    orth

 Final occupancy:   2   3   3   0   3   0   0   1

 !RHF STATE 1.1 Energy               -210.355953724362
   --><property name="Energy" method="RHF" principal="true" stateSymmetry="1" stateNumber="1"
     value="-210.355953724362"/><!--
 Nuclear energy                         0.00000000
 One-electron energy                 -396.53326277
 Two-electron energy                  186.17730905
 Virial quotient                       -1.22923158
 !RHF STATE 1.1 Dipole moment           0.00000000     0.00000000     0.00000000
 Dipole moment /Debye                   0.00000000     0.00000000     0.00000000
   --><property name="Dipole moment" method="RHF" principal="true" stateSymmetry="1"
     stateNumber="1" value="0.0 0.0 0.0"/><!--

 ELECTRON ORBITALS
 =================


   Orb  Occ    Energy  Couls-En    Coefficients

                                   1 1s      1 1s      1 1s      1 1s      1 1s      1 1s      1 1s      1 1s      1 1s      1 1s
                                   1 1s      1 1s      1 1s      1 1s      1 1s      1 1s      1 1s      1 1s      1 1s      1 1s
                                   1 1s      1 1s      1 1s      1 1s      1 1s      1 1s      1 1s      1 3d0     1 3d2+    1 3d0
                                   1 3d2+    1 3d0     1 3d2+    1 3d0     1 3d2+    1 3d0     1 3d2+    1 3d0     1 3d2+    1 3d0
                                   1 3d2+    1 3d0     1 3d2+    1 3d0     1 3d2+    1 3d0     1 3d2+    1 3d0     1 3d2+    1 3d0
                                   1 3d2+    1 3d0     1 3d2+    1 3d0     1 3d2+    1 3d0     1 3d2+    1 3d0     1 3d2+    1 5g0
                                   1 5g4+    1 5g2+    1 5g0     1 5g4+    1 5g2+    1 5g0     1 5g4+    1 5g2+    1 5g0     1 5g4+
                                   1 5g2+    1 5g0     1 5g4+    1 5g2+    1 5g0     1 5g4+    1 5g2+

   1.1   2    -2.9412  -20.9207 -0.000000  0.000000 -0.000000  0.000000 -0.000000  0.000001 -0.000015  0.000023 -0.000372  0.000393
                                -0.000082  0.000587 -0.001090  0.001020 -0.041334  0.045309 -0.107136  0.262919  0.056527 -0.964722
                                 0.227699  0.860058  0.434501  0.002009  0.008330 -0.002558  0.000571 -0.000000  0.000000  0.000001
                                -0.000000 -0.000005  0.000000  0.000023 -0.000000 -0.000101  0.000000  0.000823 -0.000000 -0.002092
                                 0.000000  0.003418 -0.000000 -0.003030  0.000000  0.002464 -0.000000 -0.002716  0.000000 -0.008480
                                 0.000001  0.001366 -0.000000 -0.000117  0.000000  0.000123 -0.000000 -0.000041  0.000000 -0.000010
                                 0.000000 -0.000000 -0.000013  0.000000 -0.000000 -0.000140  0.000000 -0.000000  0.000103  0.000000
                                -0.000000  0.002387  0.000000  0.000000  0.000334 -0.000000  0.000000

   2.1   2    -0.5471  -12.3941 -0.000000  0.000000 -0.000000  0.000000 -0.000000  0.000000 -0.000001  0.000002 -0.000038  0.000040
                                -0.000008  0.000061 -0.000116  0.000113 -0.007065  0.007821 -0.008466  0.019951 -0.005311 -0.042292
                                 0.014638  0.053952  0.028857 -0.034676 -0.054491 -0.006653  0.000565  0.000005  0.000000 -0.000036
                                -0.000000  0.000188  0.000000 -0.000808 -0.000000  0.003506  0.000000 -0.028700 -0.000001  0.073229
                                 0.000002 -0.120217 -0.000003  0.106580  0.000003 -0.088528 -0.000002  0.087113  0.000002  0.424680
                                 0.000011  0.453465  0.000011  0.280081  0.000007 -0.049730 -0.000001  0.016738  0.000000  0.000044
                                -0.000000 -0.000000 -0.000227  0.000000  0.000000  0.000358 -0.000000 -0.000000 -0.003621  0.000000
                                 0.000000 -0.009841  0.000000  0.000000 -0.002975  0.000000  0.000000

   3.1   0    -0.1987  -11.1556  0.000000 -0.000000  0.000000 -0.000000  0.000000 -0.000000  0.000000 -0.000000  0.000000 -0.000000
                                 0.000000 -0.000000  0.000000 -0.000000  0.000002 -0.000002  0.000002 -0.000005  0.000001  0.000010
                                -0.000003 -0.000012 -0.000009 -0.000002  0.000020  0.000020  0.000001 -0.000000  0.000004  0.000000
                                -0.000032 -0.000000  0.000165  0.000000 -0.000707 -0.000000  0.003069  0.000001 -0.025117 -0.000001
                                 0.064069  0.000002 -0.105122 -0.000002  0.093114  0.000002 -0.076848 -0.000002  0.072914 -0.000008
                                 0.367404 -0.000010  0.415878 -0.000010  0.384249 -0.000001  0.018677 -0.000001  0.021376 -0.000000
                                -0.000000  0.000025  0.000000  0.000000 -0.000126 -0.000000 -0.000000  0.000212  0.000000  0.000000
                                -0.002816  0.000000  0.000001 -0.008139  0.000000  0.000000 -0.006018

   4.1   0    -0.1789   -6.5489  0.000000 -0.000000  0.000000 -0.000000  0.000000 -0.000001  0.000009 -0.000014  0.000222 -0.000235
                                 0.000049 -0.000361  0.000679 -0.000665  0.040836 -0.045175  0.049254 -0.115909  0.028402  0.251536
                                -0.083972 -0.271601 -0.247222 -0.104249  0.473224  0.703602  0.052801  0.000000 -0.000000 -0.000003
                                 0.000000  0.000015 -0.000000 -0.000064  0.000000  0.000278 -0.000000 -0.002282  0.000001  0.005836
                                -0.000002 -0.009621  0.000003  0.008578 -0.000003 -0.007274  0.000003  0.007100 -0.000002  0.039063
                                -0.000012  0.026946 -0.000013  0.003862 -0.000011 -0.010757 -0.000000  0.000777 -0.000001 -0.000007
                                 0.000000 -0.000000  0.000060 -0.000000  0.000000 -0.000010 -0.000000 -0.000000  0.001068 -0.000000
                                 0.000000  0.001180 -0.000000  0.000000 -0.000615 -0.000000  0.000000

                                   1 2px     1 2px     1 2px     1 2px     1 2px     1 2px     1 2px     1 2px     1 2px     1 2px
                                   1 2px     1 2px     1 2px     1 2px     1 2px     1 2px     1 2px     1 2px     1 2px     1 2px
                                   1 2px     1 2px     1 4f1+    1 4f3+    1 4f1+    1 4f3+    1 4f1+    1 4f3+    1 4f1+    1 4f3+
                                   1 4f1+    1 4f3+    1 4f1+    1 4f3+    1 4f1+    1 4f3+    1 4f1+    1 4f3+    1 4f1+    1 4f3+
                                   1 4f1+    1 4f3+    1 6h1+    1 6h3+    1 6h5+    1 6h1+    1 6h3+    1 6h5+    1 6h1+    1 6h3+
                                   1 6h5+    1 6h1+    1 6h3+    1 6h5+

   1.2   2    -0.4518  -17.6961 -0.000000  0.000000 -0.000000  0.000000 -0.000000  0.000000 -0.000000  0.000000 -0.000000  0.000000
                                -0.000000  0.000005 -0.000005  0.000001 -0.000001 -0.000001  0.000002  0.000002 -0.000000 -0.000005
                                -0.000004 -0.000000 -0.000000  0.000004  0.000000 -0.000167 -0.000000  0.009717 -0.000005  0.207807
                                -0.000008  0.319585 -0.000010  0.393047 -0.000007  0.285449 -0.000003  0.129917 -0.000002  0.090702
                                 0.000000 -0.006643 -0.000000  0.000008 -0.000000  0.000000 -0.000106  0.000000  0.000000 -0.000912
                                 0.000000  0.000000 -0.001615  0.000000

   2.2   2    -0.4352  -17.5545 -0.000000  0.000000 -0.000000  0.000000 -0.000003  0.000066 -0.000098  0.000086 -0.000451  0.000783
                                -0.001751  0.113629 -0.125205  0.017865 -0.010381 -0.018795  0.034319  0.027727  0.005797 -0.031430
                                -0.018868  0.000027  0.000003  0.000000 -0.000163 -0.000000  0.009613  0.000000  0.205925  0.000005
                                 0.316371  0.000008  0.389016  0.000010  0.284062  0.000007  0.137316  0.000004  0.101605  0.000003
                                -0.005506 -0.000000  0.000021 -0.000000 -0.000000 -0.000274  0.000000  0.000000 -0.003086  0.000000
                                 0.000000 -0.004425  0.000000  0.000000

   3.2   2    -1.8423  -17.8838  0.000000 -0.000000  0.000002 -0.000012  0.000078 -0.001624  0.002389 -0.002099  0.010991 -0.019055
                                 0.042291 -2.692310  2.962002 -0.413653  0.227111  0.407103 -0.686531 -0.563872 -0.223883  0.014036
                                -0.008777  0.002033 -0.000002  0.000000  0.000011 -0.000000  0.000068 -0.000000  0.002966 -0.000000
                                 0.003748 -0.000000  0.008141 -0.000000  0.012540 -0.000001  0.005761  0.000000  0.001994  0.000000
                                -0.000309 -0.000000  0.000012  0.000000 -0.000000 -0.000027  0.000000 -0.000000  0.000537  0.000000
                                 0.000000 -0.000109  0.000000  0.000000

   4.2   0     0.0305   -3.3775 -0.000000  0.000000 -0.000000  0.000000 -0.000000  0.000000 -0.000000  0.000000 -0.000000  0.000000
                                -0.000000  0.000003 -0.000004  0.000000 -0.000000 -0.000000  0.000000  0.000001 -0.000000  0.000001
                                -0.000005  0.000002  0.000000 -0.000006 -0.000000  0.000049  0.000000 -0.000780  0.000000 -0.012432
                                 0.000000 -0.021652  0.000000 -0.019054  0.000001 -0.033658 -0.000001  0.035047  0.000002 -0.089148
                                -0.000027  1.040385 -0.000000 -0.000000 -0.000000 -0.000000  0.000004  0.000000 -0.000000  0.000059
                                -0.000000  0.000000 -0.000148  0.000000

   5.2   0     0.0339   -3.3685  0.000000 -0.000000  0.000000 -0.000000  0.000001 -0.000019  0.000028 -0.000025  0.000128 -0.000221
                                 0.000477 -0.028562  0.031280 -0.004095  0.002103 -0.000319 -0.000494 -0.006706  0.003595 -0.012919
                                 0.046167 -0.017692 -0.000007 -0.000000  0.000052  0.000000 -0.000830 -0.000000 -0.013294 -0.000000
                                -0.023090 -0.000001 -0.020419 -0.000001 -0.035605 -0.000001  0.036136  0.000001 -0.100286 -0.000003
                                 1.044933  0.000028  0.000001 -0.000000  0.000000  0.000008  0.000000 -0.000000  0.000288 -0.000000
                                 0.000000 -0.000339  0.000000  0.000000

                                   1 2py     1 2py     1 2py     1 2py     1 2py     1 2py     1 2py     1 2py     1 2py     1 2py
                                   1 2py     1 2py     1 2py     1 2py     1 2py     1 2py     1 2py     1 2py     1 2py     1 2py
                                   1 2py     1 2py     1 4f1-    1 4f3-    1 4f1-    1 4f3-    1 4f1-    1 4f3-    1 4f1-    1 4f3-
                                   1 4f1-    1 4f3-    1 4f1-    1 4f3-    1 4f1-    1 4f3-    1 4f1-    1 4f3-    1 4f1-    1 4f3-
                                   1 4f1-    1 4f3-    1 6h1-    1 6h3-    1 6h5-    1 6h1-    1 6h3-    1 6h5-    1 6h1-    1 6h3-
                                   1 6h5-    1 6h1-    1 6h3-    1 6h5-

   1.3   2    -0.4518  -17.6961  0.000000 -0.000000  0.000000 -0.000000  0.000000 -0.000000  0.000000 -0.000000  0.000000 -0.000000
                                 0.000000 -0.000009  0.000010 -0.000001  0.000001  0.000001 -0.000003 -0.000003 -0.000001  0.000006
                                 0.000005  0.000000  0.000000  0.000004 -0.000000 -0.000167  0.000000  0.009717  0.000005  0.207807
                                 0.000008  0.319585  0.000010  0.393047  0.000007  0.285449  0.000003  0.129917  0.000002  0.090702
                                -0.000000 -0.006643  0.000000  0.000008 -0.000000 -0.000000 -0.000106  0.000000 -0.000000 -0.000912
                                 0.000000 -0.000000 -0.001615  0.000000

   2.3   2    -0.4352  -17.5545 -0.000000  0.000000 -0.000000  0.000000 -0.000003  0.000066 -0.000098  0.000086 -0.000451  0.000783
                                -0.001751  0.113641 -0.125217  0.017867 -0.010382 -0.018797  0.034322  0.027730  0.005797 -0.031436
                                -0.018873  0.000027  0.000003 -0.000000 -0.000163  0.000000  0.009613 -0.000000  0.205925 -0.000005
                                 0.316370 -0.000008  0.389015 -0.000010  0.284061 -0.000007  0.137316 -0.000003  0.101606 -0.000002
                                -0.005506  0.000000  0.000021 -0.000000 -0.000000 -0.000274  0.000000  0.000000 -0.003086  0.000000
                                 0.000000 -0.004425  0.000000  0.000000

   3.3   2    -1.8423  -17.8838  0.000000 -0.000000  0.000002 -0.000012  0.000078 -0.001624  0.002389 -0.002099  0.010991 -0.019055
                                 0.042291 -2.692310  2.962002 -0.413653  0.227111  0.407103 -0.686531 -0.563871 -0.223884  0.014036
                                -0.008777  0.002033 -0.000002  0.000000  0.000011 -0.000000  0.000068  0.000000  0.002966  0.000000
                                 0.003748  0.000000  0.008141  0.000000  0.012540 -0.000000  0.005761 -0.000000  0.001994 -0.000000
                                -0.000309  0.000000  0.000012  0.000000 -0.000000 -0.000027 -0.000000 -0.000000  0.000537  0.000000
                                 0.000000 -0.000109  0.000000  0.000000

   4.3   0     0.0305   -3.3775 -0.000000  0.000000 -0.000000  0.000000 -0.000000  0.000000 -0.000000  0.000000 -0.000000  0.000000
                                -0.000000  0.000002 -0.000002  0.000000 -0.000000 -0.000000  0.000000  0.000000  0.000000 -0.000000
                                -0.000002  0.000000  0.000000 -0.000006 -0.000000  0.000049  0.000000 -0.000780  0.000000 -0.012432
                                 0.000001 -0.021652  0.000000 -0.019054  0.000001 -0.033658 -0.000001  0.035047  0.000002 -0.089148
                                -0.000023  1.040385 -0.000000 -0.000000 -0.000000 -0.000000  0.000004  0.000000 -0.000000  0.000059
                                -0.000000  0.000000 -0.000148  0.000000

   5.3   0     0.0339   -3.3685  0.000000 -0.000000  0.000000 -0.000000  0.000001 -0.000019  0.000028 -0.000025  0.000128 -0.000221
                                 0.000477 -0.028561  0.031279 -0.004095  0.002103 -0.000319 -0.000493 -0.006706  0.003595 -0.012920
                                 0.046166 -0.017692 -0.000007 -0.000000  0.000052  0.000000 -0.000830 -0.000000 -0.013294 -0.000000
                                -0.023090 -0.000000 -0.020419 -0.000000 -0.035605 -0.000001  0.036136  0.000001 -0.100287 -0.000002
                                 1.044933  0.000023  0.000001 -0.000000  0.000000  0.000008 -0.000000 -0.000000  0.000288 -0.000000
                                 0.000000 -0.000339  0.000000  0.000000

                                   1 3d2-    1 3d2-    1 3d2-    1 3d2-    1 3d2-    1 3d2-    1 3d2-    1 3d2-    1 3d2-    1 3d2-
                                   1 3d2-    1 3d2-    1 3d2-    1 3d2-    1 3d2-    1 3d2-    1 5g2-    1 5g4-    1 5g2-    1 5g4-
                                   1 5g2-    1 5g4-    1 5g2-    1 5g4-    1 5g2-    1 5g4-    1 5g2-    1 5g4-

   1.4   0    -0.1987  -11.1556  0.000004 -0.000032  0.000165 -0.000707  0.003069 -0.025117  0.064069 -0.105122  0.093114 -0.076848
                                 0.072914  0.367403  0.415878  0.384250  0.018677  0.021376  0.000025 -0.000000 -0.000126  0.000000
                                 0.000212 -0.000000 -0.002816  0.000000 -0.008139  0.000001 -0.006018  0.000000

   2.4   0    -0.0508   -2.6879 -0.000001  0.000006 -0.000029  0.000126 -0.000549  0.004492 -0.011462  0.018817 -0.016682  0.013831
                                -0.013290 -0.066358 -0.078563 -0.073539  0.169964  0.899579 -0.000003  0.000000  0.000017 -0.000000
                                -0.000032  0.000000  0.000428 -0.000000  0.001311 -0.000000 -0.000342  0.000000

                                   1 2pz     1 2pz     1 2pz     1 2pz     1 2pz     1 2pz     1 2pz     1 2pz     1 2pz     1 2pz
                                   1 2pz     1 2pz     1 2pz     1 2pz     1 2pz     1 2pz     1 2pz     1 2pz     1 2pz     1 2pz
                                   1 2pz     1 2pz     1 4f0     1 4f2+    1 4f0     1 4f2+    1 4f0     1 4f2+    1 4f0     1 4f2+
                                   1 4f0     1 4f2+    1 4f0     1 4f2+    1 4f0     1 4f2+    1 4f0     1 4f2+    1 4f0     1 4f2+
                                   1 4f0     1 4f2+    1 6h2+    1 6h4+    1 6h0     1 6h2+    1 6h4+    1 6h0     1 6h2+    1 6h4+
                                   1 6h0     1 6h2+    1 6h4+    1 6h0

   1.5   2    -0.4362  -17.7190  0.000000 -0.000000  0.000000 -0.000000  0.000000 -0.000000  0.000000 -0.000000  0.000000 -0.000000
                                 0.000001 -0.000058  0.000064 -0.000009  0.000006  0.000009 -0.000020 -0.000014  0.000002  0.000025
                                 0.000014 -0.000000  0.000000  0.000005 -0.000000 -0.000174  0.000005  0.009803  0.000103  0.209033
                                 0.000158  0.321578  0.000195  0.393805  0.000144  0.283495  0.000071  0.127119  0.000053  0.090521
                                -0.000003 -0.006116  0.000016 -0.000000  0.000000 -0.000208  0.000000 -0.000000 -0.002107  0.000000
                                -0.000002 -0.003072  0.000000 -0.000003

   2.5   2    -0.4372  -17.4810  0.000000 -0.000000  0.000000 -0.000000  0.000003 -0.000059  0.000086 -0.000076  0.000400 -0.000696
                                 0.001569 -0.103867  0.114633 -0.016834  0.011317  0.015453 -0.036601 -0.025749  0.005169  0.046544
                                 0.025424 -0.000160  0.000002 -0.000000 -0.000157  0.000000  0.009525 -0.000005  0.204565 -0.000105
                                 0.314035 -0.000162  0.387149 -0.000198  0.285313 -0.000143  0.140178 -0.000064  0.103978 -0.000045
                                -0.005527  0.000003 -0.000000 -0.000000  0.000024  0.000000  0.000000 -0.000302  0.000001  0.000000
                                -0.003319  0.000002 -0.000000 -0.005143

   3.5   2    -1.8328  -17.8534  0.000000 -0.000000  0.000002 -0.000012  0.000079 -0.001630  0.002398 -0.002107  0.011035 -0.019131
                                 0.042453 -2.701699  2.972258 -0.414970  0.228192  0.401255 -0.681057 -0.558639 -0.229768  0.011570
                                -0.008957  0.002097 -0.000001  0.000000  0.000003 -0.000000 -0.000009 -0.000000  0.000166 -0.000000
                                -0.000071 -0.000000  0.000074 -0.000000 -0.000942 -0.000001 -0.008984 -0.000000 -0.003129 -0.000000
                                 0.000306  0.000000  0.000000 -0.000000  0.000016 -0.000000  0.000000 -0.000035  0.000000  0.000000
                                 0.000843  0.000000 -0.000000  0.000389

   4.5   0     0.0321   -3.3686 -0.000000  0.000000 -0.000000  0.000000 -0.000000  0.000000 -0.000000  0.000000 -0.000000  0.000000
                                -0.000000  0.000004 -0.000005  0.000001 -0.000000 -0.000000  0.000000  0.000001 -0.000000  0.000001
                                -0.000006  0.000002  0.000000 -0.000006 -0.000000  0.000050  0.000000 -0.000775  0.000001 -0.012246
                                 0.000001 -0.021405  0.000001 -0.018578  0.000002 -0.033673 -0.000002  0.035497  0.000005 -0.094253
                                -0.000058  1.042776  0.000001 -0.000000 -0.000000  0.000006  0.000000 -0.000000  0.000171 -0.000000
                                -0.000000 -0.000265  0.000000  0.000000

   5.5   0     0.0347   -3.3732  0.000000 -0.000000  0.000000 -0.000000  0.000001 -0.000026  0.000038 -0.000033  0.000172 -0.000297
                                 0.000650 -0.040054  0.043960 -0.005934  0.003162  0.002449 -0.005103 -0.009546 -0.000577 -0.003637
                                 0.051046 -0.016872 -0.000007 -0.000000  0.000053  0.000000 -0.000876 -0.000000 -0.014223 -0.000001
                                -0.024555 -0.000001 -0.022108 -0.000001 -0.037003 -0.000002  0.036156  0.000002 -0.103395 -0.000006
                                 1.045792  0.000058 -0.000000  0.000000  0.000002  0.000000 -0.000000  0.000009  0.000000 -0.000000
                                 0.000352 -0.000000  0.000000 -0.000361

                                   1 3d1+    1 3d1+    1 3d1+    1 3d1+    1 3d1+    1 3d1+    1 3d1+    1 3d1+    1 3d1+    1 3d1+
                                   1 3d1+    1 3d1+    1 3d1+    1 3d1+    1 3d1+    1 3d1+    1 5g1+    1 5g3+    1 5g1+    1 5g3+
                                   1 5g1+    1 5g3+    1 5g1+    1 5g3+    1 5g1+    1 5g3+    1 5g1+    1 5g3+

   1.6   0    -0.1630  -10.8316  0.000004 -0.000031  0.000160 -0.000684  0.002970 -0.024304  0.062000 -0.101740  0.090133 -0.074505
                                 0.071589  0.354788  0.398127  0.397816  0.057027  0.027636  0.000032 -0.000000 -0.000161  0.000000
                                 0.000261 -0.000000 -0.002811  0.000000 -0.008479  0.000000 -0.006569  0.000000

   2.6   0    -0.0491   -2.6909 -0.000001  0.000006 -0.000033  0.000141 -0.000614  0.005026 -0.012822  0.021043 -0.018648  0.015449
                                -0.015071 -0.072937 -0.086356 -0.086438  0.128040  0.926219 -0.000005  0.000000  0.000027 -0.000000
                                -0.000037  0.000000  0.000545 -0.000000  0.002040 -0.000000 -0.001241  0.000000

                                   1 3d1-    1 3d1-    1 3d1-    1 3d1-    1 3d1-    1 3d1-    1 3d1-    1 3d1-    1 3d1-    1 3d1-
                                   1 3d1-    1 3d1-    1 3d1-    1 3d1-    1 3d1-    1 3d1-    1 5g1-    1 5g3-    1 5g1-    1 5g3-
                                   1 5g1-    1 5g3-    1 5g1-    1 5g3-    1 5g1-    1 5g3-    1 5g1-    1 5g3-

   1.7   0    -0.1630  -10.8316  0.000004 -0.000031  0.000160 -0.000684  0.002970 -0.024304  0.062000 -0.101739  0.090132 -0.074505
                                 0.071589  0.354788  0.398126  0.397817  0.057030  0.027637  0.000032 -0.000000 -0.000161  0.000000
                                 0.000261 -0.000000 -0.002811  0.000000 -0.008479  0.000000 -0.006568  0.000000

   2.7   0    -0.0491   -2.6909 -0.000001  0.000006 -0.000033  0.000141 -0.000614  0.005026 -0.012822  0.021043 -0.018648  0.015450
                                -0.015071 -0.072937 -0.086356 -0.086439  0.128036  0.926221 -0.000005  0.000000  0.000027 -0.000000
                                -0.000037  0.000000  0.000545 -0.000000  0.002040 -0.000000 -0.001241  0.000000

                                   1 4f2-    1 4f2-    1 4f2-    1 4f2-    1 4f2-    1 4f2-    1 4f2-    1 4f2-    1 4f2-    1 4f2-
                                   1 6h4-    1 6h2-    1 6h4-    1 6h2-    1 6h4-    1 6h2-    1 6h4-    1 6h2-

   1.8   2    -0.4362  -17.7190  0.000005 -0.000174  0.009803  0.209033  0.321578  0.393805  0.283495  0.127118  0.090521 -0.006116
                                -0.000000  0.000016  0.000000 -0.000208  0.000000 -0.002107  0.000000 -0.003072

   2.8   0     0.0321   -3.3686 -0.000006  0.000050 -0.000775 -0.012246 -0.021405 -0.018578 -0.033673  0.035497 -0.094253  1.042776
                                -0.000000  0.000001  0.000000  0.000006 -0.000000  0.000171  0.000000 -0.000265

   3.8   0     0.3411   -5.3675  0.000024 -0.000118 -0.001683 -0.052838 -0.069723 -0.115252  0.054681 -0.226465  1.275441 -0.587885
                                -0.000000  0.000004  0.000000  0.000018 -0.000000  0.000692  0.000000 -0.002362

 HOMO      1.8    -0.436218 =     -11.8701eV
 LUMO      1.4    -0.198702 =      -5.4070eV
 LUMO-HOMO         0.237516 =       6.4631eV


 **********************************************************************************************************************************
 DATASETS  * FILE   NREC   LENGTH (MB)   RECORD NAMES
              1      19       20.73       500      610      700      900      950      970     1000      129      960     1100
                                          VAR    BASINP    GEOM    SYMINP    ZMAT    AOBASIS   BASIS     P2S    ABASIS      S
                                         1400     1410     1420     1200     1210     1080     1600     1650     1700
                                           T        V       ECP      H0       H01     AOSYM     SMH    MOLCAS    OPER

              2       5        5.75       200      700     1000      520     4202
                                        OPTIONS   GEOM     BASIS   MCVARS     RHF

 PROGRAMS   *        TOTAL       RHF       INT
 CPU TIMES  *        35.13      1.47     32.32
 REAL TIME  *        37.65 SEC
 DISK USED  *         3.39 GB
 SF USED    *         0.07 MB
 GA USED    *         0.00 MB       (max)       0.00 MB       (current)
 **********************************************************************************************************************************
   -->
   <time start="12:14:50" end="12:15:26" cpu="35.13" system="1.82" real="37.65"/>
   <storage units="megabyte" memory="8001.84" sf="0.07" df="306.3" eaf="3083.07" ga="0.0"/>
  </jobstep><!--
  --><jobstep command="RHF-SCF" commandset="SCFPRO">
   <!--


 PROGRAM * RHF-SCF (OPEN SHELL)       Authors: W. Meyer, H.-J. Werner


 NUMBER OF ELECTRONS:      13+   12-    SPACE SYMMETRY=2    SPIN SYMMETRY: Doublet
 CONVERGENCE THRESHOLDS:    1.00E-05 (Density)    1.00E-07 (Energy)
 MAX. NUMBER OF ITERATIONS:       60
 INTERPOLATION TYPE:            DIIS
 INTERPOLATION STEPS:              2 (START)      1 (STEP)
 LEVEL SHIFTS:                 -0.60 (CLOSED) -0.30 (OPEN)

 Number of closed-shell orbitals:   12 (   2   3   3   0   3   0   0   1 )
 Number of open-shell orbitals:      1 (   0   1   0   0   0   0   0   0 )


 Molecular orbitals read from record     4202.2  Type=RHF/CANONICAL (state 1.1)

 Molecular orbital dump at record        2108.2

 ITERATION    DDIFF          GRAD             ENERGY        2-EL.EN.            DIPOLE MOMENTS         DIIS   ORB.
    1      0.000D+00      0.000D+00      -210.32547487    379.231632    0.00000    0.00000    0.00000    0    start
    2      0.000D+00      0.247D-03      -210.32555469    379.114205    0.00000    0.00000    0.00000    1    diag,B
    3      0.360D-03      0.190D-03      -210.32558884    379.180978    0.00000    0.00000    0.00000    2    fixocc
    4      0.192D-03      0.135D-03      -210.32563850    379.144005    0.00000    0.00000    0.00000    3    diag,B
    5      0.123D-03      0.934D-04      -210.32569700    379.134837    0.00000    0.00000    0.00000    4    diag,B
    6      0.170D-03      0.631D-04      -210.32573570    379.138005    0.00000    0.00000    0.00000    5    diag,B
    7      0.175D-03      0.352D-04      -210.32574847    379.139244    0.00000    0.00000    0.00000    6    diag,B
    8      0.126D-03      0.157D-04      -210.32575014    379.142617    0.00000    0.00000    0.00000    7    orth
    9      0.418D-04      0.687D-05      -210.32575041    379.142280    0.00000    0.00000    0.00000    8    diag,B
   10      0.145D-04      0.445D-05      -210.32575055    379.143041    0.00000    0.00000    0.00000    9    diag,B
   11      0.144D-04      0.259D-05      -210.32575060    379.142861    0.00000    0.00000    0.00000    9    diag,B
   12      0.808D-05      0.123D-05      -210.32575061    379.143089    0.00000    0.00000    0.00000    0    orth

 Final alpha occupancy:   2   4   3   0   3   0   0   1
 Final beta  occupancy:   2   3   3   0   3   0   0   1

 !RHF STATE 1.2 Energy               -210.325750607156
   --><property name="Energy" method="RHF" principal="true" stateSymmetry="2" stateNumber="1"
     value="-210.325750607156"/><!--
 Nuclear energy                         0.00000000
 One-electron energy                 -399.89729492
 Two-electron energy                  189.57154431
 Virial quotient                       -1.22777870
 !RHF STATE 1.2 Dipole moment           0.00000000     0.00000000     0.00000000
 Dipole moment /Debye                   0.00000000     0.00000000     0.00000000
   --><property name="Dipole moment" method="RHF" principal="true" stateSymmetry="2"
     stateNumber="1" value="0.0 0.0 0.0"/><!--

 ELECTRON ORBITALS
 =================


   Orb  Occ    Energy  Couls-En    Coefficients

                                   1 1s      1 1s      1 1s      1 1s      1 1s      1 1s      1 1s      1 1s      1 1s      1 1s
                                   1 1s      1 1s      1 1s      1 1s      1 1s      1 1s      1 1s      1 1s      1 1s      1 1s
                                   1 1s      1 1s      1 1s      1 1s      1 1s      1 1s      1 1s      1 3d0     1 3d2+    1 3d0
                                   1 3d2+    1 3d0     1 3d2+    1 3d0     1 3d2+    1 3d0     1 3d2+    1 3d0     1 3d2+    1 3d0
                                   1 3d2+    1 3d0     1 3d2+    1 3d0     1 3d2+    1 3d0     1 3d2+    1 3d0     1 3d2+    1 3d0
                                   1 3d2+    1 3d0     1 3d2+    1 3d0     1 3d2+    1 3d0     1 3d2+    1 3d0     1 3d2+    1 5g0
                                   1 5g4+    1 5g2+    1 5g0     1 5g4+    1 5g2+    1 5g0     1 5g4+    1 5g2+    1 5g0     1 5g4+
                                   1 5g2+    1 5g0     1 5g4+    1 5g2+    1 5g0     1 5g4+    1 5g2+

   1.1   2    -2.7996  -20.7790 -0.000000  0.000000 -0.000000  0.000000 -0.000000  0.000001 -0.000015  0.000023 -0.000372  0.000393
                                -0.000082  0.000587 -0.001090  0.001020 -0.041352  0.045328 -0.107144  0.262929  0.056517 -0.964684
                                 0.227634  0.860083  0.434521  0.001947  0.008400 -0.002575  0.000579 -0.000000  0.000000  0.000001
                                -0.000000 -0.000005  0.000000  0.000023 -0.000000 -0.000100  0.000000  0.000812 -0.000000 -0.002064
                                 0.000000  0.003370 -0.000000 -0.002983  0.000000  0.002400 -0.000000 -0.002578  0.000000 -0.008785
                                 0.000000  0.001533 -0.000000 -0.000019  0.000000  0.000093 -0.000000 -0.000033  0.000000 -0.000010
                                -0.000000 -0.000000 -0.000013 -0.000000 -0.000000 -0.000142 -0.000000 -0.000000  0.000101 -0.000000
                                -0.000000  0.002379  0.000000  0.000000  0.000342  0.000000  0.000000

   2.1   2    -0.4064  -12.2497 -0.000000  0.000000 -0.000000  0.000000 -0.000000  0.000000 -0.000001  0.000001 -0.000020  0.000021
                                -0.000004  0.000033 -0.000061  0.000060 -0.003486  0.003863 -0.005395  0.013302 -0.002285 -0.034408
                                 0.013230  0.041598  0.022105 -0.041263 -0.021874 -0.002436 -0.000120  0.000004  0.000000 -0.000036
                                -0.000000  0.000188  0.000000 -0.000807 -0.000000  0.003503  0.000000 -0.028676 -0.000001  0.073171
                                 0.000002 -0.120130 -0.000002  0.106510  0.000002 -0.088493 -0.000002  0.087005  0.000002  0.425263
                                 0.000009  0.452076  0.000009  0.283206  0.000006 -0.048384 -0.000001  0.017882  0.000000  0.000042
                                -0.000000 -0.000000 -0.000220  0.000000  0.000000  0.000340 -0.000000 -0.000000 -0.003398  0.000000
                                 0.000000 -0.009855 -0.000000  0.000000 -0.000956  0.000000  0.000000

   3.1   0    -0.0579  -10.8552  0.000000 -0.000000  0.000000 -0.000000  0.000000 -0.000000  0.000000 -0.000000  0.000000 -0.000000
                                 0.000000 -0.000000  0.000000 -0.000000  0.000001 -0.000001  0.000002 -0.000004  0.000001  0.000009
                                -0.000003 -0.000010 -0.000009 -0.000001  0.000016  0.000018  0.000003 -0.000000  0.000004  0.000000
                                -0.000031 -0.000000  0.000163  0.000000 -0.000699 -0.000000  0.003033  0.000000 -0.024818 -0.000001
                                 0.063304  0.000002 -0.103858 -0.000002  0.091987  0.000001 -0.075894 -0.000001  0.072082 -0.000006
                                 0.362020 -0.000008  0.411493 -0.000008  0.369970 -0.000001  0.054626 -0.000001  0.048287 -0.000000
                                -0.000006  0.000024  0.000000  0.000026 -0.000121 -0.000000 -0.000056  0.000204  0.000000  0.000178
                                -0.002664  0.000000 -0.000898 -0.008066  0.000000  0.004374 -0.004566

   4.1   0    -0.0468   -6.0236  0.000000 -0.000000  0.000000 -0.000000  0.000000 -0.000000  0.000006 -0.000009  0.000144 -0.000153
                                 0.000032 -0.000233  0.000438 -0.000425  0.024472 -0.027082  0.037551 -0.092209  0.014152  0.241110
                                -0.090975 -0.232935 -0.252377 -0.036906  0.341786  0.633698  0.223776  0.000000 -0.000000 -0.000002
                                 0.000000  0.000008 -0.000000 -0.000035  0.000000  0.000153 -0.000000 -0.001259  0.000001  0.003228
                                -0.000002 -0.005349  0.000003  0.004798 -0.000003 -0.004150  0.000002  0.003862 -0.000002  0.025558
                                -0.000011  0.010474 -0.000012  0.000772 -0.000008  0.003373 -0.000006  0.004704 -0.000003 -0.000008
                                 0.000000 -0.000000  0.000063 -0.000000  0.000000 -0.000019  0.000000 -0.000000  0.001113 -0.000000
                                 0.000000  0.001416  0.000000  0.000000 -0.000466 -0.000001  0.000000

                                   1 2px     1 2px     1 2px     1 2px     1 2px     1 2px     1 2px     1 2px     1 2px     1 2px
                                   1 2px     1 2px     1 2px     1 2px     1 2px     1 2px     1 2px     1 2px     1 2px     1 2px
                                   1 2px     1 2px     1 4f1+    1 4f3+    1 4f1+    1 4f3+    1 4f1+    1 4f3+    1 4f1+    1 4f3+
                                   1 4f1+    1 4f3+    1 4f1+    1 4f3+    1 4f1+    1 4f3+    1 4f1+    1 4f3+    1 4f1+    1 4f3+
                                   1 4f1+    1 4f3+    1 6h1+    1 6h3+    1 6h5+    1 6h1+    1 6h3+    1 6h5+    1 6h1+    1 6h3+
                                   1 6h5+    1 6h1+    1 6h3+    1 6h5+

   1.2   2    -1.7004  -17.7436  0.000000 -0.000000  0.000002 -0.000012  0.000078 -0.001624  0.002389 -0.002099  0.010993 -0.019059
                                 0.042300 -2.692883  2.962632 -0.413741  0.227168  0.407099 -0.686500 -0.564329 -0.223691  0.014562
                                -0.008907  0.002068 -0.000002  0.000000  0.000011 -0.000000  0.000071 -0.000000  0.002989 -0.000000
                                 0.003810 -0.000000  0.008049 -0.000000  0.012624 -0.000000  0.005584 -0.000000  0.001885  0.000000
                                -0.000282  0.000000  0.000012  0.000000 -0.000000 -0.000028 -0.000000 -0.000002  0.000533  0.000000
                                -0.000003 -0.000093  0.000000  0.000009

   2.2   2    -0.3104  -17.5630  0.000000 -0.000000  0.000000 -0.000000  0.000000 -0.000000  0.000000 -0.000000  0.000000 -0.000000
                                 0.000000 -0.000001  0.000001 -0.000000  0.000000  0.000000 -0.000000 -0.000000 -0.000000 -0.000000
                                -0.000000 -0.000000 -0.000000  0.000004  0.000000 -0.000168 -0.000000  0.009725 -0.000001  0.207944
                                -0.000001  0.319780 -0.000002  0.393182 -0.000001  0.285635 -0.000000  0.129732 -0.000000  0.089151
                                 0.000000 -0.006876 -0.000000  0.000007 -0.000000  0.000000 -0.000085  0.000000  0.000000 -0.000875
                                 0.000000  0.000000 -0.001572  0.000000

   3.2   2    -0.2948  -17.4227 -0.000000  0.000000 -0.000000  0.000000 -0.000003  0.000062 -0.000092  0.000081 -0.000423  0.000734
                                -0.001640  0.106175 -0.116969  0.016649 -0.009666 -0.017019  0.031332  0.025479  0.003746 -0.024710
                                -0.013314 -0.000872  0.000003 -0.000000 -0.000163 -0.000000  0.009621  0.000000  0.206056  0.000001
                                 0.316606  0.000001  0.389234  0.000002  0.284154  0.000001  0.136819  0.000001  0.101970  0.000000
                                -0.004798 -0.000000  0.000019 -0.000000 -0.000000 -0.000233  0.000000 -0.000001 -0.003004  0.000000
                                -0.000002 -0.004383  0.000000  0.000005

   4.2   +     0.0299   -3.3789 -0.000000  0.000000 -0.000000  0.000000 -0.000000  0.000000 -0.000000  0.000000 -0.000000  0.000000
                                -0.000001  0.000035 -0.000038  0.000005 -0.000003 -0.000003  0.000007  0.000009  0.000003 -0.000001
                                -0.000039 -0.000040  0.000000 -0.000006 -0.000000  0.000049 -0.000000 -0.000772 -0.000000 -0.012284
                                -0.000000 -0.021404 -0.000000 -0.018794  0.000000 -0.033281 -0.000001  0.034837  0.000003 -0.087578
                                -0.000025  1.039697 -0.000000  0.000000 -0.000000  0.000000  0.000003  0.000000 -0.000000  0.000062
                                -0.000000  0.000000 -0.000164  0.000000

   5.2   0     0.0099   -3.8475  0.000000 -0.000000  0.000000 -0.000001  0.000005 -0.000112  0.000165 -0.000145  0.000773 -0.001353
                                 0.003120 -0.214598  0.237398 -0.035711  0.022636  0.057414 -0.101266 -0.056521 -0.087082  0.126718
                                 0.117980  0.875821  0.000000 -0.000000 -0.000004  0.000000  0.000252 -0.000000  0.005373 -0.000001
                                 0.008252 -0.000001  0.010179 -0.000001  0.007740 -0.000002  0.000487  0.000003 -0.005661 -0.000007
                                 0.001078  0.000073  0.000004  0.000000 -0.000001 -0.000017 -0.000000  0.000002  0.000107  0.000000
                                -0.000021 -0.000265 -0.000000  0.000086

   6.2   0     0.0911   -4.1558  0.000000 -0.000000  0.000001 -0.000006  0.000043 -0.000886  0.001302 -0.001140  0.005901 -0.010146
                                 0.021755 -1.284195  1.404722 -0.180655  0.090272 -0.059329  0.052544 -0.317747  0.259251 -0.596089
                                 1.882213 -1.261773  0.000001 -0.000000 -0.000009  0.000000  0.000295 -0.000000  0.005857 -0.000000
                                 0.009259 -0.000000  0.010686 -0.000000  0.010655 -0.000001 -0.005246  0.000001  0.000014 -0.000001
                                -0.030132  0.000017  0.000006  0.000000 -0.000000 -0.000025 -0.000000  0.000000  0.000214  0.000000
                                -0.000013 -0.000444 -0.000000  0.000046

                                   1 2py     1 2py     1 2py     1 2py     1 2py     1 2py     1 2py     1 2py     1 2py     1 2py
                                   1 2py     1 2py     1 2py     1 2py     1 2py     1 2py     1 2py     1 2py     1 2py     1 2py
                                   1 2py     1 2py     1 4f1-    1 4f3-    1 4f1-    1 4f3-    1 4f1-    1 4f3-    1 4f1-    1 4f3-
                                   1 4f1-    1 4f3-    1 4f1-    1 4f3-    1 4f1-    1 4f3-    1 4f1-    1 4f3-    1 4f1-    1 4f3-
                                   1 4f1-    1 4f3-    1 6h1-    1 6h3-    1 6h5-    1 6h1-    1 6h3-    1 6h5-    1 6h1-    1 6h3-
                                   1 6h5-    1 6h1-    1 6h3-    1 6h5-

   1.3   2    -1.7004  -17.7436  0.000000 -0.000000  0.000002 -0.000012  0.000078 -0.001624  0.002389 -0.002099  0.010993 -0.019059
                                 0.042300 -2.692883  2.962632 -0.413741  0.227168  0.407099 -0.686500 -0.564329 -0.223691  0.014562
                                -0.008907  0.002068 -0.000002  0.000000  0.000011 -0.000000  0.000071 -0.000000  0.002989 -0.000000
                                 0.003810 -0.000000  0.008049 -0.000000  0.012624 -0.000000  0.005584 -0.000000  0.001885  0.000000
                                -0.000282  0.000000  0.000012  0.000000  0.000000 -0.000028 -0.000000  0.000002  0.000533  0.000000
                                 0.000003 -0.000093  0.000000 -0.000009

   2.3   2    -0.3091  -17.5530  0.000000 -0.000000  0.000000 -0.000000  0.000000 -0.000000  0.000000 -0.000000  0.000000 -0.000000
                                 0.000000 -0.000000  0.000000 -0.000000  0.000000  0.000000 -0.000000 -0.000000 -0.000000 -0.000001
                                -0.000000 -0.000000 -0.000000  0.000004  0.000000 -0.000167 -0.000000  0.009715 -0.000001  0.207778
                                -0.000001  0.319515 -0.000002  0.392972 -0.000001  0.285662 -0.000000  0.130081 -0.000000  0.090264
                                 0.000000 -0.006665 -0.000000  0.000007 -0.000000  0.000000 -0.000083  0.000000  0.000000 -0.000872
                                 0.000000  0.000000 -0.001582  0.000000

   3.3   2    -0.2948  -17.4227 -0.000000  0.000000 -0.000000  0.000000 -0.000003  0.000062 -0.000092  0.000081 -0.000423  0.000734
                                -0.001640  0.106180 -0.116975  0.016650 -0.009666 -0.017020  0.031334  0.025480  0.003746 -0.024712
                                -0.013315 -0.000872  0.000003 -0.000000 -0.000163 -0.000000  0.009621  0.000000  0.206056  0.000001
                                 0.316606  0.000001  0.389234  0.000002  0.284154  0.000001  0.136819  0.000001  0.101970  0.000001
                                -0.004798 -0.000000  0.000019 -0.000000  0.000000 -0.000233  0.000000  0.000001 -0.003004  0.000000
                                 0.000002 -0.004383  0.000000 -0.000005

   4.3   0     0.0099   -3.8475  0.000000 -0.000000  0.000000 -0.000001  0.000005 -0.000112  0.000165 -0.000145  0.000773 -0.001353
                                 0.003120 -0.214596  0.237397 -0.035711  0.022636  0.057413 -0.101265 -0.056521 -0.087081  0.126717
                                 0.117977  0.875824  0.000000 -0.000000 -0.000004  0.000000  0.000252  0.000000  0.005373  0.000000
                                 0.008253  0.000000  0.010180  0.000000  0.007740  0.000000  0.000487  0.000000 -0.005660  0.000001
                                 0.001079  0.000005  0.000004  0.000000  0.000001 -0.000017 -0.000000 -0.000002  0.000107  0.000000
                                 0.000021 -0.000265 -0.000000 -0.000086

   5.3   0     0.0911   -4.1558  0.000000 -0.000000  0.000001 -0.000006  0.000043 -0.000886  0.001302 -0.001140  0.005901 -0.010146
                                 0.021756 -1.284200  1.404727 -0.180656  0.090272 -0.059330  0.052545 -0.317748  0.259254 -0.596094
                                 1.882217 -1.261772  0.000001  0.000000 -0.000009 -0.000000  0.000295  0.000000  0.005858  0.000000
                                 0.009259  0.000000  0.010687  0.000000  0.010655  0.000000 -0.005246 -0.000000  0.000015  0.000002
                                -0.030133  0.000001  0.000006  0.000000  0.000000 -0.000025 -0.000000 -0.000000  0.000214  0.000000
                                 0.000013 -0.000444 -0.000000 -0.000046

                                   1 3d2-    1 3d2-    1 3d2-    1 3d2-    1 3d2-    1 3d2-    1 3d2-    1 3d2-    1 3d2-    1 3d2-
                                   1 3d2-    1 3d2-    1 3d2-    1 3d2-    1 3d2-    1 3d2-    1 5g2-    1 5g4-    1 5g2-    1 5g4-
                                   1 5g2-    1 5g4-    1 5g2-    1 5g4-    1 5g2-    1 5g4-    1 5g2-    1 5g4-

   1.4   0    -0.0579  -10.8551  0.000004 -0.000031  0.000163 -0.000699  0.003033 -0.024818  0.063304 -0.103858  0.091987 -0.075893
                                 0.072082  0.362019  0.411492  0.369969  0.054632  0.048288  0.000024  0.000006 -0.000121 -0.000026
                                 0.000204  0.000056 -0.002664 -0.000178 -0.008066  0.000899 -0.004566 -0.004373

   2.4   0     0.0357   -2.3863 -0.000001  0.000006 -0.000033  0.000140 -0.000606  0.004948 -0.012588  0.020547 -0.018095  0.014640
                                -0.015229 -0.057278 -0.087949 -0.021370 -0.080495  1.040373 -0.000003  0.000011  0.000014 -0.000041
                                -0.000023  0.000100  0.000401 -0.000283  0.001461  0.001418 -0.000719 -0.007177

                                   1 2pz     1 2pz     1 2pz     1 2pz     1 2pz     1 2pz     1 2pz     1 2pz     1 2pz     1 2pz
                                   1 2pz     1 2pz     1 2pz     1 2pz     1 2pz     1 2pz     1 2pz     1 2pz     1 2pz     1 2pz
                                   1 2pz     1 2pz     1 4f0     1 4f2+    1 4f0     1 4f2+    1 4f0     1 4f2+    1 4f0     1 4f2+
                                   1 4f0     1 4f2+    1 4f0     1 4f2+    1 4f0     1 4f2+    1 4f0     1 4f2+    1 4f0     1 4f2+
                                   1 4f0     1 4f2+    1 6h2+    1 6h4+    1 6h0     1 6h2+    1 6h4+    1 6h0     1 6h2+    1 6h4+
                                   1 6h0     1 6h2+    1 6h4+    1 6h0

   1.5   2    -1.6921  -17.7094  0.000000 -0.000000  0.000002 -0.000012  0.000079 -0.001629  0.002397 -0.002106  0.011027 -0.019118
                                 0.042425 -2.700039  2.970439 -0.414728  0.228045  0.401370 -0.681222 -0.557786 -0.230060  0.010708
                                -0.009092  0.002127 -0.000000  0.000000  0.000003 -0.000000 -0.000004 -0.000000  0.000223 -0.000000
                                 0.000054 -0.000000  0.000010 -0.000000 -0.000822 -0.000001 -0.009157 -0.000000 -0.003369 -0.000000
                                 0.000322  0.000000  0.000000  0.000000  0.000016 -0.000000  0.000000 -0.000031  0.000000 -0.000000
                                 0.000847  0.000000 -0.000000  0.000389

   2.5   2    -0.2949  -17.3004  0.000000 -0.000000  0.000000 -0.000000  0.000003 -0.000067  0.000099 -0.000087  0.000456 -0.000794
                                 0.001787 -0.117905  0.130097 -0.019029  0.012567  0.017531 -0.040364 -0.029548  0.003457  0.052686
                                 0.037289  0.000808  0.000002 -0.000000 -0.000157  0.000000  0.009502 -0.000011  0.204087 -0.000226
                                 0.313332 -0.000347  0.386366 -0.000425  0.285108 -0.000306  0.139730 -0.000137  0.106038 -0.000098
                                -0.003913  0.000006 -0.000000 -0.000000  0.000022  0.000000 -0.000000 -0.000260  0.000002 -0.000000
                                -0.003223  0.000003  0.000000 -0.005117

   3.5   2    -0.2946  -17.5746  0.000000 -0.000000  0.000000 -0.000000  0.000000 -0.000000  0.000000 -0.000000  0.000001 -0.000001
                                 0.000002 -0.000131  0.000145 -0.000021  0.000014  0.000020 -0.000045 -0.000033  0.000003  0.000058
                                 0.000041  0.000001  0.000000  0.000005 -0.000000 -0.000174  0.000010  0.009802  0.000220  0.208992
                                 0.000338  0.321525  0.000417  0.393730  0.000308  0.283568  0.000151  0.126972  0.000115  0.091005
                                -0.000004 -0.005528  0.000015  0.000000  0.000000 -0.000170  0.000001 -0.000000 -0.002036  0.000002
                                -0.000003 -0.003038 -0.000006 -0.000005

   4.5   0     0.0127   -3.6650  0.000000 -0.000000  0.000000 -0.000000  0.000002 -0.000050  0.000074 -0.000066  0.000359 -0.000641
                                 0.001594 -0.124198  0.138489 -0.022941  0.016201  0.060771 -0.103784 -0.032588 -0.101600  0.144195
                                 0.009850  0.952142 -0.000001 -0.000000  0.000011  0.000000 -0.000499 -0.000000 -0.010426 -0.000000
                                -0.016173 -0.000000 -0.019421 -0.000000 -0.013566 -0.000000 -0.006049 -0.000000 -0.016333  0.000000
                                 0.020259  0.000001  0.000000  0.000000  0.000003 -0.000000 -0.000000  0.000002  0.000000  0.000000
                                 0.000375 -0.000000 -0.000000  0.000005

   5.5   0     0.0924   -4.2620  0.000000 -0.000000  0.000001 -0.000007  0.000045 -0.000921  0.001354 -0.001185  0.006132 -0.010541
                                 0.022578 -1.329484  1.453978 -0.186443  0.092651 -0.068296  0.065167 -0.324723  0.287960 -0.690981
                                 1.964433 -1.223030  0.000000  0.000000  0.000007  0.000000 -0.000500 -0.000000 -0.010913 -0.000000
                                -0.016626 -0.000000 -0.020800 -0.000001 -0.010344 -0.000000 -0.012957 -0.000000 -0.009727  0.000002
                                -0.030359  0.000000  0.000000  0.000000  0.000006 -0.000000 -0.000000 -0.000008  0.000000  0.000000
                                 0.000547 -0.000000 -0.000000 -0.000246

                                   1 3d1+    1 3d1+    1 3d1+    1 3d1+    1 3d1+    1 3d1+    1 3d1+    1 3d1+    1 3d1+    1 3d1+
                                   1 3d1+    1 3d1+    1 3d1+    1 3d1+    1 3d1+    1 3d1+    1 5g1+    1 5g3+    1 5g1+    1 5g3+
                                   1 5g1+    1 5g3+    1 5g1+    1 5g3+    1 5g1+    1 5g3+    1 5g1+    1 5g3+

   1.6   0    -0.0236  -10.4985  0.000004 -0.000030  0.000157 -0.000673  0.002919 -0.023889  0.060940 -0.100003  0.088597 -0.073242
                                 0.070332  0.349126  0.390812  0.390631  0.074789  0.073961  0.000029 -0.000000 -0.000144  0.000000
                                 0.000240 -0.000000 -0.002529  0.000000 -0.008614  0.000000 -0.003495  0.000000

   2.6   0     0.0372   -2.3180 -0.000001  0.000007 -0.000035  0.000150 -0.000650  0.005296 -0.013459  0.021929 -0.019272  0.015483
                                -0.016665 -0.055628 -0.093715 -0.005004 -0.211107  1.102143 -0.000005  0.000000  0.000028 -0.000000
                                -0.000045  0.000000  0.000488 -0.000000  0.001638 -0.000000  0.000113 -0.000000

                                   1 3d1-    1 3d1-    1 3d1-    1 3d1-    1 3d1-    1 3d1-    1 3d1-    1 3d1-    1 3d1-    1 3d1-
                                   1 3d1-    1 3d1-    1 3d1-    1 3d1-    1 3d1-    1 3d1-    1 5g1-    1 5g3-    1 5g1-    1 5g3-
                                   1 5g1-    1 5g3-    1 5g1-    1 5g3-    1 5g1-    1 5g3-    1 5g1-    1 5g3-

   1.7   0    -0.0236  -10.4984  0.000004 -0.000030  0.000157 -0.000673  0.002919 -0.023889  0.060940 -0.100003  0.088597 -0.073242
                                 0.070332  0.349125  0.390811  0.390631  0.074792  0.073964  0.000029 -0.000000 -0.000144  0.000000
                                 0.000240 -0.000000 -0.002529  0.000000 -0.008613  0.000000 -0.003495  0.000001

   2.7   0     0.0372   -2.3180 -0.000001  0.000007 -0.000035  0.000150 -0.000650  0.005296 -0.013459  0.021930 -0.019273  0.015483
                                -0.016665 -0.055630 -0.093716 -0.005006 -0.211109  1.102144 -0.000005  0.000000  0.000028 -0.000000
                                -0.000045  0.000000  0.000488 -0.000000  0.001638 -0.000000  0.000113  0.000000

                                   1 4f2-    1 4f2-    1 4f2-    1 4f2-    1 4f2-    1 4f2-    1 4f2-    1 4f2-    1 4f2-    1 4f2-
                                   1 6h4-    1 6h2-    1 6h4-    1 6h2-    1 6h4-    1 6h2-    1 6h4-    1 6h2-

   1.8   2    -0.2946  -17.5746  0.000005 -0.000174  0.009802  0.208992  0.321525  0.393730  0.283568  0.126972  0.091005 -0.005528
                                -0.000000  0.000015 -0.000001 -0.000170 -0.000002 -0.002036  0.000006 -0.003038

   2.8   0     0.1469   -3.2103 -0.000008  0.000059 -0.000771 -0.011153 -0.020362 -0.015557 -0.037736  0.045886 -0.129648  1.058398
                                 0.000000  0.000001 -0.000001  0.000004  0.000009  0.000153 -0.000040 -0.000194

   3.8   0     0.4761   -5.2665  0.000024 -0.000122 -0.001666 -0.053023 -0.069686 -0.116157  0.056645 -0.231655  1.275458 -0.561469
                                 0.000000  0.000003  0.000000  0.000013  0.000007  0.000654 -0.000022 -0.002111

 HOMO      4.2     0.029916 =       0.8140eV
 LUMO      1.4    -0.057857 =      -1.5744eV
 LUMO-HOMO        -0.087773 =      -2.3884eV


 **********************************************************************************************************************************
 DATASETS  * FILE   NREC   LENGTH (MB)   RECORD NAMES
              1      19       20.73       500      610      700      900      950      970     1000      129      960     1100
                                          VAR    BASINP    GEOM    SYMINP    ZMAT    AOBASIS   BASIS     P2S    ABASIS      S
                                         1400     1410     1420     1200     1210     1080     1600     1650     1700
                                           T        V       ECP      H0       H01     AOSYM     SMH    MOLCAS    OPER

              2       6        9.09       200      700     1000      520     4202     2108
                                        OPTIONS   GEOM     BASIS   MCVARS     RHF      RHF

 PROGRAMS   *        TOTAL       RHF       RHF       INT
 CPU TIMES  *        35.96      0.82      1.47     32.32
 REAL TIME  *        38.61 SEC
 DISK USED  *         3.44 GB
 SF USED    *         0.07 MB
 GA USED    *         0.00 MB       (max)       0.00 MB       (current)
 **********************************************************************************************************************************
   -->
   <time start="12:15:26" end="12:15:27" cpu="0.83" system="0.13" real="0.96"/>
   <storage units="megabyte" memory="8001.84" sf="0.07" df="357.11" eaf="3083.07" ga="0.0"/>
  </jobstep><!--
 SETTING SCF(4)         =      -210.32575061  AU
 SETTING _CC_NORM_MAX   =         2.00000000
  --><jobstep command="RCCSD(T)" commandset="CCSD">
   <!--


 PROGRAM * CCSD (Restricted open-shell coupled cluster)     Authors: C. Hampel, H.-J. Werner, 1991, M. Deegan, P.J. Knowles, 1992


 Convergence thresholds:  THRVAR = 1.00D-08  THRDEN = 1.00D-06

 CCSD(T)     terms to be evaluated (factor= 1.000)


 Number of closed-shell orbitals:  12 (   2   3   3   0   3   0   0   1 )
 Number of active  orbitals:        1 (   0   1   0   0   0   0   0   0 )
 Number of external orbitals:     328 (  75  50  51  28  51  28  28  17 )

 Memory could be reduced to 99.98 Mwords without degradation in triples

 Number of N-1 electron functions:              25
 Number of N-2 electron functions:             300
 Number of singly external CSFs:              1303
 Number of doubly external CSFs:           3131455
 Total number of CSFs:                     3132758

 Molecular orbitals read from record     2108.2  Type=RHF/CANONICAL (state 1.2)

 Integral transformation finished. Total CPU:   2.36 sec, npass=  1  Memory used:  19.71 MW

 Starting RMP2 calculation

 Wavefunction is spin-projected

 ITER.      SQ.NORM     CORR.ENERGY   TOTAL ENERGY   ENERGY CHANGE        DEN1      VAR(S)    VAR(P)  DIIS     TIME
   1      1.73196841    -2.49682532  -212.82257592    -2.49682532    -0.05253765  0.35D-06  0.35D-01  1  1     3.76
   2      1.86265901    -2.56125448  -212.88700509    -0.06442917    -0.00381963  0.52D-07  0.36D-02  2  2     4.21
   3      1.92608283    -2.57923789  -212.90498850    -0.01798341    -0.00009902  0.23D-08  0.83D-04  3  3     4.66
   4      1.93267792    -2.58027995  -212.90603055    -0.00104205    -0.00000619  0.72D-09  0.74D-05  4  4     5.16
   5      1.93327358    -2.58033794  -212.90608855    -0.00005799    -0.00000122  0.69D-09  0.17D-05  5  5     5.69
   6      1.93347519    -2.58035080  -212.90610141    -0.00001286    -0.00000015  0.83D-09  0.19D-06  6  6     6.32
   7      1.93352384    -2.58035267  -212.90610328    -0.00000187    -0.00000002  0.96D-09  0.25D-07  6  1     6.84
   8      1.93353436    -2.58035398  -212.90610459    -0.00000131    -0.00000000  0.11D-08  0.31D-08  6  2     7.55
   9      1.93353823    -2.58035429  -212.90610490    -0.00000031    -0.00000000  0.13D-08  0.32D-09  6  3     8.11

 Norm of t1 vector:      0.00225656      S-energy:    -0.00000279      T1 diagnostic:  0.00006289
 Norm of t2 vector:      0.96619519      P-energy:    -2.58035151
                                         Alpha-Beta:  -1.70473527
                                         Alpha-Alpha: -0.43897581
                                         Beta-Beta:   -0.43664043

 Spin contamination <S**2-Sz**2-Sz>     0.00000000
  Reference energy                   -210.325750607163
   --><property name="energy" method="Reference" stateSymmetry="1" stateNumber="1"
     value="-210.325750607163"/><!--
  RHF-RMP2 correlation energy          -2.580354293541
   --><property name="energy" method="RHF-RMP2 correlation" stateSymmetry="1" stateNumber="1"
     value="-2.58035429354103"/><!--
 !RHF-RMP2 energy                    -212.906104900705
   --><property name="energy" method="RHF-RMP2" principal="true" stateSymmetry="2"
     stateNumber="1" value="-212.906104900705"/><!--
 (NB above energy spin projected)

 Starting RCCSD calculation

 ITER.      SQ.NORM     CORR.ENERGY   TOTAL ENERGY   ENERGY CHANGE        DEN1      VAR(S)    VAR(P)  DIIS     TIME
   1      1.26060363    -1.59838721  -211.92413781    -1.59838721    -0.30325362  0.65D-02  0.70D-01  0  0    11.26
   2      1.39952546    -1.89442023  -212.22017084    -0.29603303    -0.05881793  0.29D-02  0.20D-01  0  0    13.49
   3      1.37566681    -1.78478994  -212.11054055     0.10963029    -0.01488937  0.19D-02  0.42D-02  1  1    15.96
   4      1.40047062    -1.82066658  -212.14641719    -0.03587664    -0.00154264  0.15D-03  0.11D-02  2  2    18.18
   5      1.41829819    -1.82469702  -212.15044762    -0.00403044    -0.00103630  0.96D-04  0.86D-03  3  3    20.45
   6      1.46001310    -1.82885897  -212.15460957    -0.00416195    -0.00055212  0.65D-04  0.56D-03  4  4    22.84
   7      1.47600642    -1.82999497  -212.15574557    -0.00113600    -0.00055738  0.57D-04  0.63D-03  5  5    25.18
   8      1.47016201    -1.82976928  -212.15551989     0.00022568    -0.00051150  0.59D-04  0.55D-03  6  6    27.68
   9      1.47392775    -1.83125027  -212.15700087    -0.00148098    -0.00023720  0.64D-04  0.19D-03  7  7    30.16
  10      1.48553189    -1.83156912  -212.15731973    -0.00031885    -0.00021402  0.58D-04  0.20D-03  8  8    32.65
  11      1.48897117    -1.83174879  -212.15749939    -0.00017967    -0.00022755  0.54D-04  0.23D-03  9  9    35.56
  12      1.48529971    -1.83143799  -212.15718860     0.00031080    -0.00016027  0.61D-04  0.12D-03 10 10    38.69
  13      1.48752560    -1.83218192  -212.15793253    -0.00074393    -0.00011547  0.59D-04  0.62D-04 11 11    41.50
  14      1.49399604    -1.83240310  -212.15815371    -0.00022118    -0.00009253  0.52D-04  0.47D-04 12 12    44.35
  15      1.49965592    -1.83244653  -212.15819713    -0.00004343    -0.00008665  0.45D-04  0.53D-04 13 13    46.87
  16      1.50215389    -1.83251213  -212.15826274    -0.00006561    -0.00008900  0.42D-04  0.61D-04 14 14    49.49
  17      1.50086614    -1.83247293  -212.15822354     0.00003920    -0.00008106  0.43D-04  0.47D-04 15 15    52.13
  18      1.50602575    -1.83261668  -212.15836729    -0.00014375    -0.00007116  0.38D-04  0.39D-04 15  1    55.71
  19      1.51618999    -1.83275715  -212.15850775    -0.00014046    -0.00006624  0.30D-04  0.45D-04 15  2    58.68
  20      1.52163889    -1.83286262  -212.15861323    -0.00010547    -0.00006776  0.26D-04  0.53D-04 15  5    61.35
  21      1.52063695    -1.83286934  -212.15861995    -0.00000672    -0.00006453  0.26D-04  0.48D-04 15  3    63.95
  22      1.52798333    -1.83280187  -212.15855248     0.00006747    -0.00005554  0.21D-04  0.41D-04 15  4    66.56
  23      1.53917499    -1.83301283  -212.15876344    -0.00021096    -0.00005209  0.15D-04  0.45D-04 15 10    69.17
  24      1.54319592    -1.83306733  -212.15881794    -0.00005450    -0.00005305  0.14D-04  0.49D-04 15  8    71.82
  25      1.54132035    -1.83296892  -212.15871953     0.00009841    -0.00004990  0.14D-04  0.43D-04 15  1    74.44
  26      1.54609083    -1.83301825  -212.15876886    -0.00004933    -0.00004440  0.12D-04  0.38D-04 15  6    77.11
  27      1.55456283    -1.83312621  -212.15887682    -0.00010796    -0.00004220  0.95D-05  0.40D-04 15  7    79.73
  28      1.55665120    -1.83314665  -212.15889726    -0.00002044    -0.00004295  0.91D-05  0.42D-04 15 11    82.43
  29      1.55449723    -1.83304718  -212.15879779     0.00009948    -0.00003941  0.96D-05  0.36D-04 15 15    85.10
  30      1.55575329    -1.83313674  -212.15888735    -0.00008956    -0.00003396  0.84D-05  0.30D-04 15  9    87.72
  31      1.56418339    -1.83322003  -212.15897064    -0.00008329    -0.00003228  0.68D-05  0.31D-04 15 13    90.37
  32      1.56405402    -1.83321707  -212.15896768     0.00000296    -0.00003270  0.66D-05  0.32D-04 15 12    93.04
  33      1.56556702    -1.83320481  -212.15895542     0.00001226    -0.00003089  0.64D-05  0.30D-04 15 14    95.60
  34      1.57022207    -1.83332145  -212.15907206    -0.00011665    -0.00002936  0.59D-05  0.29D-04 15  1    98.24
  35      1.57278328    -1.83332900  -212.15907961    -0.00000755    -0.00002876  0.53D-05  0.29D-04 15  3   100.94
  36      1.57283967    -1.83332876  -212.15907937     0.00000024    -0.00002901  0.53D-05  0.29D-04 15 10   103.57
  37      1.57543060    -1.83335007  -212.15910068    -0.00002131    -0.00002713  0.47D-05  0.27D-04 15  2   106.24
  38      1.57830985    -1.83346150  -212.15921211    -0.00011143    -0.00002521  0.43D-05  0.25D-04 15  7   108.85
  39      1.57828613    -1.83341267  -212.15916328     0.00004883    -0.00002506  0.42D-05  0.25D-04 15  1   111.45
  40      1.57829058    -1.83341315  -212.15916376    -0.00000048    -0.00002518  0.43D-05  0.26D-04 15 14   114.07
  41      1.57826336    -1.83342322  -212.15917382    -0.00001006    -0.00002439  0.41D-05  0.25D-04 15  8   116.78
  42      1.57976847    -1.83345443  -212.15920503    -0.00003121    -0.00002278  0.35D-05  0.23D-04 15  5   119.40
  43      1.58133666    -1.83339855  -212.15914915     0.00005588    -0.00002268  0.31D-05  0.24D-04 15 13   122.08
  44      1.58080083    -1.83339332  -212.15914393     0.00000523    -0.00002263  0.31D-05  0.24D-04 15  4   124.68
  45      1.57943069    -1.83338228  -212.15913288     0.00001104    -0.00002256  0.32D-05  0.24D-04 15 12   127.35
  46      1.57821050    -1.83339010  -212.15914070    -0.00000782    -0.00002249  0.33D-05  0.24D-04 15  6   130.05
  47      1.57779654    -1.83338962  -212.15914022     0.00000048    -0.00002248  0.33D-05  0.24D-04 15  9   132.73
  48      1.57781501    -1.83338387  -212.15913448     0.00000575    -0.00002248  0.33D-05  0.24D-04 15  7   135.36
  49      1.57772088    -1.83338160  -212.15913221     0.00000227    -0.00002248  0.33D-05  0.24D-04 15 11   138.01
  50      1.57830865    -1.83339073  -212.15914134    -0.00000913    -0.00002253  0.33D-05  0.24D-04 15 15   140.69
  51      1.57740417    -1.83338301  -212.15913361     0.00000772    -0.00002239  0.34D-05  0.23D-04 15  5   143.42
  52      1.57696925    -1.83337409  -212.15912470     0.00000892    -0.00002234  0.35D-05  0.23D-04 15 15   146.00
  53      1.57683111    -1.83337356  -212.15912417     0.00000053    -0.00002232  0.35D-05  0.23D-04 15  5   148.71
  54      1.57564228    -1.83335717  -212.15910778     0.00001639    -0.00002252  0.36D-05  0.23D-04 15  3   151.35
  55      1.57788222    -1.83339379  -212.15914439    -0.00003662    -0.00002197  0.35D-05  0.23D-04 15 11   154.01
  56      1.57969364    -1.83341374  -212.15916435    -0.00001995    -0.00002160  0.35D-05  0.22D-04 15  6   156.66
  57      1.57937321    -1.83340519  -212.15915579     0.00000855    -0.00002160  0.34D-05  0.23D-04 15 14   159.24
  58      1.57965389    -1.83339949  -212.15915010     0.00000570    -0.00002169  0.36D-05  0.23D-04 15  8   161.95
  59      1.57797308    -1.83336655  -212.15911716     0.00003294    -0.00002137  0.33D-05  0.22D-04 15 11   164.64
  60      1.57695765    -1.83339177  -212.15914237    -0.00002521    -0.00002090  0.31D-05  0.22D-04 15 14   167.31
  61      1.57370106    -1.83331075  -212.15906135     0.00008102    -0.00001995  0.31D-05  0.21D-04 15  7   170.05
  62      1.57535780    -1.83335544  -212.15910604    -0.00004469    -0.00001996  0.29D-05  0.21D-04 15  4   172.74
  63      1.57477042    -1.83334305  -212.15909365     0.00001239    -0.00001991  0.29D-05  0.21D-04 15  7   175.38
  64      1.57344202    -1.83332287  -212.15907348     0.00002017    -0.00001960  0.31D-05  0.20D-04 15  8   178.06
  65      1.57397016    -1.83335535  -212.15910595    -0.00003247    -0.00001934  0.34D-05  0.20D-04 15 14   180.70
  66      1.57531231    -1.83338157  -212.15913218    -0.00002623    -0.00001945  0.34D-05  0.20D-04 15 11   183.41
  67      1.57480564    -1.83337930  -212.15912991     0.00000227    -0.00001927  0.33D-05  0.20D-04 15  6   186.09
  68      1.57452911    -1.83337874  -212.15912934     0.00000057    -0.00001891  0.33D-05  0.19D-04 15 14   188.74
  69      1.57704817    -1.83341125  -212.15916186    -0.00003252    -0.00001804  0.27D-05  0.19D-04 15 10   191.37
  70      1.57867177    -1.83341528  -212.15916589    -0.00000403    -0.00001785  0.23D-05  0.19D-04 15  2   194.02
  71      1.57782886    -1.83341209  -212.15916270     0.00000319    -0.00001814  0.24D-05  0.19D-04 15  1   196.64
  72      1.58062845    -1.83342033  -212.15917094    -0.00000824    -0.00001754  0.20D-05  0.19D-04 15 13   199.32
  73      1.58201802    -1.83341442  -212.15916503     0.00000591    -0.00001765  0.19D-05  0.19D-04 15 11   201.97
  74      1.58195073    -1.83341598  -212.15916659    -0.00000156    -0.00001757  0.19D-05  0.19D-04 15 10   204.66
  75      1.58224654    -1.83341238  -212.15916299     0.00000360    -0.00001716  0.18D-05  0.19D-04 15  1   207.35
  76      1.58239888    -1.83339716  -212.15914777     0.00001522    -0.00001684  0.18D-05  0.18D-04 15  4   210.02
  77      1.58175062    -1.83338235  -212.15913296     0.00001481    -0.00001691  0.20D-05  0.18D-04 15  6   212.72
  78      1.58350064    -1.83335603  -212.15910664     0.00002632    -0.00001624  0.16D-05  0.18D-04 15 15   215.36
  79      1.58675373    -1.83337920  -212.15912980    -0.00002317    -0.00001513  0.14D-05  0.17D-04 15  4   218.05
  80      1.58859583    -1.83338068  -212.15913129    -0.00000148    -0.00001510  0.14D-05  0.17D-04 15 12   220.66
  81      1.58698434    -1.83335807  -212.15910867     0.00002261    -0.00001451  0.14D-05  0.16D-04 15  8   223.30
  82      1.58411273    -1.83327007  -212.15902068     0.00008799    -0.00001323  0.17D-05  0.14D-04 15  7   225.85
  83      1.58370050    -1.83327540  -212.15902600    -0.00000532    -0.00001245  0.17D-05  0.13D-04 15 11   228.56
  84      1.58451097    -1.83325085  -212.15900145     0.00002455    -0.00001239  0.17D-05  0.13D-04 15  3   231.25
  85      1.58358026    -1.83322854  -212.15897915     0.00002231    -0.00001214  0.18D-05  0.13D-04 15  9   233.99
  86      1.58063207    -1.83315874  -212.15890935     0.00006979    -0.00001143  0.21D-05  0.12D-04 15  5   236.69
  87      1.58036958    -1.83315594  -212.15890654     0.00000281    -0.00001147  0.21D-05  0.12D-04 15  4   239.39
  88      1.58061759    -1.83315959  -212.15891020    -0.00000365    -0.00001130  0.21D-05  0.11D-04 15  7   242.06
  89      1.57980341    -1.83311645  -212.15886705     0.00004314    -0.00001083  0.21D-05  0.11D-04 15 14   244.87
  90      1.57945052    -1.83312182  -212.15887242    -0.00000537    -0.00001086  0.22D-05  0.11D-04 15 15   247.64
  91      1.57968120    -1.83311529  -212.15886590     0.00000653    -0.00001077  0.22D-05  0.11D-04 15 12   250.34
  92      1.58080584    -1.83312051  -212.15887112    -0.00000522    -0.00001043  0.20D-05  0.10D-04 15  6   253.01
  93      1.58140996    -1.83312783  -212.15887844    -0.00000732    -0.00001034  0.19D-05  0.10D-04 15 13   255.71
  94      1.58163846    -1.83313585  -212.15888646    -0.00000802    -0.00001039  0.19D-05  0.11D-04 15  2   258.31
  95      1.58084208    -1.83313127  -212.15888188     0.00000458    -0.00001009  0.20D-05  0.10D-04 15 15   260.95
  96      1.58035295    -1.83314338  -212.15889399    -0.00001211    -0.00000987  0.22D-05  0.96D-05 15  8   263.55
  97      1.58047573    -1.83316089  -212.15891150    -0.00001751    -0.00000993  0.24D-05  0.96D-05 15 13   266.22
  98      1.58024164    -1.83316658  -212.15891719    -0.00000569    -0.00000975  0.23D-05  0.94D-05 15  7   268.86
  99      1.57987588    -1.83316667  -212.15891727    -0.00000009    -0.00000939  0.22D-05  0.89D-05 15  8   271.55

 Norm of t1 vector:      0.27022768      S-energy:    -0.00000677      T1 diagnostic:  0.03821445
                                                                       D1 diagnostic:  0.18482404
 Norm of t2 vector:      0.71193601      P-energy:    -1.83315990
                                         Alpha-Beta:  -1.31870468
                                         Alpha-Alpha: -0.25838454
                                         Beta-Beta:   -0.25607068

 Singles amplitudes (print threshold =  0.500E-01):

         I         SYM. A    A   T(IA) [Alpha-Alpha]

         2         1         2     -0.16034088
         2         1         3      0.05318254
         2         1         8      0.05383730

         I         SYM. A    A   T(IA) [Beta-Beta]

         2         1         2     -0.15818898
         2         1         3      0.05301921
         2         1         8      0.05446587

 Doubles amplitudes (print threshold =  0.500E-01):

         I         J         SYM. A    SYM. B    A         B      T(IJ, AB) [Alpha-Alpha]

         6         2         1         2         1         2     -0.06427615
         6         2         2         1         2         1      0.06427615
         6         2         3         4         1         1     -0.06422832
         6         2         4         3         1         1      0.06422832

         I         J         SYM. A    SYM. B    A         B      T(IJ, AB) [Alpha-Beta]

         2         2         1         1         1         1     -0.07074806
         2         2         4         4         1         1     -0.07074872
         4         4         1         1         1         1     -0.07400626
         4         4         4         4         1         1     -0.07399171
         5         5         6         6         1         1     -0.08228156
         8         8         1         1         1         1     -0.07492990
         8         8         4         4         1         1     -0.07492904
         9         9         7         7         1         1     -0.08228041
        12        12         1         1         1         1     -0.06820069
        12        12         6         6         1         1     -0.05611788
        12        12         7         7         1         1     -0.05627075
        13        13         4         4         1         1     -0.06819978
        13        13         6         6         1         1     -0.05619412
        13        13         7         7         1         1     -0.05619453

 ?CONVERGENCE NOT REACHED AFTER MAX. ITERATIONS

 ?ERROR: NO CONVERGENCE. TRIPLES WILL NOT BE DONE. THIS CAN BE AVOIDED USING THE NOCHECK OPTION.

 Spin contamination <S**2-Sz**2-Sz>     0.00000000


 RESULTS
 =======

  Reference energy                   -210.325750607163
   --><property name="energy" method="Reference" stateSymmetry="1" stateNumber="1"
     value="-210.325750607163"/><!--
  RCCSD singles energy                 -0.000006771031
   --><property name="energy" method="RCCSD singles" stateSymmetry="1" stateNumber="1"
     value="-0.677103053492445E-05"/><!--
  RCCSD pair energy                    -1.833159895178
   --><property name="energy" method="RCCSD pair" stateSymmetry="1" stateNumber="1"
     value="-1.83315989517816"/><!--
  RCCSD correlation energy             -1.833166666209
   --><property name="energy" method="RCCSD correlation" stateSymmetry="1" stateNumber="1"
     value="-1.83316666620869"/><!--

 !RHF-RCCSD energy                   -212.158917273372
   --><property name="energy" method="RHF-RCCSD" principal="true" stateSymmetry="1"
     stateNumber="1" value="-212.158917273372"/><!--

 Program statistics:

 Available memory in ccsd:               999998418
 Min. memory needed in ccsd:               8918960
 Max. memory used in ccsd:                12832365
 Max. memory used in cckext:               9816497 (99 integral passes)
 Max. memory used in cckint:              19713005 ( 1 integral passes)


 ? Error
 ? No convergence. This error exit can be avoided using the NOCHECK option
 ? The problem occurs in ccsd
   --><error type="Error" location="ccsd"
     message="No convergence. This error exit can be avoided using the NOCHECK option"/><!--
  --></jobstep><!--
  -->
  <input>
  <!--
 --></job><!--
--></molpro>
