<?xml version="1.0"?>
<molpro xmlns="http://www.molpro.net/schema/molpro-output"
  xmlns:xsd="http://www.w3.org/1999/XMLSchema"
  xmlns:cml="http://www.xml-cml.org/schema"
  xmlns:stm="http://www.xml-cml.org/schema"
  xmlns:xhtml="http://www.w3.org/1999/xhtml">
 <!--

 Nodes     nprocs
 nid02285    11
 Number of processes for MPI-2 version of Molpro:   nprocs(total)=   12   nprocs(compute)=   11   nprocs(helper)=    1

 Using customized tuning parameters: mindgm=7; mindgv=16; mindgc=1; mindgr=1; noblas=0; minvec=7
 default implementation of scratch files=sf

 --><job>
  <!--

 Variables initialized (889), CPU time= 0.02 sec
 Commands  initialized (702), CPU time= 0.01 sec, 572 directives.
 Default parameters read. Elapsed time= 0.28 sec

 Checking input...
 Passed
1


                                         ***  PROGRAM SYSTEM MOLPRO  ***
                                       Copyright, TTI GmbH Stuttgart, 2015
                                    Version 2015.1 linked Dec 29 2018 15:55:43


 **********************************************************************************************************************************
 LABEL *   Calculation for Nb atom, singlet and triplet
  64 bit mpp version                                                                     DATE: 30-Sep-22          TIME: 06:28:49
 **********************************************************************************************************************************

 SHA1:             19cd028119e0e09f93f0674bd8af7968d9b3eff6
 **********************************************************************************************************************************
  -->
  <!--

Geometry recognized as XYZ


 THRESHOLDS:

 ZERO    =  1.00D-12  ONEINT  =  1.00D-12  TWOINT  =  1.00D-15  PREFAC  =  1.00D-14  LOCALI  =  1.00D-09  EORDER  =  1.00D-04
 ENERGY  =  0.00D+00  ETEST   =  0.00D+00  EDENS   =  0.00D+00  THRDEDEF=  1.00D-06  GRADIENT=  1.00D-02  STEP    =  1.00D-03
 ORBITAL =  1.00D-05  CIVEC   =  1.00D-05  COEFF   =  1.00D-04  PRINTCI =  5.00D-02  PUNCHCI =  9.90D+01  OPTGRAD =  3.00D-04
 OPTENERG=  1.00D-06  OPTSTEP =  3.00D-04  THRGRAD =  1.00D-10  COMPRESS=  1.00D-11  VARMIN  =  1.00D-07  VARMAX  =  1.00D-03
 THRDOUB =  0.00D+00  THRDIV  =  1.00D-05  THRRED  =  1.00D-07  THRPSP  =  1.00D+00  THRDC   =  1.00D-10  THRCS   =  1.00D-10
 THRNRM  =  1.00D-08  THREQ   =  0.00D+00  THRDE   =  1.00D+00  THRREF  =  1.00D-05  SPARFAC =  1.00D+00  THRDLP  =  1.00D-07
 THRDIA  =  1.00D-10  THRDLS  =  1.00D-07  THRGPS  =  0.00D+00  THRKEX  =  0.00D+00  THRDIS  =  2.00D-01  THRVAR  =  1.00D-10
 THRLOC  =  1.00D-06  THRGAP  =  1.00D-06  THRLOCT = -1.00D+00  THRGAPT = -1.00D+00  THRORB  =  1.00D-06  THRMLTP =  0.00D+00
 THRCPQCI=  1.00D-10  KEXTA   =  0.00D+00  THRCOARS=  0.00D+00  SYMTOL  =  1.00D-06  GRADTOL =  1.00D-06  THROVL  =  1.00D-08
 THRORTH =  1.00D-08  GRID    =  1.00D-06  GRIDMAX =  1.00D-03  DTMAX   =  0.00D+00  THROCCDE=  1.00D-01  THROCCDE=  1.00D-01



 THRESHOLDS:

 ZERO    =  1.00D-12  ONEINT  =  1.00D-15  TWOINT  =  1.00D-15  PREFAC  =  1.00D-14  LOCALI  =  1.00D-09  EORDER  =  1.00D-04
 ENERGY  =  0.00D+00  ETEST   =  0.00D+00  EDENS   =  0.00D+00  THRDEDEF=  1.00D-06  GRADIENT=  1.00D-02  STEP    =  1.00D-03
 ORBITAL =  1.00D-05  CIVEC   =  1.00D-05  COEFF   =  1.00D-04  PRINTCI =  5.00D-02  PUNCHCI =  9.90D+01  OPTGRAD =  3.00D-04
 OPTENERG=  1.00D-06  OPTSTEP =  3.00D-04  THRGRAD =  1.00D-10  COMPRESS=  1.00D-11  VARMIN  =  1.00D-07  VARMAX  =  1.00D-03
 THRDOUB =  0.00D+00  THRDIV  =  1.00D-05  THRRED  =  1.00D-07  THRPSP  =  1.00D+00  THRDC   =  1.00D-10  THRCS   =  1.00D-10
 THRNRM  =  1.00D-08  THREQ   =  0.00D+00  THRDE   =  1.00D+00  THRREF  =  1.00D-05  SPARFAC =  1.00D+00  THRDLP  =  1.00D-07
 THRDIA  =  1.00D-10  THRDLS  =  1.00D-07  THRGPS  =  0.00D+00  THRKEX  =  0.00D+00  THRDIS  =  2.00D-01  THRVAR  =  1.00D-10
 THRLOC  =  1.00D-06  THRGAP  =  1.00D-06  THRLOCT = -1.00D+00  THRGAPT = -1.00D+00  THRORB  =  1.00D-06  THRMLTP =  0.00D+00
 THRCPQCI=  1.00D-10  KEXTA   =  0.00D+00  THRCOARS=  0.00D+00  SYMTOL  =  1.00D-06  GRADTOL =  1.00D-06  THROVL  =  1.00D-08
 THRORTH =  1.00D-08  GRID    =  1.00D-06  GRIDMAX =  1.00D-03  DTMAX   =  0.00D+00  THROCCDE=  1.00D-01  THROCCDE=  1.00D-01



 Variable memory set to 1000000000 words,  buffer space   230000 words

 SETTING BASIS          =    USERDEF

 DO I                   =         1.00000000

 Running procedure=ID4S1
  --><jobstep command="RHF-SCF" commandset="SCFPRO">
   <!--


 Recomputing integrals since basis changed


 Using spherical harmonics



 PROGRAM * SEWARD (Integral evaluation for generally contracted gaussian basis sets)     Author: Roland Lindh, 1990

 Geometry written to block  1 of record 700

 Orientation using atomic masses
 Molecule type: Atom
 Symmetry elements: X,Y,Z
 Rotational constants:       0.0000000      0.0000000      0.0000000 GHz  (calculated with average atomic masses)

 Point group  D2h


   --><cml:molecule>
    <cml:symmetry pointGroup="D2h"/>
    <cml:atomArray>
     <cml:atom id="a1" elementType="Nb" x3="0.0" y3="0.0" z3="0.0"/>
    </cml:atomArray>
    <cml:bondArray>
    </cml:bondArray>
   </cml:molecule><!--

 ATOMIC COORDINATES

 NR  ATOM    CHARGE       X              Y              Z

   1  NB     13.00    0.000000000    0.000000000    0.000000000

 NUCLEAR CHARGE:                   13
 NUMBER OF PRIMITIVE AOS:         364
 NUMBER OF SYMMETRY AOS:          302
 NUMBER OF CONTRACTIONS:          302   (  93Ag  +  37B3u +  37B2u +  31B1g +  37B1u +  31B2g +  31B3g +   5Au  )
 NUMBER OF CORE ORBITALS:           4   (   1Ag  +   1B3u +   1B2u +   0B1g +   1B1u +   0B2g +   0B3g +   0Au  )
 NUMBER OF VALENCE ORBITALS:        6   (   3Ag  +   0B3u +   0B2u +   1B1g +   0B1u +   1B2g +   1B3g +   0Au  )


 NUCLEAR REPULSION ENERGY    0.00000000

 EXTRA SYMMETRY OF AOS IN SYMMETRY 1:   1 1 1 1 1 1 1 1 1 1   1 1 1 1 1 1 1 1 1 1   1 1 1 1 1 1 1 1 1 1   1 1 1 1 1 1 2 1 2 1
                                        2 1 2 1 2 1 2 1 2 1   2 1 2 1 2 1 2 1 2 1   2 1 2 1 2 1 2 1 2 1   2 1 2 1 2 1 2 1 2 1
                                        2 3 4 5 3 4 5 3 4 5   3 4 5
 EXTRA SYMMETRY OF AOS IN SYMMETRY 2:   1 1 1 1 1 1 1 1 1 1   1 1 1 1 1 1 1 1 1 1   1 1 1 1 1 1 1 2 3 2   3 2 3 2 3 2 3
 EXTRA SYMMETRY OF AOS IN SYMMETRY 3:   1 1 1 1 1 1 1 1 1 1   1 1 1 1 1 1 1 1 1 1   1 1 1 1 1 1 1 2 3 2   3 2 3 2 3 2 3
 EXTRA SYMMETRY OF AOS IN SYMMETRY 4:   1 1 1 1 1 1 1 1 1 1   1 1 1 1 1 1 1 1 1 1   1 1 1 2 3 2 3 2 3 2   3
 EXTRA SYMMETRY OF AOS IN SYMMETRY 5:   1 1 1 1 1 1 1 1 1 1   1 1 1 1 1 1 1 1 1 1   1 1 1 1 1 1 1 2 3 2   3 2 3 2 3 2 3
 EXTRA SYMMETRY OF AOS IN SYMMETRY 6:   1 1 1 1 1 1 1 1 1 1   1 1 1 1 1 1 1 1 1 1   1 1 1 2 3 2 3 2 3 2   3
 EXTRA SYMMETRY OF AOS IN SYMMETRY 7:   1 1 1 1 1 1 1 1 1 1   1 1 1 1 1 1 1 1 1 1   1 1 1 2 3 2 3 2 3 2   3

 Eigenvalues of metric

         1 0.110E-07 0.110E-07 0.137E-06 0.116E-05 0.371E-05 0.732E-05 0.290E-04 0.310E-04
         2 0.498E-06 0.369E-05 0.503E-04 0.593E-03 0.140E-02 0.379E-02 0.874E-02 0.123E-01
         3 0.498E-06 0.369E-05 0.503E-04 0.593E-03 0.140E-02 0.379E-02 0.874E-02 0.123E-01
         4 0.110E-07 0.310E-04 0.253E-03 0.976E-03 0.212E-02 0.511E-02 0.139E-01 0.302E-01
         5 0.498E-06 0.369E-05 0.503E-04 0.593E-03 0.140E-02 0.379E-02 0.874E-02 0.123E-01
         6 0.110E-07 0.310E-04 0.253E-03 0.976E-03 0.212E-02 0.511E-02 0.139E-01 0.302E-01
         7 0.110E-07 0.310E-04 0.253E-03 0.976E-03 0.212E-02 0.511E-02 0.139E-01 0.302E-01
         8 0.144E+00 0.373E+00 0.826E+00 0.148E+01 0.218E+01


 Contracted 2-electron integrals neglected if value below      1.0D-15

 Warning: maximum contribution to expansion of semi-local PP integrals   0.6D+08

 AO integral compression algorithm  1   Integral accuracy      1.0D-15

     1118.831 MB (compressed) written to integral file ( 49.0%)

     Node minimum: 42.729 MB, node maximum: 174.850 MB


 NUMBER OF SORTED TWO-ELECTRON INTEGRALS:   12437768.     BUFFER LENGTH:  32768
 NUMBER OF SEGMENTS:   1  SEGMENT LENGTH:   12437768      RECORD LENGTH: 524288

 Memory used in sort:      12.99 MW

 SORT1 READ   285316239. AND WROTE     7928477. INTEGRALS IN     23 RECORDS. CPU TIME:     5.10 SEC, REAL TIME:     5.30 SEC
 SORT2 READ    87160121. AND WROTE   137103552. INTEGRALS IN   3993 RECORDS. CPU TIME:     0.32 SEC, REAL TIME:     1.00 SEC

 Node minimum:    12426462.  Node maximum:    12574472. integrals

 OPERATOR DM      FOR CENTER  0  COORDINATES:    0.000000    0.000000    0.000000


 **********************************************************************************************************************************
 DATASETS  * FILE   NREC   LENGTH (MB)   RECORD NAMES
              1      19       20.62       500      610      700      900      950      970     1000      129      960     1100
                                          VAR    BASINP    GEOM    SYMINP    ZMAT    AOBASIS   BASIS     P2S    ABASIS      S
                                         1400     1410     1420     1200     1210     1080     1600     1650     1700
                                           T        V       ECP      H0       H01     AOSYM     SMH    MOLCAS    OPER

 PROGRAMS   *        TOTAL       INT
 CPU TIMES  *        73.38     72.81
 REAL TIME  *        75.64 SEC
 DISK USED  *         2.16 GB
 GA USED    *         0.00 MB       (max)       0.00 MB       (current)
 **********************************************************************************************************************************


 PROGRAM * RHF-SCF (OPEN SHELL)       Authors: W. Meyer, H.-J. Werner


 NUMBER OF ELECTRONS:       9+    4-    SPACE SYMMETRY=1    SPIN SYMMETRY: Sextet
 CONVERGENCE THRESHOLDS:    1.00E-05 (Density)    1.00E-07 (Energy)
 MAX. NUMBER OF ITERATIONS:       60
 INTERPOLATION TYPE:            DIIS
 INTERPOLATION STEPS:              2 (START)      1 (STEP)
 LEVEL SHIFTS:                 -0.60 (CLOSED) -0.30 (OPEN)

 Number of closed-shell orbitals:    4 (   1   1   1   0   1   0   0   0 )
 Number of open-shell orbitals:      5 (   2   0   0   1   0   1   1   0 )



 Extra symmetries of mos in symmetry 1:   1   1   3   2
     Symmetry restrictions:    1             1
 Orbital guess generated from atomic densities. Full valence occupancy:    4   1   1   1   1   1   1   0


 Molecular orbital dump at record        3202.2

 ITERATION    DDIFF          GRAD             ENERGY        2-EL.EN.            DIPOLE MOMENTS         DIIS   ORB.
    1      0.000D+00      0.000D+00       -55.35018521     68.744251    0.00000    0.00000    0.00000    0    start
    2      0.000D+00      0.142D-01       -55.61735073     75.128122    0.00000    0.00000    0.00000    1    diag,B
    3      0.632D-01      0.525D-02       -55.66034822     75.471059    0.00000    0.00000    0.00000    2    diag,B
    4      0.741D-02      0.295D-02       -55.86824681     75.109515    0.00000    0.00000    0.00000    3    diag,B
    5      0.103D-01      0.460D-02       -55.67804243     76.069763    0.00000    0.00000    0.00000    4    diag,B
    6      0.116D-01      0.261D-02       -55.71524297     76.342483    0.00000    0.00000    0.00000    5    diag,B
    7      0.223D-02      0.375D-02       -55.70976159     76.140106    0.00000    0.00000    0.00000    6    fixocc
     Orbital  3.1 strongly deviates from fixed occupation: 0.57111  (now: 1.00)
     Note:  Use {hf,nitord=N} to fix occupations at iteration N
            Use {gthresh,occdev=1.0} to suppress deviation warnings
    8      0.124D-01      0.321D-02       -55.90443580     79.075981    0.00000    0.00000    0.00000    7    diag,B
     Orbital  3.1 strongly deviates from fixed occupation: 0.52622  (now: 1.00)
    9      0.139D-01      0.645D-02       -55.66420608     76.141679    0.00000    0.00000    0.00000    8    diag,B
   10      0.153D-01      0.150D-02       -55.67033123     76.065821    0.00000    0.00000    0.00000    9    orth
     Orbital  3.1 strongly deviates from fixed occupation: 0.60752  (now: 1.00)
   11      0.966D-02      0.178D-02     91728.07356117     90.222275    0.00000    0.00000    0.00000    9    diag,B
   12      0.226D+02      0.325D-01       -55.85334208     78.421618    0.00000    0.00000    0.00000    9    diag,B
     Orbital  3.1 strongly deviates from fixed occupation: 0.60212  (now: 1.00)
   13      0.226D+02      0.605D-02     91728.07545544     90.255154    0.00000    0.00000    0.00000    9    diag,B
   14      0.226D+02      0.324D-01     40573.02615619     90.254701    0.00000    0.00000    0.00000    9    diag,B
   15      0.296D+02      0.325D-01       -55.67660537     76.385431    0.00000    0.00000    0.00000    9    diag,B
   16      0.516D+02      0.233D-02     40573.02623228     90.235629    0.00000    0.00000    0.00000    9    diag,B
   17      0.516D+02      0.325D-01     18632.87588481     90.234502    0.00000    0.00000    0.00000    9    diag,B
   18      0.663D+02      0.325D-01     40573.02684839     90.237652    0.00000    0.00000    0.00000    9    diag,B
   19      0.663D+02      0.326D-01     18632.87654836     90.236922    0.00000    0.00000    0.00000    9    diag,B
   20      0.663D+02      0.326D-01     40573.02685113     90.237680    0.00000    0.00000    0.00000    9    orth
   21      0.663D+02      0.326D-01     18632.87654772     90.236914    0.00000    0.00000    0.00000    9    diag,B
   22      0.663D+02      0.326D-01     40573.02685043     90.237669    0.00000    0.00000    0.00000    9    diag,B
   23      0.663D+02      0.326D-01     18632.87654778     90.236916    0.00000    0.00000    0.00000    9    diag,B
   24      0.663D+02      0.326D-01     40573.02684989     90.237664    0.00000    0.00000    0.00000    9    diag,B
   25      0.663D+02      0.326D-01     18632.87654797     90.236915    0.00000    0.00000    0.00000    9    diag,B
   26      0.663D+02      0.326D-01     40573.02685058     90.237672    0.00000    0.00000    0.00000    9    diag,B
   27      0.663D+02      0.326D-01     18632.87654674     90.236911    0.00000    0.00000    0.00000    9    diag,B
   28      0.663D+02      0.326D-01     40573.02685087     90.237678    0.00000    0.00000    0.00000    9    diag,B
   29      0.663D+02      0.326D-01     18632.87654741     90.236912    0.00000    0.00000    0.00000    9    diag,B
   30      0.663D+02      0.326D-01     40573.02685019     90.237668    0.00000    0.00000    0.00000    9    orth
   31      0.663D+02      0.326D-01     18632.87654854     90.236917    0.00000    0.00000    0.00000    9    diag,B
   32      0.663D+02      0.326D-01     40573.02685061     90.237673    0.00000    0.00000    0.00000    9    diag,B
   33      0.663D+02      0.326D-01     18632.87654762     90.236911    0.00000    0.00000    0.00000    9    diag,B
   34      0.663D+02      0.326D-01     40573.02685072     90.237676    0.00000    0.00000    0.00000    9    diag,B
   35      0.663D+02      0.326D-01     18632.87654840     90.236917    0.00000    0.00000    0.00000    9    diag,B
   36      0.663D+02      0.326D-01     40573.02684986     90.237666    0.00000    0.00000    0.00000    9    diag,B
   37      0.663D+02      0.326D-01     18632.87654810     90.236913    0.00000    0.00000    0.00000    9    diag,B
   38      0.663D+02      0.326D-01     40573.02685043     90.237670    0.00000    0.00000    0.00000    9    diag,B
   39      0.663D+02      0.326D-01     18632.87654735     90.236910    0.00000    0.00000    0.00000    9    diag,B
   40      0.663D+02      0.326D-01     40573.02685104     90.237677    0.00000    0.00000    0.00000    9    orth


 ?APPARENTLY NO CONVERGENCE, EXIT AFTER THREE FURTHER ITERATIONS


   41      0.663D+02      0.326D-01     18632.87654782     90.236914    0.00000    0.00000    0.00000    9    diag,B
   42      0.663D+02      0.326D-01     40573.02684285     90.239751    0.00000    0.00000    0.00000    9    orth
   43      0.663D+02      0.326D-01     18632.55886897     82.968636    0.00000    0.00000    0.00000    0    orth

 Final alpha occupancy:   3   1   1   1   1   1   1   0
 Final beta  occupancy:   1   1   1   0   1   0   0   0

 !RHF STATE 1.1 Energy                18632.5588689667
   --><property name="Energy" method="RHF" principal="true" stateSymmetry="1" stateNumber="1"
     value="18632.5588689667"/><!--
 Nuclear energy                         0.00000000
 One-electron energy                18591.07455080
 Two-electron energy                   41.48431821
 Virial quotient                        1.74164297
 !RHF STATE 1.1 Dipole moment           0.00000000     0.00000000     0.00000000
 Dipole moment /Debye                   0.00000000     0.00000000     0.00000000
   --><property name="Dipole moment" method="RHF" principal="true" stateSymmetry="1"
     stateNumber="1" value="0.0 0.0 0.0"/><!--

 ELECTRON ORBITALS
 =================


   Orb  Occ    Energy  Couls-En    Coefficients

                                   1 1s      1 1s      1 1s      1 1s      1 1s      1 1s      1 1s      1 1s      1 1s      1 1s
                                   1 1s      1 1s      1 1s      1 1s      1 1s      1 1s      1 1s      1 1s      1 1s      1 1s
                                   1 1s      1 1s      1 1s      1 1s      1 1s      1 1s      1 1s      1 1s      1 1s      1 1s
                                   1 1s      1 1s      1 1s      1 1s      1 1s      1 3d0     1 3d2+    1 3d0     1 3d2+    1 3d0
                                   1 3d2+    1 3d0     1 3d2+    1 3d0     1 3d2+    1 3d0     1 3d2+    1 3d0     1 3d2+    1 3d0
                                   1 3d2+    1 3d0     1 3d2+    1 3d0     1 3d2+    1 3d0     1 3d2+    1 3d0     1 3d2+    1 3d0
                                   1 3d2+    1 3d0     1 3d2+    1 3d0     1 3d2+    1 3d0     1 3d2+    1 3d0     1 3d2+    1 3d0
                                   1 3d2+    1 3d0     1 3d2+    1 3d0     1 3d2+    1 3d0     1 3d2+    1 3d0     1 3d2+    1 3d0
                                   1 3d2+    1 5g0     1 5g4+    1 5g2+    1 5g0     1 5g4+    1 5g2+    1 5g0     1 5g4+    1 5g2+
                                   1 5g0     1 5g4+    1 5g2+

   1.1   2    -2.0983  -11.5552  0.000000 -0.000000  0.000000 -0.000000  0.000000 -0.000000  0.000000 -0.000001  0.000002 -0.000005
                                 0.000015 -0.000043  0.000168 -0.001111  0.003057 -0.003249  0.003335 -0.007695  0.031672 -0.128084
                                 0.410918 -0.498045 -0.465494  0.457504  0.076042  0.867096 -0.210858  0.356113 -0.086291  0.042603
                                -0.005998  0.003214 -0.001063  0.000489 -0.000114 -0.000000 -0.000000  0.000000  0.000000 -0.000000
                                 0.000000  0.000000  0.000000 -0.000000  0.000000  0.000000  0.000000 -0.000000 -0.000000  0.000006
                                -0.000000 -0.000004 -0.000000 -0.001631 -0.000023  0.000000 -0.000000  0.000020 -0.000001  0.001884
                                 0.000024 -0.000081 -0.000004  0.000297  0.000002 -0.000264 -0.000004 -0.000236 -0.000003  0.000039
                                 0.000001 -0.000072 -0.000000  0.000019  0.000000 -0.000022 -0.000000 -0.000002 -0.000000 -0.000003
                                -0.000000 -0.000344 -0.000281 -0.000000 -0.001551 -0.001291 -0.000001 -0.000632 -0.000498 -0.000001
                                 0.000223  0.000045 -0.000002

   2.1   +    -0.1496   -3.8275 -0.000000  0.000000 -0.000000  0.000000 -0.000000  0.000000 -0.000000  0.000000 -0.000000  0.000001
                                -0.000004  0.000012 -0.000048  0.000318 -0.000877  0.000931 -0.000968  0.002272 -0.009468  0.040990
                                -0.145496  0.209176  0.099702 -0.121842 -0.049042 -0.382878  0.020513 -0.317824  0.033710  0.333963
                                 0.703708  0.213948  0.010988  0.015435  0.001452 -0.000000 -0.000000  0.000000  0.000000 -0.000000
                                -0.000000  0.000003  0.000000 -0.000001 -0.000000  0.000025  0.000000 -0.000068 -0.000000 -0.000080
                                -0.000000  0.000205  0.000001 -0.019795 -0.000202  0.000000  0.000000 -0.003340 -0.000008  0.019765
                                 0.000209 -0.010630 -0.000050  0.001190  0.000015 -0.012388 -0.000033 -0.012879 -0.000095 -0.007133
                                -0.000125 -0.013224 -0.000093  0.000918  0.000049 -0.003126 -0.000017 -0.001149 -0.000024 -0.000286
                                -0.000006 -0.000191 -0.000229 -0.000001 -0.002447 -0.002362 -0.000003 -0.003584 -0.002789 -0.000013
                                -0.000878 -0.000967 -0.000003

   3.1   + 18721.641937401.1999  0.000006 -0.000069  0.000497 -0.002836  0.013614 -0.056549  0.211683 -0.727566  2.482817 -7.572588
                                14.323459-17.469549 21.491635-48.163647 72.594074-46.128078 15.149142-11.162349 14.762691-19.134627
                                19.894929-16.162186 11.497222-13.740509 14.424630-15.698445 13.647243 -6.062096  2.690647 -0.854873
                                 0.181195 -0.052293  0.020249 -0.007483  0.002045 -0.000000  0.000000  0.000000 -0.000000 -0.000000
                                 0.000000  0.000000 -0.000000 -0.000000  0.000000  0.000000 -0.000000 -0.000000  0.000000  0.000000
                                -0.000000 -0.000000  0.000000  0.000002  0.000000 -0.000000 -0.000000  0.000000 -0.000000 -0.000002
                                -0.000000  0.000000  0.000000 -0.000000 -0.000000  0.000000  0.000000 -0.000000 -0.000000  0.000000
                                 0.000000 -0.000000 -0.000000  0.000000  0.000000 -0.000000 -0.000000  0.000000  0.000000 -0.000000
                                -0.000000  0.000000  0.000000  0.000000 -0.000000 -0.000000 -0.000000  0.000000  0.000000  0.000000
                                -0.000000 -0.000000 -0.000000

   4.1   0     0.0089   -0.4969  0.000000 -0.000000  0.000000 -0.000000  0.000000 -0.000000  0.000000 -0.000000  0.000000 -0.000000
                                 0.000000 -0.000000  0.000000 -0.000000  0.000000 -0.000000  0.000000 -0.000000  0.000000 -0.000001
                                 0.000002 -0.000003  0.000005 -0.000013  0.000025 -0.000060  0.000082 -0.000073  0.000066 -0.000045
                                 0.000029 -0.000033  0.000053 -0.000100  0.000075  0.000000 -0.000000 -0.000000  0.000001  0.000000
                                -0.000003 -0.000000  0.000014  0.000001 -0.000045 -0.000002  0.000130  0.000005 -0.000354 -0.000014
                                 0.001038  0.000058 -0.004278  0.038322 -2.817541 -0.000000  0.000000 -0.000678  0.049856 -0.040375
                                 2.968459  0.004751 -0.349327 -0.003099  0.227786  0.001535 -0.112819 -0.003500  0.257253  0.004430
                                -0.325592 -0.003807  0.279806  0.012875 -0.946421 -0.013532  0.994431  0.008947 -0.659025 -0.018405
                                 1.348982  0.000000 -0.000000  0.000002  0.000000 -0.000000  0.000011  0.000000 -0.000000  0.000008
                                -0.000000  0.000000  0.000010

   5.1   0 40628.976881248.6887 -0.000015  0.000164 -0.001179  0.006753 -0.032526  0.137931 -0.524141  1.937524 -6.175631 11.430277
                               -12.437440 12.109825-13.994940 31.212533-47.246935 30.166812-10.001475  7.420849 -9.859534 12.806697
                               -13.336916 10.845308 -7.721875  9.233862 -9.696224 10.555183 -9.176963  4.076879 -1.809658  0.574998
                                -0.121880  0.035176 -0.013621  0.005034 -0.001376  0.000000 -0.000000 -0.000000  0.000000  0.000000
                                -0.000000 -0.000000  0.000000  0.000000 -0.000000 -0.000000  0.000000  0.000000 -0.000000 -0.000000
                                 0.000000  0.000000 -0.000000 -0.000000 -0.000000  0.000000  0.000000 -0.000000  0.000000  0.000001
                                 0.000000 -0.000000 -0.000000  0.000000  0.000000 -0.000000 -0.000000  0.000000  0.000000 -0.000000
                                -0.000000  0.000000  0.000000 -0.000000 -0.000000  0.000000  0.000000 -0.000000 -0.000000  0.000000
                                 0.000000 -0.000000 -0.000000 -0.000000  0.000000  0.000000  0.000000 -0.000000 -0.000000 -0.000000
                                 0.000000  0.000000 -0.000000

                                   1 2px     1 2px     1 2px     1 2px     1 2px     1 2px     1 2px     1 2px     1 2px     1 2px
                                   1 2px     1 2px     1 2px     1 2px     1 2px     1 2px     1 2px     1 2px     1 2px     1 2px
                                   1 2px     1 2px     1 2px     1 2px     1 2px     1 2px     1 2px     1 4f1+    1 4f3+    1 4f1+
                                   1 4f3+    1 4f1+    1 4f3+    1 4f1+    1 4f3+    1 4f1+    1 4f3+

   1.2   2    -1.1036   -9.3181 -0.000000  0.000000 -0.000000  0.000000 -0.000000  0.000001 -0.000006  0.000004 -0.000081 -0.000015
                                -0.001135  0.007352 -0.011791  0.003934 -0.022056  0.105880 -0.456163  0.285423  0.187029  0.447625
                                 0.404267  0.073366 -0.006792  0.004232 -0.002166  0.001074 -0.000341  0.001906 -0.002432  0.004370
                                -0.005274  0.003830 -0.005033 -0.000096 -0.000041  0.000105 -0.000118

   2.2   0     0.0041   -0.5151 -0.000000  0.000000 -0.000000  0.000000 -0.000000  0.000001 -0.000002  0.000007 -0.000022  0.000072
                                -0.000316  0.004874 -0.006611  0.004614 -0.020449  0.036575 -0.051832  0.040115 -0.016074  0.019118
                                -0.006908  0.017405 -0.049785  0.092907 -0.287542  0.700090 -1.416836  0.000005 -0.000002 -0.000020
                                 0.000045 -0.000129  0.000198 -0.000023  0.000149 -0.000285 -0.000011

   3.2   0     0.0143   -0.8496 -0.000000  0.000000 -0.000000  0.000000 -0.000000  0.000001 -0.000005  0.000018 -0.000055  0.000193
                                -0.000790  0.012701 -0.017139  0.012182 -0.053992  0.093474 -0.116145  0.091913 -0.051777  0.027210
                                -0.048001  0.048706 -0.071070  0.318036 -0.728439  2.274553 -1.311993 -0.000021  0.000010  0.000085
                                -0.000180  0.000499 -0.000787  0.000164 -0.000596  0.001014 -0.000006

                                   1 2py     1 2py     1 2py     1 2py     1 2py     1 2py     1 2py     1 2py     1 2py     1 2py
                                   1 2py     1 2py     1 2py     1 2py     1 2py     1 2py     1 2py     1 2py     1 2py     1 2py
                                   1 2py     1 2py     1 2py     1 2py     1 2py     1 2py     1 2py     1 4f1-    1 4f3-    1 4f1-
                                   1 4f3-    1 4f1-    1 4f3-    1 4f1-    1 4f3-    1 4f1-    1 4f3-

   1.3   2    -1.1035   -9.3181 -0.000000  0.000000 -0.000000  0.000000 -0.000000  0.000001 -0.000006  0.000004 -0.000081 -0.000015
                                -0.001135  0.007351 -0.011790  0.003934 -0.022053  0.105873 -0.456149  0.285412  0.187031  0.447614
                                 0.404263  0.073390 -0.006794  0.004225 -0.002167  0.001076 -0.000341  0.001908  0.002430  0.004376
                                 0.005274  0.003840  0.005024 -0.000093  0.000039  0.000107  0.000119

   2.3   0     0.0041   -0.5150  0.000000 -0.000000  0.000000 -0.000000  0.000000 -0.000001  0.000002 -0.000007  0.000022 -0.000072
                                 0.000316 -0.004874  0.006612 -0.004614  0.020450 -0.036577  0.051835 -0.040117  0.016074 -0.019119
                                 0.006907 -0.017405  0.049795 -0.092915  0.287557 -0.700178  1.416890 -0.000005 -0.000003  0.000020
                                 0.000045  0.000129  0.000198  0.000022  0.000147  0.000287 -0.000003

   3.3   0     0.0143   -0.8496 -0.000000  0.000000 -0.000000  0.000000 -0.000000  0.000001 -0.000005  0.000018 -0.000055  0.000193
                                -0.000790  0.012702 -0.017141  0.012184 -0.053999  0.093487 -0.116159  0.091924 -0.051785  0.027211
                                -0.048011  0.048713 -0.071045  0.318063 -0.728523  2.274600 -1.311957 -0.000021 -0.000010  0.000085
                                 0.000180  0.000499  0.000787  0.000162  0.000592  0.001021  0.000038

                                   1 3d2-    1 3d2-    1 3d2-    1 3d2-    1 3d2-    1 3d2-    1 3d2-    1 3d2-    1 3d2-    1 3d2-
                                   1 3d2-    1 3d2-    1 3d2-    1 3d2-    1 3d2-    1 3d2-    1 3d2-    1 3d2-    1 3d2-    1 3d2-
                                   1 3d2-    1 3d2-    1 3d2-    1 5g2-    1 5g4-    1 5g2-    1 5g4-    1 5g2-    1 5g4-    1 5g2-
                                   1 5g4-

   1.4   +    -0.0597   -5.5855  0.000000 -0.000004  0.000005 -0.000091  0.000019 -0.000867  0.002396  0.002820 -0.007168  0.009046
                                -0.000000  0.132918  0.030365  0.289957  0.017695  0.397350  0.341147 -0.048832  0.091815 -0.048398
                                 0.036382 -0.003497  0.000815  0.001013  0.000000  0.003041  0.000000  0.002395 -0.000019 -0.000466
                                -0.000029

   2.4   0     0.0089   -0.4964 -0.000000  0.000001 -0.000003  0.000014 -0.000046  0.000134 -0.000366  0.001026 -0.004247 -2.821413
                                 0.000000  0.049303  2.972352 -0.351182  0.228050 -0.114956  0.255570 -0.326068  0.278613 -0.947537
                                 0.994654 -0.660771  1.350167 -0.000004 -0.000000 -0.000010  0.000000 -0.000014 -0.000000  0.000011
                                 0.000000

   3.4   0     0.0278   -0.7270  0.000000 -0.000002  0.000009 -0.000035  0.000121 -0.000332  0.000904 -0.002834  0.011601  7.563814
                                -0.000000 -0.136302 -7.970112  0.933268 -0.613435  0.296588 -0.708694  0.893525 -0.785753  2.762141
                                -2.964102  2.217300 -1.055744 -0.000023 -0.000000 -0.000053  0.000000 -0.000077 -0.000001  0.000065
                                 0.000002

                                   1 2pz     1 2pz     1 2pz     1 2pz     1 2pz     1 2pz     1 2pz     1 2pz     1 2pz     1 2pz
                                   1 2pz     1 2pz     1 2pz     1 2pz     1 2pz     1 2pz     1 2pz     1 2pz     1 2pz     1 2pz
                                   1 2pz     1 2pz     1 2pz     1 2pz     1 2pz     1 2pz     1 2pz     1 4f0     1 4f2+    1 4f0
                                   1 4f2+    1 4f0     1 4f2+    1 4f0     1 4f2+    1 4f0     1 4f2+

   1.5   2    -1.1048   -9.3219 -0.000000  0.000000 -0.000000  0.000000 -0.000000  0.000001 -0.000006  0.000005 -0.000081 -0.000014
                                -0.001141  0.007433 -0.011903  0.004011 -0.022400  0.106535 -0.457346  0.286376  0.186667  0.448570
                                 0.404657  0.071823 -0.007083  0.004189 -0.002161  0.001071 -0.000340 -0.003150 -0.000003 -0.006538
                                -0.000005 -0.006643 -0.000013 -0.000191 -0.000002 -0.000143  0.000000

   2.5   0     0.0041   -0.5158  0.000000 -0.000000  0.000000 -0.000000  0.000000 -0.000001  0.000002 -0.000007  0.000022 -0.000071
                                 0.000314 -0.004847  0.006573 -0.004589  0.020339 -0.036360  0.051427 -0.039815  0.016048 -0.018872
                                 0.007067 -0.017405  0.048766 -0.092968  0.286091 -0.694126  1.413421  0.000000 -0.000000 -0.000069
                                -0.000000 -0.000264 -0.000000 -0.000272 -0.000001  0.000388  0.000004

   3.5   0     0.0143   -0.8441 -0.000000  0.000000 -0.000000  0.000000 -0.000000  0.000001 -0.000005  0.000018 -0.000055  0.000192
                                -0.000788  0.012659 -0.017085  0.012137 -0.053794  0.093228 -0.116370  0.092020 -0.051305  0.027863
                                -0.046891  0.048243 -0.074434  0.315051 -0.728584  2.278843 -1.316657  0.000001 -0.000000 -0.000270
                                -0.000000 -0.001052 -0.000000 -0.000999 -0.000002  0.001278  0.000013

                                   1 3d1+    1 3d1+    1 3d1+    1 3d1+    1 3d1+    1 3d1+    1 3d1+    1 3d1+    1 3d1+    1 3d1+
                                   1 3d1+    1 3d1+    1 3d1+    1 3d1+    1 3d1+    1 3d1+    1 3d1+    1 3d1+    1 3d1+    1 3d1+
                                   1 3d1+    1 3d1+    1 3d1+    1 5g1+    1 5g3+    1 5g1+    1 5g3+    1 5g1+    1 5g3+    1 5g1+
                                   1 5g3+

   1.6   +    -0.0596   -5.5964  0.000000 -0.000004  0.000005 -0.000091  0.000019 -0.000870  0.002406  0.002834 -0.007212 -0.007465
                                -0.000000  0.133820  0.047991  0.289101  0.019380  0.397696  0.339331 -0.050181  0.091065 -0.048307
                                 0.036360 -0.003470  0.000818 -0.000358 -0.000929 -0.000966 -0.002725 -0.001298 -0.002301 -0.002046
                                -0.000481

   2.6   0     0.0089   -0.4967 -0.000000  0.000001 -0.000003  0.000014 -0.000045  0.000134 -0.000365  0.001023 -0.004234 -2.813833
                                 0.000000  0.049161  2.964373 -0.350271  0.227457 -0.114683  0.254932 -0.325275  0.277925 -0.945193
                                 0.992301 -0.658389  1.348972  0.000001  0.000003  0.000005  0.000010 -0.000008  0.000005  0.000034
                                 0.000009

   3.6   0     0.0277   -0.7278  0.000000 -0.000002  0.000009 -0.000035  0.000121 -0.000331  0.000899 -0.002823  0.011557  7.534742
                                -0.000000 -0.135798 -7.939506  0.929670 -0.611133  0.295422 -0.706081  0.890166 -0.782759  2.751174
                                -2.951180  2.214201 -1.056157  0.000005  0.000019  0.000029  0.000054 -0.000050  0.000029  0.000199
                                 0.000052

                                   1 3d1-    1 3d1-    1 3d1-    1 3d1-    1 3d1-    1 3d1-    1 3d1-    1 3d1-    1 3d1-    1 3d1-
                                   1 3d1-    1 3d1-    1 3d1-    1 3d1-    1 3d1-    1 3d1-    1 3d1-    1 3d1-    1 3d1-    1 3d1-
                                   1 3d1-    1 3d1-    1 3d1-    1 5g1-    1 5g3-    1 5g1-    1 5g3-    1 5g1-    1 5g3-    1 5g1-
                                   1 5g3-

   1.7   +    -0.0595   -5.5963  0.000000 -0.000004  0.000005 -0.000091  0.000019 -0.000870  0.002406  0.002834 -0.007212 -0.007183
                                -0.000000  0.133806  0.047690  0.289118  0.019350  0.397696  0.339458 -0.050236  0.091013 -0.048319
                                 0.036360 -0.003468  0.000818 -0.000358  0.000929 -0.000963  0.002719 -0.001302  0.002256 -0.002059
                                 0.000448

   2.7   0     0.0089   -0.4967 -0.000000  0.000001 -0.000003  0.000014 -0.000045  0.000134 -0.000365  0.001023 -0.004235 -2.814010
                                 0.000000  0.049165  2.964558 -0.350290  0.227469 -0.114687  0.254941 -0.325285  0.277934 -0.945221
                                 0.992329 -0.658416  1.348986  0.000001 -0.000003  0.000005 -0.000010 -0.000009 -0.000005  0.000035
                                -0.000008

   3.7   0     0.0277   -0.7278  0.000000 -0.000002  0.000009 -0.000035  0.000121 -0.000331  0.000900 -0.002823  0.011558  7.535289
                                -0.000000 -0.135807 -7.940078  0.929734 -0.611168  0.295442 -0.706109  0.890205 -0.782789  2.751293
                                -2.951319  2.214232 -1.056151  0.000005 -0.000019  0.000029 -0.000054 -0.000050 -0.000029  0.000201
                                -0.000048

                                   1 4f2-    1 4f2-    1 4f2-    1 4f2-    1 4f2-

   1.8   0     0.1252   -1.2895  0.003910 -0.010653  0.050018 -0.162223  1.068411

   2.8   0     0.4118   -1.9147 -0.006477  0.068693 -0.149892  1.231893 -0.481992

 HOMO      3.1 18721.641892 =  509441.8063eV
 LUMO      2.5     0.004107 =       0.1118eV
 LUMO-HOMO    -18721.637785 = -509441.6945eV

 No convergence



 **********************************************************************************************************************************
 DATASETS  * FILE   NREC   LENGTH (MB)   RECORD NAMES
              1      19       20.67       500      610      700      900      950      970     1000      129      960     1100
                                          VAR    BASINP    GEOM    SYMINP    ZMAT    AOBASIS   BASIS     P2S    ABASIS      S
                                         1400     1410     1420     1200     1210     1080     1600     1650     1700
                                           T        V       ECP      H0       H01     AOSYM     SMH    MOLCAS    OPER

              2       5        5.83       200      700     1000      520     3202
                                        OPTIONS   GEOM     BASIS   MCVARS     RHF

 PROGRAMS   *        TOTAL       RHF       INT
 CPU TIMES  *        76.24      2.86     72.81
 REAL TIME  *        78.83 SEC
 DISK USED  *         2.48 GB
 SF USED    *         0.06 MB
 GA USED    *         0.00 MB       (max)       0.00 MB       (current)
 **********************************************************************************************************************************
   -->
   <time start="06:28:49" end="06:30:07" cpu="76.24" system="1.87" real="78.83"/>
   <storage units="megabyte" memory="8001.84" sf="0.06" df="317.67" eaf="2161.58" ga="0.0"/>
  </jobstep><!--
  --><jobstep command="POP" commandset="POP">
   <!--


 PROGRAM * POP (Mulliken population analysis)


 Density matrix read from record         3202.2  Type=RHF/CHARGE (state 1.1)

 Population analysis by basis function type

 Unique atom        s        p        d        f        g    Total    Charge
   1  NB      3.99782  5.99891  3.00201  0.00109  0.00018 13.00000  - 0.00000


 **********************************************************************************************************************************
 DATASETS  * FILE   NREC   LENGTH (MB)   RECORD NAMES
              1      19       20.67       500      610      700      900      950      970     1000      129      960     1100
                                          VAR    BASINP    GEOM    SYMINP    ZMAT    AOBASIS   BASIS     P2S    ABASIS      S
                                         1400     1410     1420     1200     1210     1080     1600     1650     1700
                                           T        V       ECP      H0       H01     AOSYM     SMH    MOLCAS    OPER

              2       5        5.83       200      700     1000      520     3202
                                        OPTIONS   GEOM     BASIS   MCVARS     RHF

 PROGRAMS   *        TOTAL       POP       RHF       INT
 CPU TIMES  *        76.25      0.01      2.86     72.81
 REAL TIME  *        78.84 SEC
 DISK USED  *         2.48 GB
 SF USED    *         0.06 MB
 GA USED    *         0.00 MB       (max)       0.00 MB       (current)
 **********************************************************************************************************************************
   -->
   <time start="06:30:07" end="06:30:07" cpu="0.01" system="0.0" real="0.01"/>
   <storage units="megabyte" memory="8001.84" sf="0.06" df="317.67" eaf="2161.58" ga="0.0"/>
  </jobstep><!--
  --><jobstep command="MULTI" commandset="MULTI">
   <!--


 PROGRAM * MULTI (Direct Multiconfiguration SCF)       Authors: P.J. Knowles, H.-J. Werner (1984)     S.T. Elbert (1988)


 Number of frozen core orbitals:    4 (   1   1   1   0   1   0   0   0 )
 Number of active  orbitals:        6 (   3   0   0   1   0   1   1   0 )
 Number of external orbitals:     292 (  89  36  36  30  36  30  30   5 )

 State symmetry 1

 Orbital occupancy restrictions for symmetry 7
  1      1       200000

 Number of electrons:     5    Spin symmetry=Sextet    Space symmetry=7
 Number of states:        1
 Number of CSFs:          1

 State symmetry 2

 Orbital occupancy restrictions for symmetry 6
  1      1       200000

 Number of electrons:     5    Spin symmetry=Sextet    Space symmetry=6
 Number of states:        1
 Number of CSFs:          1

 State symmetry 3

 Orbital occupancy restrictions for symmetry 4
  1      1       200000

 Number of electrons:     5    Spin symmetry=Sextet    Space symmetry=4
 Number of states:        1
 Number of CSFs:          1

 State symmetry 4

 Orbital occupancy restrictions for symmetry 1
  1      1       200000

 Number of electrons:     5    Spin symmetry=Sextet    Space symmetry=1
 Number of states:        2
 Number of CSFs:          2

 ?Error: RHF not converged. This error exit can be avoided using the IGNORE_ERROR option on the ORBITAL directive
   --><error/><!--
  --></jobstep><!--
  -->
  <input>
  <!--
 --></job><!--
--></molpro>
