
 Primary working directories    : /global/cscratch1/sd/haihan
 Secondary working directories  : /global/cscratch1/sd/haihan
 Wavefunction directory         : /global/homes/h/haihan/Research/ECP/f_group_element_ecps/Zr/Molpro/molecule/ZrH/UC/wfu/
 Main file repository           : /global/cscratch1/sd/haihan/

 SHA1      : 19cd028119e0e09f93f0674bd8af7968d9b3eff6
 NAME      : 2015.1.36
 ARCHNAME  : linux/x86_64
 FC        : /opt/cray/pe/craype/2.5.14/bin/ftn
 BLASLIB   : -L/opt/intel/compilers_and_libraries_2018.1.163/linux/mkl/lib/intel64 -Wl,-_start-group -lmkl_intel_ilp64 -lmkl_intel_thread -lmkl_core -Wl,-_end-group -liomp5
 id        : lbl

 Nodes     nprocs
 nid01443    11
 Number of processes for MPI-2 version of Molpro:   nprocs(total)=   12   nprocs(compute)=   11   nprocs(helper)=    1

 Using customized tuning parameters: mindgm=7; mindgv=16; mindgc=1; mindgr=1; noblas=0; minvec=7
 default implementation of scratch files=sf  

 ***,Calculation for all-electron YH molecule, SCF and CCSD(T)
 memory,1,g
 gthresh,twoint=1.0E-15
 gthresh,throvl=1.0E-15
 
 set,dkroll=1,dkho=10,dkhp=4
 basis={
 Including file /global/u2/h/haihan/Research/ECP/f_group_element_ecps/Zr/Molpro/molecule/ZrH/UC/r_1.20/../generate/Zr-aug-cc-pwCVTZ.basis
 Including file /global/u2/h/haihan/Research/ECP/f_group_element_ecps/Zr/Molpro/molecule/ZrH/UC/r_1.20/../generate/H-aug-cc-pVTZ.basis
 }
 
 Zr_ccsd=-3596.607176
 H_ccsd=-0.49982785
 
                                                                                 !These are the wf cards parameters
 ne = 41
 symm = 1
 ss= 1
 
                                                                                 !There are irrep cards paramters
 A1=12
 B1=4
 B2=4
 A2=1
 
 
 geometry={
     2
     YH molecule
     Zr 0.0 0.0 0.0
     H 0.0 0.0 1.20
 }
 {rhf,nitord=100;
  maxit,200;
  wf,ne,symm,ss
  occ,A1,B1,B2,A2
  closed,A1-1,B1,B2,A2
  print,orbitals=2
 }
 scf=energy
 _CC_NORM_MAX=2.0
 {rccsd(t),shifts=0.2,shiftp=0.2,thrdis=1.0;diis,1,1,15,1;maxit,100;core,7,3,3,1}
 ccsd=energy
 bind=ccsd-Zr_ccsd-H_ccsd
 
 
 table,1.20,scf,ccsd,bind
 save
 type,csv
 

 Variables initialized (889), CPU time= 0.01 sec
 Commands  initialized (702), CPU time= 0.01 sec, 572 directives.
 Default parameters read. Elapsed time= 0.12 sec

 Checking input...
 Passed
1


                                         ***  PROGRAM SYSTEM MOLPRO  ***
                                       Copyright, TTI GmbH Stuttgart, 2015
                                    Version 2015.1 linked Dec 29 2018 15:55:43


 **********************************************************************************************************************************
 LABEL *   Calculation for all-electron YH molecule, SCF and CCSD(T)                     
  64 bit mpp version                                                                     DATE: 24-Sep-22          TIME: 17:54:53  
 **********************************************************************************************************************************

 SHA1:             19cd028119e0e09f93f0674bd8af7968d9b3eff6
 **********************************************************************************************************************************

 THRESHOLDS:

 ZERO    =  1.00D-12  ONEINT  =  1.00D-12  TWOINT  =  1.00D-15  PREFAC  =  1.00D-14  LOCALI  =  1.00D-09  EORDER  =  1.00D-04
 ENERGY  =  0.00D+00  ETEST   =  0.00D+00  EDENS   =  0.00D+00  THRDEDEF=  1.00D-06  GRADIENT=  1.00D-02  STEP    =  1.00D-03
 ORBITAL =  1.00D-05  CIVEC   =  1.00D-05  COEFF   =  1.00D-04  PRINTCI =  5.00D-02  PUNCHCI =  9.90D+01  OPTGRAD =  3.00D-04
 OPTENERG=  1.00D-06  OPTSTEP =  3.00D-04  THRGRAD =  1.00D-10  COMPRESS=  1.00D-11  VARMIN  =  1.00D-07  VARMAX  =  1.00D-03
 THRDOUB =  0.00D+00  THRDIV  =  1.00D-05  THRRED  =  1.00D-07  THRPSP  =  1.00D+00  THRDC   =  1.00D-10  THRCS   =  1.00D-10
 THRNRM  =  1.00D-08  THREQ   =  0.00D+00  THRDE   =  1.00D+00  THRREF  =  1.00D-05  SPARFAC =  1.00D+00  THRDLP  =  1.00D-07
 THRDIA  =  1.00D-10  THRDLS  =  1.00D-07  THRGPS  =  0.00D+00  THRKEX  =  0.00D+00  THRDIS  =  2.00D-01  THRVAR  =  1.00D-10
 THRLOC  =  1.00D-06  THRGAP  =  1.00D-06  THRLOCT = -1.00D+00  THRGAPT = -1.00D+00  THRORB  =  1.00D-06  THRMLTP =  0.00D+00
 THRCPQCI=  1.00D-10  KEXTA   =  0.00D+00  THRCOARS=  0.00D+00  SYMTOL  =  1.00D-06  GRADTOL =  1.00D-06  THROVL  =  1.00D-08
 THRORTH =  1.00D-08  GRID    =  1.00D-06  GRIDMAX =  1.00D-03  DTMAX   =  0.00D+00  THROCCDE=  1.00D-01  THROCCDE=  1.00D-01



 THRESHOLDS:

 ZERO    =  1.00D-12  ONEINT  =  1.00D-12  TWOINT  =  1.00D-15  PREFAC  =  1.00D-14  LOCALI  =  1.00D-09  EORDER  =  1.00D-04
 ENERGY  =  0.00D+00  ETEST   =  0.00D+00  EDENS   =  0.00D+00  THRDEDEF=  1.00D-06  GRADIENT=  1.00D-02  STEP    =  1.00D-03
 ORBITAL =  1.00D-05  CIVEC   =  1.00D-05  COEFF   =  1.00D-04  PRINTCI =  5.00D-02  PUNCHCI =  9.90D+01  OPTGRAD =  3.00D-04
 OPTENERG=  1.00D-06  OPTSTEP =  3.00D-04  THRGRAD =  1.00D-10  COMPRESS=  1.00D-11  VARMIN  =  1.00D-07  VARMAX  =  1.00D-03
 THRDOUB =  0.00D+00  THRDIV  =  1.00D-05  THRRED  =  1.00D-07  THRPSP  =  1.00D+00  THRDC   =  1.00D-10  THRCS   =  1.00D-10
 THRNRM  =  1.00D-08  THREQ   =  0.00D+00  THRDE   =  1.00D+00  THRREF  =  1.00D-05  SPARFAC =  1.00D+00  THRDLP  =  1.00D-07
 THRDIA  =  1.00D-10  THRDLS  =  1.00D-07  THRGPS  =  0.00D+00  THRKEX  =  0.00D+00  THRDIS  =  2.00D-01  THRVAR  =  1.00D-10
 THRLOC  =  1.00D-06  THRGAP  =  1.00D-06  THRLOCT = -1.00D+00  THRGAPT = -1.00D+00  THRORB  =  1.00D-06  THRMLTP =  0.00D+00
 THRCPQCI=  1.00D-10  KEXTA   =  0.00D+00  THRCOARS=  0.00D+00  SYMTOL  =  1.00D-06  GRADTOL =  1.00D-06  THROVL  =  1.00D-15
 THRORTH =  1.00D-08  GRID    =  1.00D-06  GRIDMAX =  1.00D-03  DTMAX   =  0.00D+00  THROCCDE=  1.00D-01  THROCCDE=  1.00D-01


 SETTING DKROLL         =         1.00000000                                  
 SETTING DKHO           =        10.00000000                                  
 SETTING DKHP           =         4.00000000                                  

 Variable memory set to 1000000000 words,  buffer space   230000 words

 SETTING BASIS          =    USERDEF
 SETTING ZR_CCSD        =     -3596.60717600                                  
 SETTING H_CCSD         =        -0.49982785                                  
 SETTING NE             =        41.00000000                                  
 SETTING SYMM           =         1.00000000                                  
 SETTING SS             =         1.00000000                                  
 SETTING A1             =        12.00000000                                  
 SETTING B1             =         4.00000000                                  
 SETTING B2             =         4.00000000                                  
 SETTING A2             =         1.00000000                                  

Geometry recognized as XYZ



 Recomputing integrals since basis changed


 Using spherical harmonics



 PROGRAM * SEWARD (Integral evaluation for generally contracted gaussian basis sets)     Author: Roland Lindh, 1990

 Geometry written to block  1 of record 700


 Point group  C2v 



 ATOMIC COORDINATES

 NR  ATOM    CHARGE       X              Y              Z

   1  ZR     40.00    0.000000000    0.000000000    0.000000000
   2  H       1.00    0.000000000    0.000000000    2.267671349

 Bond lengths in Bohr (Angstrom)

 1-2  2.267671349
     ( 1.200000000)

 NUCLEAR CHARGE:                   41
 NUMBER OF PRIMITIVE AOS:         347
 NUMBER OF SYMMETRY AOS:          295
 NUMBER OF CONTRACTIONS:          295   ( 129A1  +  67B1  +  67B2  +  32A2  )
 NUMBER OF CORE ORBITALS:          18   (   9A1  +   4B1  +   4B2  +   1A2  )
 NUMBER OF VALENCE ORBITALS:        7   (   4A1  +   1B1  +   1B2  +   1A2  )


 NUCLEAR REPULSION ENERGY   17.63924036

 One-electron integrals computed with SEWARD

 10nd-order Douglas-Kroll-Hess method activated. McWeeny DKH parametrization is used.

 Computing Douglas-Kroll / X2C integrals

 AO integral compression algorithm  1   Integral accuracy      1.0D-15

     1303.118 MB (compressed) written to integral file ( 58.4%)

     Node minimum: 49.021 MB, node maximum: 335.282 MB


 NUMBER OF SORTED TWO-ELECTRON INTEGRALS:   22432752.     BUFFER LENGTH:  32768
 NUMBER OF SEGMENTS:   2  SEGMENT LENGTH:   15996129      RECORD LENGTH: 524288

 Memory used in sort:      16.55 MW

 SORT1 READ   279023068. AND WROTE    10600003. INTEGRALS IN     31 RECORDS. CPU TIME:     3.92 SEC, REAL TIME:     4.59 SEC
 SORT2 READ   115604372. AND WROTE   246753875. INTEGRALS IN   3124 RECORDS. CPU TIME:     0.40 SEC, REAL TIME:     0.82 SEC

 Node minimum:    22405599.  Node maximum:    22490595. integrals

 OPERATOR DM      FOR CENTER  0  COORDINATES:    0.000000    0.000000    0.000000

 EXTRA SYMMETRY OF AOS IN SYMMETRY 1:   1 1 1 1 1 1 1 1 1 1   1 1 1 1 1 1 1 1 1 1   1 1 1 1 1 1 1 1 1 1   1 1 1 1 1 1 1 1 1 1
                                        1 1 1 1 1 1 1 1 1 1   1 1 1 1 1 1 1 1 1 1   2 1 2 1 2 1 2 1 2 1   2 1 2 1 2 1 2 1 2 1
                                        2 1 2 1 2 1 2 1 2 1   2 1 2 1 2 1 2 1 2 1   2 1 2 1 2 1 2 1 3 2   1 3 2 1 3 2 1 1 1 1
                                        1 1 1 1 1 1 2 1 2
 EXTRA SYMMETRY OF AOS IN SYMMETRY 2:   1 1 1 1 1 1 1 1 1 1   1 1 1 1 1 1 1 1 1 1   1 1 1 1 1 1 1 1 1 1   1 1 1 1 1 1 1 1 1 1
                                        1 1 1 1 1 1 1 1 1 2   1 2 1 2 1 2 1 2 1 2   1 2 1 1 1 1 1
 EXTRA SYMMETRY OF AOS IN SYMMETRY 3:   1 1 1 1 1 1 1 1 1 1   1 1 1 1 1 1 1 1 1 1   1 1 1 1 1 1 1 1 1 1   1 1 1 1 1 1 1 1 1 1
                                        1 1 1 1 1 1 1 1 1 2   1 2 1 2 1 2 1 2 1 2   1 2 1 1 1 1 1
 EXTRA SYMMETRY OF AOS IN SYMMETRY 4:   1 1 1 1 1 1 1 1 1 1   1 1 1 1 1 1 1 1 1 1   1 1 1 1 1 2 1 2 1 2   1 1

 Eigenvalues of metric

         1 0.115E-07 0.885E-07 0.978E-07 0.111E-06 0.503E-06 0.998E-06 0.316E-05 0.643E-05
         2 0.122E-07 0.976E-07 0.117E-06 0.104E-05 0.805E-05 0.108E-04 0.356E-04 0.404E-04
         3 0.122E-07 0.976E-07 0.117E-06 0.104E-05 0.805E-05 0.108E-04 0.356E-04 0.404E-04
         4 0.978E-07 0.108E-04 0.404E-04 0.435E-03 0.212E-02 0.594E-02 0.164E-01 0.365E-01


 **********************************************************************************************************************************
 DATASETS  * FILE   NREC   LENGTH (MB)   RECORD NAMES
              1      22       21.76       500      610      700      900      950      970     1000      129      960     1700   
                                          VAR    BASINP    GEOM    SYMINP    ZMAT    AOBASIS   BASIS     P2S    ABASIS    OPER   
                                         1101     1401     1411     1412     1650     1100     1400     1410     1200     1210   
                                          SR      EKINR    POTR     PVPR    MOLCAS      S      EKIN      POT      H0       H01  
                                         1080     1600   
                                         AOSYM     SMH  

 PROGRAMS   *        TOTAL       INT
 CPU TIMES  *        58.79     58.46
 REAL TIME  *        61.13 SEC
 DISK USED  *         2.73 GB      
 GA USED    *         0.00 MB       (max)       0.00 MB       (current)
 **********************************************************************************************************************************


 PROGRAM * RHF-SCF (OPEN SHELL)       Authors: W. Meyer, H.-J. Werner


 NUMBER OF ELECTRONS:      21+   20-    SPACE SYMMETRY=1    SPIN SYMMETRY: Doublet 
 CONVERGENCE THRESHOLDS:    1.00E-05 (Density)    1.00E-07 (Energy)
 MAX. NUMBER OF ITERATIONS:      200
 INTERPOLATION TYPE:            DIIS
 INTERPOLATION STEPS:              2 (START)      1 (STEP)
 LEVEL SHIFTS:                 -0.60 (CLOSED) -0.30 (OPEN) 

 Number of closed-shell orbitals:   20 (  11   4   4   1 )
 Number of open-shell orbitals:      1 (   1   0   0   0 )


 Orbital guess generated from atomic densities. Full valence occupancy:   13   5   5   2

 Molecular orbital dump at record        2100.2

 ITERATION    DDIFF          GRAD             ENERGY        2-EL.EN.            DIPOLE MOMENTS         DIIS   ORB.
    1      0.000D+00      0.000D+00     -3596.00196359   2709.614985    0.00000    0.00000   -4.60546    0    start
    2      0.000D+00      0.101D-01     -3596.55188058   2783.934968    0.00000    0.00000   -0.25454    1    diag,B
    3      0.118D+01      0.658D-02     -3596.58505140   2773.781107    0.00000    0.00000   -0.28587    2    diag,B
    4      0.750D-02      0.187D-02     -3596.59612299   2772.141757    0.00000    0.00000   -0.29182    3    diag,B
    5      0.107D-01      0.931D-03     -3596.60433430   2771.935803    0.00000    0.00000   -0.28947    4    diag,B
    6      0.180D-01      0.564D-03     -3596.60799486   2772.863163    0.00000    0.00000   -0.29378    5    diag,B
    7      0.132D-01      0.340D-03     -3596.60982367   2773.799184    0.00000    0.00000   -0.31410    6    diag,B
    8      0.928D-02      0.132D-03     -3596.61014061   2774.042514    0.00000    0.00000   -0.33935    7    diag,B
    9      0.219D-02      0.620D-04     -3596.61019483   2774.085379    0.00000    0.00000   -0.36184    8    diag,B
   10      0.136D-02      0.206D-04     -3596.61020037   2774.115291    0.00000    0.00000   -0.37161    9    orth
   11      0.118D-02      0.978D-05     -3596.61020177   2774.139438    0.00000    0.00000   -0.37764    9    diag,B
   12      0.637D-03      0.503D-05     -3596.61020219   2774.143841    0.00000    0.00000   -0.38135    9    diag,B
   13      0.970D-04      0.315D-05     -3596.61020239   2774.146884    0.00000    0.00000   -0.38397    9    diag,B
   14      0.138D-03      0.207D-05     -3596.61020250   2774.147879    0.00000    0.00000   -0.38638    9    diag,B
   15      0.793D-04      0.114D-05     -3596.61020254   2774.149145    0.00000    0.00000   -0.38793    9    diag,B
   16      0.135D-03      0.518D-06     -3596.61020254   2774.149910    0.00000    0.00000   -0.38841    9    diag,B
   17      0.352D-04      0.263D-06     -3596.61020254   2774.150105    0.00000    0.00000   -0.38863    9    diag,B
   18      0.212D-04      0.131D-06     -3596.61020254   2774.150031    0.00000    0.00000   -0.38871    9    diag,B
   19      0.936D-05      0.559D-07     -3596.61020254   2774.149993    0.00000    0.00000   -0.38872    0    orth

 Final alpha occupancy:  12   4   4   1
 Final beta  occupancy:  11   4   4   1

 !RHF STATE 1.1 Energy              -3596.610202543111
 Nuclear energy                        17.63924036
 One-electron energy                -5001.32443920
 Two-electron energy                 1387.07499629
 Virial quotient                       -0.91123367
 !RHF STATE 1.1 Dipole moment           0.00000000     0.00000000    -0.38871869
 Dipole moment /Debye                   0.00000000     0.00000000    -0.98795965

 ELECTRON ORBITALS
 =================


   Orb  Occ    Energy  Couls-En    Coefficients

                                   1 1s      1 1s      1 1s      1 1s      1 1s      1 1s      1 1s      1 1s      1 1s      1 1s   
                                   1 1s      1 1s      1 1s      1 1s      1 1s      1 1s      1 1s      1 1s      1 1s      1 1s   
                                   1 1s      1 1s      1 1s      1 1s      1 1s      1 1s      1 1s      1 1s      1 1s      1 1s   
                                   1 1s      1 2pz     1 2pz     1 2pz     1 2pz     1 2pz     1 2pz     1 2pz     1 2pz     1 2pz  
                                   1 2pz     1 2pz     1 2pz     1 2pz     1 2pz     1 2pz     1 2pz     1 2pz     1 2pz     1 2pz  
                                   1 2pz     1 2pz     1 2pz     1 2pz     1 2pz     1 2pz     1 2pz     1 2pz     1 2pz     1 3d0  
                                   1 3d2+    1 3d0     1 3d2+    1 3d0     1 3d2+    1 3d0     1 3d2+    1 3d0     1 3d2+    1 3d0  
                                   1 3d2+    1 3d0     1 3d2+    1 3d0     1 3d2+    1 3d0     1 3d2+    1 3d0     1 3d2+    1 3d0  
                                   1 3d2+    1 3d0     1 3d2+    1 3d0     1 3d2+    1 3d0     1 3d2+    1 3d0     1 3d2+    1 3d0  
                                   1 3d2+    1 3d0     1 3d2+    1 3d0     1 3d2+    1 3d0     1 3d2+    1 3d0     1 3d2+    1 4f0  
                                   1 4f2+    1 4f0     1 4f2+    1 4f0     1 4f2+    1 4f0     1 4f2+    1 5g0     1 5g4+    1 5g2+ 
                                   1 5g0     1 5g4+    1 5g2+    1 5g0     1 5g4+    1 5g2+    2 1s      2 1s      2 1s      2 1s   
                                   2 1s      2 1s      2 2pz     2 2pz     2 2pz     2 3d0     2 3d2+    2 3d0     2 3d2+ 

   1.1   2  -665.0539-1483.1146  0.000042  0.000111  0.000306  0.000707  0.001535  0.003175  0.006516  0.013482  0.028412  0.060272
                                 0.123435  0.225419  0.318990  0.279037 -0.004788  0.105659  0.006279  0.002713 -0.003379  0.004449
                                -0.004769  0.003886 -0.005200  0.003978 -0.000343  0.000148 -0.000090  0.000077 -0.000019  0.000015
                                -0.000001  0.000000  0.000000  0.000000 -0.000000  0.000000 -0.000000 -0.000000 -0.000000  0.000001
                                 0.000001  0.000002 -0.000029  0.000046 -0.000077  0.000183 -0.000315  0.000327 -0.000264  0.000511
                                -0.000635  0.000339 -0.000117  0.000113 -0.000093  0.000022  0.000002  0.000003  0.000000 -0.000000
                                -0.000000 -0.000000  0.000000 -0.000000 -0.000000 -0.000000  0.000000  0.000000 -0.000000 -0.000002
                                 0.000000  0.000003 -0.000000 -0.000001  0.000000  0.000002 -0.000000 -0.000010  0.000000  0.000055
                                -0.000000 -0.000150  0.000000  0.000429 -0.000000 -0.000395  0.000000  0.000076 -0.000000 -0.000014
                                 0.000000  0.000008 -0.000000 -0.000000  0.000000  0.000000 -0.000000  0.000000  0.000000 -0.000000
                                -0.000000  0.000000 -0.000000 -0.000001  0.000000 -0.000000 -0.000000 -0.000000  0.000000  0.000000
                                 0.000000  0.000000 -0.000000 -0.000000  0.000000  0.000000 -0.000000  0.000000 -0.000001  0.000002
                                -0.000034 -0.000010 -0.000001  0.000004  0.000013  0.000001  0.000000 -0.000003 -0.000000

   2.1   2   -94.7734 -298.4784 -0.000014 -0.000036 -0.000101 -0.000234 -0.000508 -0.001055 -0.002177 -0.004544 -0.009722 -0.021200
                                -0.045700 -0.092288 -0.158110 -0.186361  0.004611 -0.034303  0.360988  0.542726  0.231081  0.018508
                                 0.011057  0.001402 -0.004765  0.004280 -0.000625  0.000241 -0.000195  0.000167 -0.000038  0.000033
                                -0.000002  0.000000  0.000000  0.000000  0.000001  0.000002  0.000006  0.000019  0.000053  0.000116
                                 0.000192  0.000245  0.000138  0.000047 -0.000079  0.000286 -0.000508  0.000540 -0.000444  0.000884
                                -0.001114  0.000608 -0.000214  0.000226 -0.000206  0.000050  0.000006  0.000006  0.000001  0.000000
                                -0.000000  0.000000  0.000000  0.000000 -0.000000 -0.000000  0.000000  0.000001 -0.000000  0.000005
                                 0.000000 -0.000001 -0.000000  0.000001  0.000000  0.000002 -0.000000 -0.000011 -0.000000  0.000070
                                 0.000000 -0.000203 -0.000000  0.000612  0.000000 -0.000574 -0.000000  0.000112  0.000000 -0.000034
                                -0.000000  0.000020  0.000000  0.000000 -0.000000  0.000000 -0.000000  0.000001  0.000000  0.000006
                                 0.000000 -0.000003 -0.000000 -0.000002 -0.000000 -0.000001  0.000000 -0.000003 -0.000002 -0.000000
                                -0.000000  0.000000  0.000000 -0.000001 -0.000000 -0.000000 -0.000000 -0.000000 -0.000001  0.000025
                                -0.000079 -0.000023 -0.000002 -0.000002  0.000028  0.000001 -0.000000 -0.000004  0.000000

   3.1   2   -84.3050 -284.2721  0.000000  0.000000  0.000000  0.000000  0.000000  0.000001  0.000002  0.000003  0.000007  0.000015
                                 0.000032  0.000065  0.000111  0.000133 -0.000006  0.000023 -0.000275 -0.000353 -0.000168  0.000025
                                -0.000116  0.000139 -0.000369  0.000348 -0.000070  0.000060 -0.000027  0.000313  0.000070 -0.000017
                                 0.000003  0.000014  0.000054  0.000210  0.000776  0.002803  0.009566  0.029702  0.080894  0.181362
                                 0.307732  0.343364  0.167438  0.035843 -0.004857  0.087009 -0.114075  0.095905 -0.053364  0.064108
                                -0.063090  0.024249 -0.005023  0.002326 -0.001671  0.000342  0.000031 -0.000003  0.000000  0.000000
                                 0.000000  0.000001  0.000000  0.000003  0.000000  0.000015  0.000000  0.000050  0.000000  0.000049
                                 0.000000 -0.000010  0.000000  0.000000  0.000000  0.000008  0.000000 -0.000027  0.000000  0.000193
                                -0.000000 -0.000501  0.000000  0.001341 -0.000000 -0.001206  0.000000  0.000229 -0.000000 -0.000027
                                 0.000000  0.000054 -0.000000  0.000029  0.000000 -0.000006 -0.000000  0.000001  0.000000 -0.000014
                                -0.000000  0.000004  0.000000  0.000011  0.000000  0.000001  0.000000 -0.000000 -0.000000 -0.000000
                                 0.000003 -0.000000 -0.000000  0.000001 -0.000000  0.000000 -0.000000 -0.000000 -0.000005 -0.000082
                                -0.000352  0.000000  0.000002  0.000034  0.000081 -0.000003  0.000000 -0.000005 -0.000000

   4.1   2   -16.6649 -100.0386  0.000006  0.000015  0.000042  0.000097  0.000212  0.000440  0.000908  0.001899  0.004069  0.008914
                                 0.019330  0.039660  0.069676  0.087551 -0.006077  0.020203 -0.235442 -0.479310 -0.253156  0.245338
                                 0.404267  0.490469  0.251627 -0.026117  0.015503 -0.002568  0.000293 -0.000986  0.000305  0.000021
                                 0.000021 -0.000000 -0.000000 -0.000000 -0.000001 -0.000005 -0.000018 -0.000058 -0.000161 -0.000373
                                -0.000662 -0.000784  0.000007 -0.000180  0.001787 -0.001266  0.004562 -0.002806  0.004162 -0.005910
                                 0.007882 -0.004341  0.001786 -0.001731  0.000110 -0.000290  0.000031  0.000046 -0.000003 -0.000000
                                -0.000000 -0.000000  0.000000 -0.000001 -0.000000 -0.000001  0.000000 -0.000008 -0.000000  0.000005
                                 0.000000 -0.000030 -0.000000  0.000000 -0.000000  0.000012  0.000000  0.000322 -0.000000 -0.001527
                                 0.000000  0.004201 -0.000000 -0.012370  0.000000  0.011876 -0.000000 -0.002717  0.000000 -0.000320
                                -0.000000  0.000025  0.000000  0.000004  0.000000  0.000031 -0.000000 -0.000002 -0.000000  0.000169
                                 0.000000 -0.000334 -0.000000 -0.000081 -0.000000  0.000025  0.000000  0.000000 -0.000002 -0.000000
                                -0.000047  0.000027  0.000000 -0.000012 -0.000005 -0.000000  0.000003 -0.000001  0.000174  0.001535
                                 0.000367 -0.000096 -0.000074 -0.000722 -0.000265  0.000008 -0.000000  0.000153  0.000000

   5.1   2   -13.1503  -93.4992 -0.000000 -0.000000 -0.000000 -0.000000 -0.000001 -0.000002 -0.000004 -0.000009 -0.000019 -0.000042
                                -0.000091 -0.000187 -0.000330 -0.000413  0.000019 -0.000083  0.001133  0.002292  0.001100 -0.000927
                                -0.002560 -0.002016 -0.001683  0.000970 -0.000070 -0.000279  0.001096 -0.002081 -0.000286  0.000023
                                -0.000006 -0.000006 -0.000023 -0.000090 -0.000333 -0.001207 -0.004150 -0.013036 -0.036472 -0.084856
                                -0.152406 -0.171614 -0.014109  0.012284  0.284628  0.033371  0.432041  0.029951  0.291376 -0.053907
                                 0.124286 -0.037903  0.011625 -0.005238  0.004771 -0.001536 -0.000340  0.000038 -0.000009  0.000000
                                 0.000000  0.000001  0.000000  0.000009  0.000000  0.000032  0.000000  0.000081  0.000000  0.000130
                                 0.000000  0.000109 -0.000000  0.000414  0.000000  0.000840  0.000000  0.000989  0.000000  0.000081
                                -0.000000 -0.001262  0.000000  0.005976 -0.000000 -0.005860  0.000000  0.001123 -0.000000  0.000232
                                 0.000000 -0.000349 -0.000000 -0.000191 -0.000000  0.000022  0.000000 -0.000004 -0.000000  0.000009
                                -0.000000  0.000182  0.000000 -0.000054 -0.000000 -0.000019 -0.000000  0.000081  0.000000 -0.000000
                                -0.000037 -0.000000 -0.000000  0.000008  0.000000  0.000000  0.000006  0.000030  0.000153 -0.000267
                                 0.001993  0.000013 -0.000100  0.000244 -0.000337  0.000045  0.000000 -0.000085  0.000000

   6.1   2    -7.3785  -83.1709 -0.000000 -0.000000 -0.000000 -0.000000 -0.000000 -0.000000 -0.000000 -0.000001 -0.000002 -0.000004
                                -0.000008 -0.000017 -0.000026 -0.000058  0.000071 -0.000084  0.000174  0.000116  0.000541 -0.001287
                                 0.001911 -0.003900  0.011987 -0.011476  0.003441 -0.000001 -0.006348  0.000261 -0.000827  0.001814
                                 0.000013  0.000000  0.000000  0.000000  0.000001  0.000004  0.000013  0.000041  0.000116  0.000273
                                 0.000493  0.000562 -0.000319  0.000397 -0.002029  0.002120 -0.006291  0.005294 -0.005457  0.013497
                                -0.016247  0.008466 -0.001049  0.000796 -0.005593 -0.000844 -0.000159  0.000610  0.000007  0.000165
                                -0.000000  0.001479 -0.000000  0.008699 -0.000000  0.034328 -0.000000  0.100489 -0.000000  0.221181
                                -0.000000 -0.003578  0.000000  0.327746 -0.000000  0.332257 -0.000000  0.202953 -0.000000 -0.036156
                                 0.000000  0.110034 -0.000000 -0.110346  0.000000  0.083796 -0.000000 -0.008283  0.000000 -0.001936
                                -0.000000  0.000158  0.000000 -0.000207 -0.000000  0.000173  0.000000  0.000033 -0.000000  0.001128
                                -0.000000 -0.001278  0.000000 -0.000577  0.000000  0.000061 -0.000000  0.000137  0.000019  0.000000
                                -0.000332 -0.000067  0.000000 -0.000074  0.000011 -0.000000  0.000026  0.000149  0.000898  0.006890
                                 0.000892 -0.001639 -0.000467 -0.002483 -0.000338  0.000083  0.000000  0.000280 -0.000000

   7.1   2    -7.3732  -83.1447 -0.000000 -0.000000  0.000000 -0.000000 -0.000000  0.000000 -0.000000  0.000000 -0.000000 -0.000000
                                -0.000000  0.000000 -0.000000 -0.000000  0.000000 -0.000000  0.000000 -0.000000  0.000000 -0.000000
                                 0.000000 -0.000000  0.000000  0.000000  0.000000  0.000000  0.000000  0.000000  0.000000  0.000000
                                 0.000000 -0.000000  0.000000  0.000000  0.000000  0.000000  0.000000  0.000000  0.000000  0.000000
                                 0.000000  0.000000 -0.000000  0.000000 -0.000000  0.000000 -0.000000  0.000000 -0.000000  0.000000
                                -0.000000  0.000000 -0.000000  0.000000 -0.000000  0.000000  0.000000  0.000000  0.000000  0.000000
                                 0.000165  0.000000  0.001479  0.000000  0.008696  0.000000  0.034317  0.000000  0.100456  0.000000
                                 0.221109  0.000000 -0.003577  0.000000  0.327668  0.000000  0.332242  0.000000  0.203111  0.000000
                                -0.036235 -0.000000  0.110189  0.000000 -0.105352 -0.000000  0.075708  0.000000 -0.004250 -0.000000
                                 0.000624  0.000000 -0.000181 -0.000000  0.000091  0.000000 -0.000007 -0.000000  0.000003  0.000000
                                 0.000403 -0.000000 -0.000129 -0.000000  0.000035 -0.000000 -0.000019 -0.000000  0.000000  0.000084
                                -0.000000 -0.000000 -0.000123 -0.000000  0.000000  0.000012  0.000000 -0.000000 -0.000000  0.000000
                                -0.000000 -0.000000 -0.000000 -0.000000  0.000000  0.000000  0.000009 -0.000000  0.000024

   8.1   2    -2.5068  -38.1614 -0.000002 -0.000006 -0.000016 -0.000037 -0.000079 -0.000165 -0.000341 -0.000713 -0.001526 -0.003352
                                -0.007260 -0.014986 -0.026289 -0.034197  0.004779 -0.010520  0.097760  0.202414  0.126759 -0.158696
                                -0.178223 -0.554163 -0.111802 -0.039019  0.772308  0.542331 -0.023960  0.042637 -0.016975  0.015790
                                -0.000583  0.000000  0.000000  0.000001  0.000004  0.000015  0.000049  0.000158  0.000430  0.001047
                                 0.001770  0.002529 -0.008945  0.014616 -0.032973  0.074936 -0.152953  0.167086 -0.163274  0.365316
                                -0.477011  0.277623 -0.077381  0.083501 -0.079704  0.004935 -0.001627  0.003909  0.000178 -0.000001
                                -0.000000 -0.000006  0.000000 -0.000031 -0.000000 -0.000143  0.000000 -0.000327 -0.000000 -0.001871
                                 0.000000  0.001319 -0.000000 -0.001944  0.000000  0.000138 -0.000000 -0.009688  0.000000  0.059185
                                -0.000000 -0.162313  0.000000  0.447678 -0.000000 -0.395618  0.000000  0.066522 -0.000000 -0.017018
                                 0.000000  0.003980 -0.000000 -0.002344  0.000000  0.000704 -0.000000  0.000338  0.000000  0.000924
                                 0.000000 -0.002591 -0.000000 -0.003269  0.000000 -0.000289 -0.000000  0.000674  0.000270  0.000000
                                 0.000977  0.001129 -0.000000 -0.000575  0.000150  0.000000  0.000899  0.005858  0.022969  0.039643
                                -0.008882 -0.011719 -0.008510 -0.009550  0.006296  0.003061  0.000000 -0.000587 -0.000000

   9.1   2    -1.5623  -32.8613  0.000000  0.000000  0.000001  0.000002  0.000005  0.000011  0.000022  0.000046  0.000099  0.000216
                                 0.000470  0.000967  0.001704  0.002184 -0.000215  0.000575 -0.006259 -0.013343 -0.007563  0.008443
                                 0.016147  0.030731  0.037277 -0.030603 -0.040034 -0.035630 -0.074210  0.005859 -0.000507 -0.002038
                                 0.000344  0.000002  0.000008  0.000030  0.000110  0.000400  0.001377  0.004335  0.012178  0.028509
                                 0.051690  0.058439 -0.004623 -0.001241 -0.132282  0.005791 -0.242167  0.017169 -0.173753  0.176132
                                -0.035757  0.192164  0.434839  0.397131 -0.106115  0.036620 -0.005176  0.000704 -0.000255 -0.000002
                                -0.000000 -0.000018  0.000000 -0.000099  0.000000 -0.000424  0.000000 -0.001107 -0.000000 -0.004170
                                 0.000000  0.001983 -0.000000 -0.004940  0.000000 -0.001650 -0.000000 -0.015556  0.000000  0.088290
                                -0.000000 -0.227171  0.000000  0.597597 -0.000000 -0.510659  0.000000  0.082167 -0.000000 -0.032049
                                 0.000000  0.004322 -0.000000 -0.002740 -0.000000 -0.000115  0.000000 -0.000001 -0.000000  0.008729
                                 0.000000  0.009480  0.000000 -0.003906  0.000000 -0.000637  0.000000  0.002160 -0.000011  0.000000
                                -0.000293 -0.000090  0.000000 -0.001949 -0.000023  0.000000  0.002547  0.017649  0.070351  0.139026
                                -0.002159  0.000757 -0.016318 -0.030624  0.007530  0.005087  0.000000  0.001444  0.000000

  10.1   2    -0.4923  -21.3724  0.000000  0.000001  0.000003  0.000006  0.000014  0.000028  0.000059  0.000123  0.000263  0.000579
                                 0.001254  0.002587  0.004548  0.005893 -0.000748  0.001734 -0.016972 -0.035776 -0.021714  0.026333
                                 0.038417  0.099524  0.067249 -0.044371 -0.172579 -0.167624 -0.111721 -0.057076 -0.044566  0.015157
                                -0.003594 -0.000001 -0.000002 -0.000009 -0.000034 -0.000124 -0.000428 -0.001345 -0.003784 -0.008848
                                -0.016110 -0.018004 -0.002047  0.006638  0.029563  0.033260  0.004617  0.087567 -0.046232  0.217031
                                -0.392610  0.175628 -0.248347 -0.057898 -0.157707 -0.080159 -0.038174  0.011737 -0.002836 -0.000028
                                -0.000000 -0.000258 -0.000000 -0.001506 -0.000000 -0.006028 -0.000000 -0.017558 -0.000000 -0.042268
                                 0.000000  0.004607 -0.000000 -0.058587 -0.000000 -0.047794 -0.000000 -0.030879  0.000000  0.240149
                                -0.000000 -0.563806  0.000000  2.085747 -0.000000 -1.965846  0.000000  0.648619 -0.000000  0.089179
                                 0.000000  0.082851 -0.000000  0.021944  0.000000 -0.001272 -0.000000  0.001038  0.000000  0.018437
                                -0.000000  0.020221  0.000000 -0.002364 -0.000000 -0.001240  0.000000  0.004098 -0.000047  0.000000
                                 0.004094 -0.000564  0.000000 -0.002530 -0.000435 -0.000000  0.005857  0.042143  0.183122  0.504533
                                 0.330562  0.003946 -0.015032 -0.066885 -0.017284  0.004740  0.000000  0.004399  0.000000

  11.1   2    -0.2134  -13.2357  0.000001  0.000001  0.000004  0.000009  0.000020  0.000041  0.000085  0.000178  0.000380  0.000835
                                 0.001808  0.003734  0.006554  0.008538 -0.001199  0.002636 -0.024616 -0.051412 -0.032322  0.040763
                                 0.049083  0.156672  0.040320 -0.000237 -0.283285 -0.344149 -0.001059  0.266917  0.602732  0.351232
                                 0.004683  0.000000  0.000000  0.000000  0.000001  0.000002  0.000009  0.000027  0.000080  0.000171
                                 0.000362  0.000200  0.003476 -0.005892  0.010559 -0.030483  0.057587 -0.068320  0.062701 -0.138074
                                 0.179734 -0.095604  0.030619 -0.001848  0.017590  0.023468 -0.015679  0.003896  0.001744  0.000013
                                 0.000000  0.000115  0.000000  0.000671  0.000000  0.002702  0.000000  0.007804  0.000000  0.019633
                                 0.000000 -0.003004 -0.000000  0.026672  0.000000  0.020390 -0.000000  0.018633  0.000000 -0.138985
                                -0.000000  0.332921  0.000000 -1.161233 -0.000000  1.091860  0.000000 -0.341292 -0.000000 -0.066697
                                -0.000000 -0.064505 -0.000000 -0.055426 -0.000000 -0.008109  0.000000 -0.000068 -0.000000 -0.002311
                                -0.000000  0.000842 -0.000000  0.005540 -0.000000  0.001488 -0.000000  0.000235  0.000574  0.000000
                                -0.000453  0.000612 -0.000000 -0.000946  0.000247  0.000000 -0.000201 -0.001433 -0.006072 -0.021974
                                -0.037274 -0.051481  0.007490  0.017176  0.014870 -0.003023 -0.000000 -0.000610 -0.000000

  12.1   +    -0.2919  -22.0050  0.000000  0.000000  0.000000  0.000000  0.000000  0.000000  0.000000  0.000000  0.000000  0.000000
                                 0.000000  0.000000  0.000000  0.000000 -0.000000  0.000000 -0.000000 -0.000000 -0.000000  0.000000
                                -0.000000  0.000000 -0.000000  0.000000 -0.000000 -0.000000 -0.000000  0.000000  0.000000 -0.000000
                                -0.000000 -0.000000  0.000000 -0.000000  0.000000 -0.000000 -0.000000 -0.000000 -0.000000 -0.000000
                                -0.000000 -0.000000 -0.000000  0.000000 -0.000000  0.000000 -0.000000  0.000000 -0.000000  0.000000
                                -0.000000  0.000000 -0.000000  0.000000 -0.000000  0.000000  0.000000 -0.000000  0.000000  0.000000
                                -0.000039  0.000000 -0.000351  0.000000 -0.002051  0.000000 -0.008223  0.000000 -0.023901  0.000000
                                -0.058225 -0.000000  0.007020  0.000000 -0.080196  0.000000 -0.064255  0.000000 -0.041891 -0.000000
                                 0.336023  0.000000 -0.783748 -0.000000  2.958267  0.000000 -2.837595 -0.000000  0.984781  0.000000
                                 0.231809 -0.000000  0.210505  0.000000  0.165929 -0.000000  0.011952 -0.000000  0.003831 -0.000000
                                 0.001868  0.000000  0.002576 -0.000000 -0.002383  0.000000 -0.002432  0.000000  0.000000 -0.001286
                                 0.000000  0.000000 -0.002453  0.000000  0.000000 -0.000967 -0.000000 -0.000000 -0.000000 -0.000000
                                -0.000000  0.000000  0.000000  0.000000  0.000000 -0.000000  0.001257 -0.000000 -0.000818

  13.1   0     0.0113   -5.5856  0.000000  0.000000  0.000000  0.000000  0.000001  0.000002  0.000004  0.000010  0.000020  0.000047
                                 0.000090  0.000223  0.000273  0.000952 -0.001699  0.001956 -0.002846  0.000248 -0.012316  0.029229
                                -0.054586  0.095700 -0.277347  0.270301 -0.091342  0.078051 -0.278751  1.047943  0.055170 -0.116797
                                -0.569320 -0.000000 -0.000001 -0.000003 -0.000011 -0.000040 -0.000136 -0.000431 -0.001198 -0.002850
                                -0.005032 -0.006267  0.010355 -0.016179  0.044511 -0.082119  0.180400 -0.178479  0.179930 -0.376978
                                 0.466744 -0.278584  0.030945 -0.102926 -0.003541  0.323317  0.653748 -0.434932  0.931657  0.000005
                                 0.000000  0.000046  0.000000  0.000268  0.000000  0.001064  0.000000  0.003134  0.000000  0.007105
                                -0.000000 -0.000318  0.000000  0.010126 -0.000000  0.008983  0.000000  0.001762 -0.000000 -0.017318
                                 0.000000  0.022770 -0.000000 -0.131119  0.000000  0.120307 -0.000000 -0.066784  0.000000 -0.068601
                                 0.000000  0.091010 -0.000000  0.100965  0.000000 -0.067704 -0.000000 -0.107514  0.000000 -0.000662
                                 0.000000  0.000984 -0.000000  0.035315  0.000000  0.029863 -0.000000 -0.000291  0.000274  0.000000
                                 0.004050  0.000828 -0.000000  0.005450  0.000655  0.000000  0.000035 -0.000028  0.002202 -0.074745
                                -1.009976  0.604409  0.005459  0.010738  0.156838 -0.001604 -0.000000  0.014605 -0.000000

  14.1   0     0.0224   -3.7837  0.000000  0.000000  0.000001  0.000002  0.000004  0.000009  0.000019  0.000041  0.000084  0.000196
                                 0.000394  0.000901  0.001309  0.003083 -0.004051  0.004795 -0.009125 -0.004734 -0.031804  0.071758
                                -0.120990  0.236938 -0.631354  0.616587 -0.233427  0.162461 -0.333495  0.071523 -1.613188 -4.873489
                                -2.930980  0.000000  0.000000  0.000000  0.000001  0.000002  0.000013  0.000016  0.000123  0.000047
                                 0.000842 -0.002152  0.052912 -0.087961  0.167536 -0.443899  0.852191 -0.981096  0.921643 -2.141501
                                 2.883402 -1.696495  0.679767 -0.966593  0.999285 -0.657611 -0.462146 -2.500126 -0.532755  0.000001
                                 0.000000  0.000014  0.000000  0.000055  0.000000  0.000337  0.000000  0.000482  0.000000  0.007515
                                -0.000000 -0.007345  0.000000  0.006472 -0.000000 -0.005122  0.000000  0.049724 -0.000000 -0.331272
                                 0.000000  0.957417 -0.000000 -2.922861  0.000000  2.764042 -0.000000 -0.595147  0.000000  0.237504
                                -0.000000 -0.341912  0.000000 -0.094261 -0.000000 -0.373381 -0.000000 -0.394945  0.000000  0.000445
                                -0.000000  0.000652  0.000000 -0.032202 -0.000000 -0.094819  0.000000  0.000469  0.000176  0.000000
                                -0.001533  0.000780 -0.000000 -0.016104  0.000819 -0.000000  0.000113  0.000980  0.003229  0.085150
                                 1.461438  8.336618  0.000939 -0.008049 -0.122432 -0.001141  0.000000 -0.009076  0.000000

                                   1 2px     1 2px     1 2px     1 2px     1 2px     1 2px     1 2px     1 2px     1 2px     1 2px  
                                   1 2px     1 2px     1 2px     1 2px     1 2px     1 2px     1 2px     1 2px     1 2px     1 2px  
                                   1 2px     1 2px     1 2px     1 2px     1 2px     1 2px     1 2px     1 2px     1 3d1+    1 3d1+ 
                                   1 3d1+    1 3d1+    1 3d1+    1 3d1+    1 3d1+    1 3d1+    1 3d1+    1 3d1+    1 3d1+    1 3d1+ 
                                   1 3d1+    1 3d1+    1 3d1+    1 3d1+    1 3d1+    1 3d1+    1 3d1+    1 3d1+    1 4f1+    1 4f3+ 
                                   1 4f1+    1 4f3+    1 4f1+    1 4f3+    1 4f1+    1 4f3+    1 5g1+    1 5g3+    1 5g1+    1 5g3+ 
                                   1 5g1+    1 5g3+    2 2px     2 2px     2 2px     2 3d1+    2 3d1+ 

   1.2   2   -84.3047 -284.2707  0.000014  0.000054  0.000210  0.000776  0.002803  0.009566  0.029702  0.080894  0.181363  0.307735
                                 0.343358  0.167552  0.035649 -0.004505  0.086140 -0.112521  0.094246 -0.051987  0.061428 -0.059803
                                 0.022558 -0.004478  0.001801 -0.001241  0.000132 -0.000022  0.000009 -0.000002  0.000000  0.000000
                                 0.000000  0.000004  0.000022  0.000033 -0.000002  0.000014 -0.000000 -0.000004  0.000006 -0.000020
                                 0.000053 -0.000048  0.000009 -0.000002  0.000003  0.000006 -0.000001  0.000000  0.000009 -0.000009
                                 0.000001 -0.000002  0.000002 -0.000001  0.000002  0.000000  0.000001 -0.000000 -0.000000  0.000000
                                 0.000001  0.000000  0.000001  0.000000 -0.000013 -0.000000  0.000000

   2.2   2   -13.1484  -93.4890 -0.000006 -0.000023 -0.000090 -0.000333 -0.001207 -0.004151 -0.013037 -0.036477 -0.084865 -0.152427
                                -0.171633 -0.014190  0.012433  0.284423  0.034061  0.430956  0.031107  0.290417 -0.052620  0.123079
                                -0.037575  0.011429 -0.003801  0.002573 -0.000376  0.000010 -0.000018  0.000005  0.000000  0.000002
                                 0.000014  0.000053  0.000148  0.000356  0.000006  0.000623  0.000646  0.000360  0.000132 -0.000271
                                 0.001080 -0.000995  0.000196 -0.000273  0.000106 -0.000061  0.000004 -0.000000  0.000129 -0.000054
                                -0.000194  0.000115 -0.000033 -0.000012 -0.000010  0.000008  0.000032  0.000000 -0.000081  0.000000
                                 0.000014 -0.000000  0.000007  0.000169  0.000132 -0.000010 -0.000099

   3.2   2    -7.3654  -83.0966  0.000000  0.000000  0.000000  0.000001  0.000002  0.000008  0.000024  0.000067  0.000156  0.000279
                                 0.000315 -0.000061  0.000113 -0.000768  0.000578 -0.002075  0.001248 -0.001949  0.003176 -0.004130
                                 0.002393 -0.000605  0.001152 -0.001553 -0.000076 -0.000153  0.000019 -0.000004  0.000165  0.001476
                                 0.008681  0.034256  0.100272  0.220655 -0.003510  0.327147  0.332237  0.204058 -0.035957  0.109996
                                -0.103212  0.073881 -0.004186 -0.000409  0.000128 -0.000115 -0.000008  0.000002  0.000814  0.000002
                                -0.000674  0.000001 -0.000035  0.000000 -0.000027  0.000000  0.000105 -0.000012 -0.000180  0.000041
                                 0.000048 -0.000007  0.000106  0.000655  0.000354 -0.000133 -0.000376

   4.2   2    -1.4831  -33.5462  0.000002  0.000008  0.000031  0.000116  0.000419  0.001443  0.004536  0.012764  0.029817  0.054268
                                 0.060524  0.009326 -0.024955 -0.093250 -0.114497 -0.021164 -0.251030  0.070322 -0.382512  0.706136
                                -0.206066  0.595330  0.288502  0.047715  0.046545  0.000868  0.001124 -0.000275 -0.000001 -0.000007
                                -0.000040 -0.000161 -0.000467 -0.001142  0.000122 -0.001627 -0.001422 -0.000562  0.003881 -0.001563
                                -0.001723  0.010500 -0.000568  0.004170 -0.003329  0.000562 -0.000114  0.000018 -0.001263  0.002148
                                -0.002821  0.005080 -0.003195  0.003519 -0.000001 -0.000041  0.000553  0.000022 -0.000296  0.000012
                                -0.000334 -0.000019  0.003283  0.000949 -0.001197 -0.001258  0.001252

   5.2   0     0.0129   -5.3774 -0.000000 -0.000001 -0.000003 -0.000012 -0.000043 -0.000145 -0.000473 -0.001276 -0.003151 -0.005209
                                -0.007980  0.036156 -0.058912  0.127267 -0.296749  0.594061 -0.650270  0.623346 -1.400886  1.839047
                                -1.086589  0.349723 -0.616856  0.548732 -0.111484  0.449586 -0.193848  0.974993  0.000001  0.000008
                                 0.000050  0.000191  0.000596  0.000913  0.000440  0.001596  0.002169 -0.002995  0.018320 -0.057051
                                 0.155258 -0.144024  0.020132 -0.012836  0.016148  0.029732 -0.007073 -0.057903 -0.000458  0.000302
                                -0.001202  0.002018  0.006604  0.005740  0.023369  0.004336 -0.000109 -0.000027  0.001305 -0.000095
                                 0.004769 -0.000176  0.001051 -0.008045 -0.100606  0.000384  0.008553

   6.2   0     0.0419   -4.8351  0.000000  0.000000  0.000000  0.000002  0.000005  0.000021  0.000055  0.000192  0.000340  0.000963
                                -0.000331  0.024117 -0.040192  0.074850 -0.201876  0.383835 -0.443558  0.412109 -0.947553  1.267799
                                -0.732652  0.293574 -0.373390  0.372539 -0.115731  0.161069 -0.342663  0.323224 -0.000008 -0.000061
                                -0.000407 -0.001422 -0.005030 -0.000792 -0.011540 -0.008129 -0.025190  0.078410 -0.508033  1.503251
                                -4.419178  4.158116 -0.804292  0.477966 -0.399020  0.469002 -0.456997  1.129898  0.000824 -0.000068
                                 0.001353 -0.000377  0.009618 -0.000960  0.004111 -0.000864  0.000131  0.000237  0.000655  0.000785
                                 0.005990  0.000669  0.003793 -0.001754 -0.071039 -0.000927  0.005866

                                   1 2py     1 2py     1 2py     1 2py     1 2py     1 2py     1 2py     1 2py     1 2py     1 2py  
                                   1 2py     1 2py     1 2py     1 2py     1 2py     1 2py     1 2py     1 2py     1 2py     1 2py  
                                   1 2py     1 2py     1 2py     1 2py     1 2py     1 2py     1 2py     1 2py     1 3d1-    1 3d1- 
                                   1 3d1-    1 3d1-    1 3d1-    1 3d1-    1 3d1-    1 3d1-    1 3d1-    1 3d1-    1 3d1-    1 3d1- 
                                   1 3d1-    1 3d1-    1 3d1-    1 3d1-    1 3d1-    1 3d1-    1 3d1-    1 3d1-    1 4f1-    1 4f3- 
                                   1 4f1-    1 4f3-    1 4f1-    1 4f3-    1 4f1-    1 4f3-    1 5g1-    1 5g3-    1 5g1-    1 5g3- 
                                   1 5g1-    1 5g3-    2 2py     2 2py     2 2py     2 3d1-    2 3d1- 

   1.3   2   -84.3047 -284.2707  0.000014  0.000054  0.000210  0.000776  0.002803  0.009566  0.029702  0.080894  0.181363  0.307735
                                 0.343358  0.167552  0.035650 -0.004505  0.086142 -0.112523  0.094248 -0.051988  0.061429 -0.059805
                                 0.022558 -0.004478  0.001801 -0.001241  0.000132 -0.000022  0.000009 -0.000002  0.000000  0.000000
                                 0.000000  0.000004  0.000022  0.000033 -0.000002  0.000014 -0.000000 -0.000004  0.000006 -0.000020
                                 0.000053 -0.000048  0.000009 -0.000002  0.000003  0.000006 -0.000001  0.000000  0.000009  0.000009
                                 0.000001  0.000002  0.000002  0.000001  0.000002 -0.000000  0.000001  0.000000 -0.000000 -0.000000
                                 0.000001 -0.000000  0.000001  0.000000 -0.000013 -0.000000  0.000000

   2.3   2   -13.1484  -93.4890 -0.000006 -0.000023 -0.000090 -0.000333 -0.001207 -0.004151 -0.013037 -0.036477 -0.084865 -0.152427
                                -0.171633 -0.014190  0.012433  0.284424  0.034058  0.430961  0.031103  0.290420 -0.052625  0.123084
                                -0.037577  0.011430 -0.003801  0.002573 -0.000376  0.000010 -0.000018  0.000005  0.000000  0.000002
                                 0.000014  0.000053  0.000148  0.000356  0.000006  0.000623  0.000646  0.000360  0.000132 -0.000271
                                 0.001080 -0.000994  0.000196 -0.000273  0.000106 -0.000061  0.000004 -0.000000  0.000129  0.000054
                                -0.000194 -0.000115 -0.000033  0.000012 -0.000010 -0.000008  0.000032 -0.000000 -0.000081 -0.000000
                                 0.000014  0.000000  0.000007  0.000169  0.000132 -0.000010 -0.000099

   3.3   2    -7.3654  -83.0966  0.000000  0.000000  0.000000  0.000001  0.000002  0.000008  0.000024  0.000067  0.000156  0.000279
                                 0.000315 -0.000061  0.000113 -0.000768  0.000578 -0.002075  0.001248 -0.001949  0.003176 -0.004130
                                 0.002393 -0.000605  0.001152 -0.001553 -0.000076 -0.000153  0.000019 -0.000004  0.000165  0.001476
                                 0.008681  0.034256  0.100272  0.220655 -0.003510  0.327147  0.332237  0.204058 -0.035957  0.109996
                                -0.103212  0.073881 -0.004186 -0.000409  0.000128 -0.000115 -0.000008  0.000002  0.000814 -0.000002
                                -0.000674 -0.000001 -0.000035 -0.000000 -0.000027 -0.000000  0.000105  0.000012 -0.000180 -0.000041
                                 0.000048  0.000007  0.000106  0.000655  0.000354 -0.000133 -0.000376

   4.3   2    -1.4831  -33.5462  0.000002  0.000008  0.000031  0.000116  0.000419  0.001443  0.004536  0.012764  0.029817  0.054268
                                 0.060524  0.009326 -0.024955 -0.093251 -0.114496 -0.021166 -0.251028  0.070320 -0.382509  0.706133
                                -0.206065  0.595329  0.288502  0.047715  0.046545  0.000868  0.001124 -0.000275 -0.000001 -0.000007
                                -0.000040 -0.000161 -0.000467 -0.001142  0.000122 -0.001627 -0.001422 -0.000562  0.003881 -0.001563
                                -0.001723  0.010500 -0.000568  0.004170 -0.003329  0.000562 -0.000114  0.000018 -0.001263 -0.002148
                                -0.002821 -0.005080 -0.003195 -0.003519 -0.000001  0.000041  0.000553 -0.000022 -0.000296 -0.000012
                                -0.000334  0.000019  0.003283  0.000949 -0.001197 -0.001258  0.001252

   5.3   0     0.0129   -5.3774 -0.000000 -0.000001 -0.000003 -0.000012 -0.000043 -0.000145 -0.000473 -0.001276 -0.003151 -0.005209
                                -0.007980  0.036156 -0.058912  0.127268 -0.296749  0.594062 -0.650271  0.623346 -1.400886  1.839047
                                -1.086589  0.349723 -0.616856  0.548732 -0.111484  0.449586 -0.193848  0.974993  0.000001  0.000008
                                 0.000050  0.000191  0.000596  0.000913  0.000440  0.001596  0.002169 -0.002995  0.018320 -0.057051
                                 0.155258 -0.144024  0.020132 -0.012836  0.016148  0.029732 -0.007073 -0.057903 -0.000458 -0.000302
                                -0.001202 -0.002018  0.006604 -0.005740  0.023369 -0.004336 -0.000109  0.000027  0.001305  0.000095
                                 0.004769  0.000176  0.001051 -0.008045 -0.100606  0.000384  0.008553

   6.3   0     0.0419   -4.8351  0.000000  0.000000  0.000000  0.000002  0.000005  0.000021  0.000055  0.000192  0.000340  0.000963
                                -0.000331  0.024117 -0.040192  0.074850 -0.201876  0.383836 -0.443559  0.412109 -0.947553  1.267799
                                -0.732652  0.293574 -0.373390  0.372539 -0.115731  0.161069 -0.342663  0.323224 -0.000008 -0.000061
                                -0.000407 -0.001422 -0.005030 -0.000792 -0.011540 -0.008129 -0.025190  0.078410 -0.508033  1.503251
                                -4.419177  4.158115 -0.804292  0.477966 -0.399020  0.469002 -0.456997  1.129898  0.000824  0.000068
                                 0.001353  0.000377  0.009618  0.000960  0.004111  0.000864  0.000131 -0.000237  0.000655 -0.000785
                                 0.005990 -0.000669  0.003793 -0.001754 -0.071039 -0.000927  0.005866

                                   1 3d2-    1 3d2-    1 3d2-    1 3d2-    1 3d2-    1 3d2-    1 3d2-    1 3d2-    1 3d2-    1 3d2- 
                                   1 3d2-    1 3d2-    1 3d2-    1 3d2-    1 3d2-    1 3d2-    1 3d2-    1 3d2-    1 3d2-    1 3d2- 
                                   1 4f2-    1 4f2-    1 4f2-    1 4f2-    1 5g2-    1 5g4-    1 5g2-    1 5g4-    1 5g2-    1 5g4- 
                                   2 3d2-    2 3d2- 

   1.4   2    -7.3641  -83.0924  0.000165  0.001476  0.008682  0.034262  0.100289  0.220720 -0.003541  0.327220  0.332227  0.204076
                                -0.036727  0.112126 -0.109104  0.078936 -0.004947  0.000550 -0.000258  0.000036 -0.000011  0.000002
                                 0.000406 -0.000134  0.000047 -0.000019  0.000071  0.000000 -0.000076  0.000000  0.000012 -0.000000
                                 0.000011  0.000007

   2.4   0     0.0436   -4.2332 -0.000006 -0.000039 -0.000284 -0.000902 -0.003635  0.004095 -0.013639 -0.002303 -0.022897  0.092249
                                -0.600920  1.758797 -5.213272  4.904814 -0.981038  0.510055 -0.474181  0.449920 -0.530190  1.206348
                                 0.000255  0.000079  0.000816 -0.006927 -0.000021  0.000000  0.000004  0.000000  0.001406  0.000000
                                 0.000250 -0.000837

   3.4   0     0.0888  -13.1980  0.000022  0.000217  0.001193  0.005086  0.013490  0.049275 -0.022609  0.057882  0.019974  0.150794
                                -1.020176  2.845003 -8.921142  8.445323 -2.002856  0.502001 -0.859560  0.305159 -1.066877  0.702390
                                -0.001032 -0.001320  0.000354  0.014775  0.000110 -0.000000 -0.000519 -0.000000 -0.004119 -0.000000
                                -0.001118  0.002554

 HOMO     12.1    -0.291854 =      -7.9418eV
 LUMO     13.1     0.011304 =       0.3076eV
 LUMO-HOMO         0.303158 =       8.2494eV


 **********************************************************************************************************************************
 DATASETS  * FILE   NREC   LENGTH (MB)   RECORD NAMES
              1      22       21.76       500      610      700      900      950      970     1000      129      960     1700   
                                          VAR    BASINP    GEOM    SYMINP    ZMAT    AOBASIS   BASIS     P2S    ABASIS    OPER   
                                         1101     1401     1411     1412     1650     1100     1400     1410     1200     1210   
                                          SR      EKINR    POTR     PVPR    MOLCAS      S      EKIN      POT      H0       H01  
                                         1080     1600   
                                         AOSYM     SMH  

              2       4        3.56       700     1000      520     2100   
                                         GEOM     BASIS   MCVARS     RHF  

 PROGRAMS   *        TOTAL       RHF       INT
 CPU TIMES  *        61.46      2.67     58.46
 REAL TIME  *        64.17 SEC
 DISK USED  *         3.05 GB      
 SF USED    *         0.11 MB      
 GA USED    *         0.00 MB       (max)       0.00 MB       (current)
 **********************************************************************************************************************************
 SETTING SCF            =     -3596.61020254  AU                              
 SETTING _CC_NORM_MAX   =         2.00000000                                  


 PROGRAM * CCSD (Restricted open-shell coupled cluster)     Authors: C. Hampel, H.-J. Werner, 1991, M. Deegan, P.J. Knowles, 1992


 Convergence thresholds:  THRVAR = 1.00D-08  THRDEN = 1.00D-06

 CCSD(T)     terms to be evaluated (factor= 1.000)


 Number of core orbitals:          14 (   7   3   3   1 )
 Number of closed-shell orbitals:   6 (   4   1   1   0 )
 Number of active  orbitals:        1 (   1   0   0   0 )
 Number of external orbitals:     274 ( 117  63  63  31 )

 Memory could be reduced to 77.55 Mwords without degradation in triples

 Number of N-1 electron functions:              13
 Number of N-2 electron functions:              78
 Number of singly external CSFs:              1314
 Number of doubly external CSFs:           1235150
 Total number of CSFs:                     1236464

 Molecular orbitals read from record     2100.2  Type=RHF/CANONICAL (state 1.1)

 Integral transformation finished. Total CPU:   1.90 sec, npass=  1  Memory used:   7.65 MW

 Starting RMP2 calculation

 Wavefunction is spin-projected

 ITER.      SQ.NORM     CORR.ENERGY   TOTAL ENERGY   ENERGY CHANGE        DEN1      VAR(S)    VAR(P)  DIIS     TIME
   1      1.12044073    -0.38445177 -3596.99465431    -0.38445177    -0.00171311  0.12D-04  0.14D-02  1  1     2.13
   2      1.12416495    -0.38632285 -3596.99652539    -0.00187108    -0.00002662  0.20D-06  0.34D-04  2  2     2.23
   3      1.12479698    -0.38649912 -3596.99670166    -0.00017627    -0.00000018  0.48D-09  0.22D-06  3  3     2.34
   4      1.12482613    -0.38650344 -3596.99670598    -0.00000432    -0.00000000  0.15D-10  0.18D-08  4  4     2.47
   5      1.12482670    -0.38650347 -3596.99670601    -0.00000003    -0.00000000  0.80D-12  0.15D-10  5  5     2.61

 Norm of t1 vector:      0.02889989      S-energy:    -0.00196291      T1 diagnostic:  0.00004212
 Norm of t2 vector:      0.35212426      P-energy:    -0.38454056
                                         Alpha-Beta:  -0.28716209
                                         Alpha-Alpha: -0.05532232
                                         Beta-Beta:   -0.04205614

 Spin contamination <S**2-Sz**2-Sz>     0.00000000
  Reference energy                  -3596.610202543115
  RHF-RMP2 correlation energy          -0.386503467806
 !RHF-RMP2 energy                   -3596.996706010920
 (NB above energy spin projected)

 Starting RCCSD calculation

 ITER.      SQ.NORM     CORR.ENERGY   TOTAL ENERGY   ENERGY CHANGE        DEN1      VAR(S)    VAR(P)  DIIS     TIME
   1      1.12558966    -0.38993576 -3597.00013831    -0.38993576    -0.00860869  0.22D-02  0.30D-02  1  1     3.76
   2      1.14251095    -0.39881790 -3597.00902045    -0.00888214    -0.00089526  0.33D-03  0.57D-03  2  2     4.81
   3      1.15231686    -0.40089924 -3597.01110178    -0.00208133    -0.00017779  0.12D-03  0.10D-03  3  3     5.88
   4      1.15940791    -0.40198682 -3597.01218937    -0.00108759    -0.00002368  0.16D-04  0.13D-04  4  4     6.94
   5      1.16207320    -0.40224906 -3597.01245160    -0.00026223    -0.00000385  0.20D-05  0.27D-05  5  5     8.02
   6      1.16263897    -0.40228504 -3597.01248758    -0.00003598    -0.00000105  0.53D-06  0.83D-06  6  6     9.11
   7      1.16281599    -0.40229385 -3597.01249640    -0.00000881    -0.00000029  0.16D-06  0.22D-06  7  7    10.20
   8      1.16285231    -0.40229477 -3597.01249731    -0.00000092    -0.00000009  0.65D-07  0.64D-07  8  8    11.31
   9      1.16286390    -0.40229468 -3597.01249722     0.00000009    -0.00000004  0.27D-07  0.23D-07  9  9    12.43
  10      1.16286539    -0.40229459 -3597.01249713     0.00000009    -0.00000003  0.18D-07  0.16D-07 10 10    13.57
  11      1.16286676    -0.40229451 -3597.01249705     0.00000008    -0.00000001  0.10D-07  0.92D-08 11 11    14.72
  12      1.16286789    -0.40229436 -3597.01249691     0.00000015    -0.00000001  0.34D-08  0.35D-08 12 12    15.87

 Norm of t1 vector:      0.11235796      S-energy:    -0.00207837      T1 diagnostic:  0.02089343
                                                                       D1 diagnostic:  0.07012513
 Norm of t2 vector:      0.38761267      P-energy:    -0.40021599
                                         Alpha-Beta:  -0.30876550
                                         Alpha-Alpha: -0.05202768
                                         Beta-Beta:   -0.03942282

 Doubles amplitudes (print threshold =  0.500E-01):

         I         J         SYM. A    SYM. B    A         B      T(IJ, AB) [Alpha-Beta]

         4         4         4         4         2         2     -0.05184235

 Spin contamination <S**2-Sz**2-Sz>     0.00000000

 Memory could be reduced to 79.97 Mwords without degradation in triples
 

  Correlated core orbitals:             8.1       9.1       4.2       4.3
  Orbital energies:                    -2.5250   -1.5668   -1.5192   -1.5192
 
  RCCSD core-core energy               -0.180826062736
  RCCSD core-valence energy            -0.133206032807
  RCCSD valence correlation energy     -0.088262267556
 

 RESULTS
 =======

  Reference energy                  -3596.610202543115
  RCCSD singles energy                 -0.002078371735
  RCCSD pair energy                    -0.400215991364
  RCCSD correlation energy             -0.402294363099
  Triples (T) contribution             -0.017075647627
  Total correlation energy             -0.419370010726
 
  RHF-RCCSD energy                  -3597.012496906214
  RHF-RCCSD[T] energy               -3597.029963823898
  RHF-RCCSD-T energy                -3597.029526775909
 !RHF-RCCSD(T) energy               -3597.029572553840

 Program statistics:

 Available memory in ccsd:               999999438
 Min. memory needed in ccsd:               4025365
 Max. memory used in ccsd:                 5454294
 Max. memory used in cckext:               5318751 (12 integral passes)
 Max. memory used in cckint:               7654914 ( 1 integral passes)



 **********************************************************************************************************************************
 DATASETS  * FILE   NREC   LENGTH (MB)   RECORD NAMES
              1      22       21.76       500      610      700      900      950      970     1000      129      960     1700   
                                          VAR    BASINP    GEOM    SYMINP    ZMAT    AOBASIS   BASIS     P2S    ABASIS    OPER   
                                         1101     1401     1411     1412     1650     1100     1400     1410     1200     1210   
                                          SR      EKINR    POTR     PVPR    MOLCAS      S      EKIN      POT      H0       H01  
                                         1080     1600   
                                         AOSYM     SMH  

              2       4        3.56       700     1000      520     2100   
                                         GEOM     BASIS   MCVARS     RHF  

 PROGRAMS   *        TOTAL  RCCSD(T)       RHF       INT
 CPU TIMES  *        88.74     27.28      2.67     58.46
 REAL TIME  *        98.93 SEC
 DISK USED  *         6.40 GB      
 SF USED    *         1.07 GB      
 GA USED    *         0.00 MB       (max)       0.00 MB       (current)
 **********************************************************************************************************************************
 SETTING CCSD           =     -3597.02957255  AU                              
 SETTING BIND           =         0.07743130  AU                              
 Output type csv         
                                                                                                                                                                                                                                                                

  1.20,SCF,CCSD,BIND
   1.2,   -3596.610203,   -3597.029573,   0.07743130
                                                  

 RCCSD(T)/USERDEF energy=  -3597.029572553840

        RCCSD(T)        RHF-SCF 
  -3597.02957255  -3596.61020254
 **********************************************************************************************************************************
 Molpro calculation terminated
 Variable memory released
