
 Primary working directories    : /global/cscratch1/sd/aannabe
 Secondary working directories  : /global/cscratch1/sd/aannabe
 Wavefunction directory         : /global/homes/a/aannabe/wfu/
 Main file repository           : /global/cscratch1/sd/aannabe/

 SHA1      : 19cd028119e0e09f93f0674bd8af7968d9b3eff6
 NAME      : 2015.1.36
 ARCHNAME  : linux/x86_64
 FC        : /opt/cray/pe/craype/2.5.14/bin/ftn
 BLASLIB   : -L/opt/intel/compilers_and_libraries_2018.1.163/linux/mkl/lib/intel64 -Wl,-_start-group -lmkl_intel_ilp64 -lmkl_intel_thread -lmkl_core -Wl,-_end-group -liomp5
 id        : lbl

 Nodes     nprocs
 nid00801    11
 Number of processes for MPI-2 version of Molpro:   nprocs(total)=   12   nprocs(compute)=   11   nprocs(helper)=    1

 Using customized tuning parameters: mindgm=7; mindgv=16; mindgc=1; mindgr=1; noblas=0; minvec=7
 default implementation of scratch files=sf  

 ***,molecular
 memory,1,g
 
 gthresh,twoint=1.e-15
 gthresh,oneint=1.e-15
 
                                                                                 !!!set,dkroll=1,dkho=99,dkhp=2
 
 angstrom
 geometry={
 1
 O   0.0 0.0 0.0
 }
 
 basis={
 Including file /global/homes/a/aannabe/docs/Tb_project/ccECP/basis_sets/O_aug-cc-pwCVTZ.basis
 Including file /global/u1/a/aannabe/docs/Tb_project/ccECP/molecules/TbO/O_ccECP/O.ccECP.molpro
 }
 
 {rhf,maxdis=30,iptyp='DIIS',nitord=30,maxit=100; shift,-1.0,-0.5
  maxit,100
  shift,-0.5,-0.2
  wf,6,7,2;
  occ,1,1,1,0,1,0,0,0;
  open,1.3,1.5;
  print,orbitals=1
 }
 scf(i)=energy
 pop
 _CC_NORM_MAX=2.0
 {uccsd(t),shifts=0.2,shiftp=0.2,thrdis=1.0;diis,1,1,15,1;maxit,100;core;
 THRESH,ENERGY=5.e-6,COEFF=1e-3
 }
 ccsd(i)=energy
 
 table,z,scf,ccsd
 save, 3.csv, new
 

 Variables initialized (889), CPU time= 0.01 sec
 Commands  initialized (702), CPU time= 0.00 sec, 572 directives.
 Default parameters read. Elapsed time= 0.14 sec

 Checking input...
 Passed
1


                                         ***  PROGRAM SYSTEM MOLPRO  ***
                                       Copyright, TTI GmbH Stuttgart, 2015
                                    Version 2015.1 linked Dec 29 2018 15:55:43


 **********************************************************************************************************************************
 LABEL *   molecular                                                                     
  64 bit mpp version                                                                     DATE: 16-Feb-22          TIME: 16:00:41  
 **********************************************************************************************************************************

 SHA1:             19cd028119e0e09f93f0674bd8af7968d9b3eff6
 **********************************************************************************************************************************

 THRESHOLDS:

 ZERO    =  1.00D-12  ONEINT  =  1.00D-12  TWOINT  =  1.00D-15  PREFAC  =  1.00D-14  LOCALI  =  1.00D-09  EORDER  =  1.00D-04
 ENERGY  =  0.00D+00  ETEST   =  0.00D+00  EDENS   =  0.00D+00  THRDEDEF=  1.00D-06  GRADIENT=  1.00D-02  STEP    =  1.00D-03
 ORBITAL =  1.00D-05  CIVEC   =  1.00D-05  COEFF   =  1.00D-04  PRINTCI =  5.00D-02  PUNCHCI =  9.90D+01  OPTGRAD =  3.00D-04
 OPTENERG=  1.00D-06  OPTSTEP =  3.00D-04  THRGRAD =  1.00D-10  COMPRESS=  1.00D-11  VARMIN  =  1.00D-07  VARMAX  =  1.00D-03
 THRDOUB =  0.00D+00  THRDIV  =  1.00D-05  THRRED  =  1.00D-07  THRPSP  =  1.00D+00  THRDC   =  1.00D-10  THRCS   =  1.00D-10
 THRNRM  =  1.00D-08  THREQ   =  0.00D+00  THRDE   =  1.00D+00  THRREF  =  1.00D-05  SPARFAC =  1.00D+00  THRDLP  =  1.00D-07
 THRDIA  =  1.00D-10  THRDLS  =  1.00D-07  THRGPS  =  0.00D+00  THRKEX  =  0.00D+00  THRDIS  =  2.00D-01  THRVAR  =  1.00D-10
 THRLOC  =  1.00D-06  THRGAP  =  1.00D-06  THRLOCT = -1.00D+00  THRGAPT = -1.00D+00  THRORB  =  1.00D-06  THRMLTP =  0.00D+00
 THRCPQCI=  1.00D-10  KEXTA   =  0.00D+00  THRCOARS=  0.00D+00  SYMTOL  =  1.00D-06  GRADTOL =  1.00D-06  THROVL  =  1.00D-08
 THRORTH =  1.00D-08  GRID    =  1.00D-06  GRIDMAX =  1.00D-03  DTMAX   =  0.00D+00  THROCCDE=  1.00D-01  THROCCDE=  1.00D-01



 THRESHOLDS:

 ZERO    =  1.00D-12  ONEINT  =  1.00D-15  TWOINT  =  1.00D-15  PREFAC  =  1.00D-14  LOCALI  =  1.00D-09  EORDER  =  1.00D-04
 ENERGY  =  0.00D+00  ETEST   =  0.00D+00  EDENS   =  0.00D+00  THRDEDEF=  1.00D-06  GRADIENT=  1.00D-02  STEP    =  1.00D-03
 ORBITAL =  1.00D-05  CIVEC   =  1.00D-05  COEFF   =  1.00D-04  PRINTCI =  5.00D-02  PUNCHCI =  9.90D+01  OPTGRAD =  3.00D-04
 OPTENERG=  1.00D-06  OPTSTEP =  3.00D-04  THRGRAD =  1.00D-10  COMPRESS=  1.00D-11  VARMIN  =  1.00D-07  VARMAX  =  1.00D-03
 THRDOUB =  0.00D+00  THRDIV  =  1.00D-05  THRRED  =  1.00D-07  THRPSP  =  1.00D+00  THRDC   =  1.00D-10  THRCS   =  1.00D-10
 THRNRM  =  1.00D-08  THREQ   =  0.00D+00  THRDE   =  1.00D+00  THRREF  =  1.00D-05  SPARFAC =  1.00D+00  THRDLP  =  1.00D-07
 THRDIA  =  1.00D-10  THRDLS  =  1.00D-07  THRGPS  =  0.00D+00  THRKEX  =  0.00D+00  THRDIS  =  2.00D-01  THRVAR  =  1.00D-10
 THRLOC  =  1.00D-06  THRGAP  =  1.00D-06  THRLOCT = -1.00D+00  THRGAPT = -1.00D+00  THRORB  =  1.00D-06  THRMLTP =  0.00D+00
 THRCPQCI=  1.00D-10  KEXTA   =  0.00D+00  THRCOARS=  0.00D+00  SYMTOL  =  1.00D-06  GRADTOL =  1.00D-06  THROVL  =  1.00D-08
 THRORTH =  1.00D-08  GRID    =  1.00D-06  GRIDMAX =  1.00D-03  DTMAX   =  0.00D+00  THROCCDE=  1.00D-01  THROCCDE=  1.00D-01


 ZUNIT=ANG
 

Geometry recognized as XYZ


 Variable memory set to 1000000000 words,  buffer space   230000 words

 SETTING BASIS          =    USERDEF


 Recomputing integrals since basis changed


 Using spherical harmonics



 PROGRAM * SEWARD (Integral evaluation for generally contracted gaussian basis sets)     Author: Roland Lindh, 1990

 Geometry written to block  1 of record 700

 Orientation using atomic masses  
 Molecule type: Atom
 Symmetry elements: X,Y,Z
 Rotational constants:       0.0000000      0.0000000      0.0000000 GHz  (calculated with average atomic masses)

 Point group  D2h 



 ATOMIC COORDINATES

 NR  ATOM    CHARGE       X              Y              Z

   1  O       6.00    0.000000000    0.000000000    0.000000000

 NUCLEAR CHARGE:                    6
 NUMBER OF PRIMITIVE AOS:          81
 NUMBER OF SYMMETRY AOS:           71
 NUMBER OF CONTRACTIONS:           71   (  21Ag  +  12B3u +  12B2u +   4B1g +  12B1u +   4B2g +   4B3g +   2Au  )
 NUMBER OF CORE ORBITALS:           0   (   0Ag  +   0B3u +   0B2u +   0B1g +   0B1u +   0B2g +   0B3g +   0Au  )
 NUMBER OF VALENCE ORBITALS:        4   (   1Ag  +   1B3u +   1B2u +   0B1g +   1B1u +   0B2g +   0B3g +   0Au  )


 NUCLEAR REPULSION ENERGY    0.00000000

 EXTRA SYMMETRY OF AOS IN SYMMETRY 1:   1 1 1 1 1 1 1 1 1 1   1 1 1 2 3 2 3 2 3 2   3
 EXTRA SYMMETRY OF AOS IN SYMMETRY 2:   1 1 1 1 1 1 1 1 2 3   2 3
 EXTRA SYMMETRY OF AOS IN SYMMETRY 3:   1 1 1 1 1 1 1 1 2 3   2 3
 EXTRA SYMMETRY OF AOS IN SYMMETRY 5:   1 1 1 1 1 1 1 1 2 3   2 3

 Eigenvalues of metric

         1 0.744E-04 0.110E-02 0.105E-01 0.299E-01 0.669E-01 0.138E+00 0.243E+00 0.243E+00
         2 0.377E-02 0.714E-01 0.122E+00 0.335E+00 0.447E+00 0.447E+00 0.789E+00 0.132E+01
         3 0.377E-02 0.714E-01 0.122E+00 0.335E+00 0.447E+00 0.447E+00 0.789E+00 0.132E+01
         4 0.243E+00 0.623E+00 0.120E+01 0.193E+01
         5 0.377E-02 0.714E-01 0.122E+00 0.335E+00 0.447E+00 0.447E+00 0.789E+00 0.132E+01
         6 0.243E+00 0.623E+00 0.120E+01 0.193E+01
         7 0.243E+00 0.623E+00 0.120E+01 0.193E+01
         8 0.447E+00 0.155E+01


 Contracted 2-electron integrals neglected if value below      1.0D-15
 AO integral compression algorithm  1   Integral accuracy      1.0D-15

     7.340 MB (compressed) written to integral file (100.0%)

     Node minimum: 0.262 MB, node maximum: 1.311 MB


 NUMBER OF SORTED TWO-ELECTRON INTEGRALS:      41286.     BUFFER LENGTH:  32768
 NUMBER OF SEGMENTS:   1  SEGMENT LENGTH:      41286      RECORD LENGTH: 524288

 Memory used in sort:       0.60 MW

 SORT1 READ      886537. AND WROTE       32671. INTEGRALS IN      1 RECORDS. CPU TIME:     0.02 SEC, REAL TIME:     0.04 SEC
 SORT2 READ      364428. AND WROTE      465933. INTEGRALS IN     22 RECORDS. CPU TIME:     0.01 SEC, REAL TIME:     0.02 SEC

 Node minimum:       39357.  Node maximum:       49441. integrals

 OPERATOR DM      FOR CENTER  0  COORDINATES:    0.000000    0.000000    0.000000


 **********************************************************************************************************************************
 DATASETS  * FILE   NREC   LENGTH (MB)   RECORD NAMES
              1      19       19.91       500      610      700      900      950      970     1000      129      960     1100   
                                          VAR    BASINP    GEOM    SYMINP    ZMAT    AOBASIS   BASIS     P2S    ABASIS      S 
                                         1400     1410     1420     1200     1210     1080     1600     1650     1700   
                                           T        V       ECP      H0       H01     AOSYM     SMH    MOLCAS    OPER   

 PROGRAMS   *        TOTAL       INT
 CPU TIMES  *         0.66      0.42
 REAL TIME  *         3.31 SEC
 DISK USED  *        50.07 MB      
 GA USED    *         0.00 MB       (max)       0.00 MB       (current)
 **********************************************************************************************************************************


 PROGRAM * RHF-SCF (OPEN SHELL)       Authors: W. Meyer, H.-J. Werner


 NUMBER OF ELECTRONS:       4+    2-    SPACE SYMMETRY=7    SPIN SYMMETRY: Triplet 
 CONVERGENCE THRESHOLDS:    1.00E-05 (Density)    1.00E-07 (Energy)
 MAX. NUMBER OF ITERATIONS:      100
 INTERPOLATION TYPE:            DIIS
 INTERPOLATION STEPS:              2 (START)      1 (STEP)
 LEVEL SHIFTS:                 -0.50 (CLOSED) -0.20 (OPEN) 


 Singly occupied orbitals:      1.3       1.5
 Orbital guess generated from atomic densities. Full valence occupancy:    1   1   1   0   1   0   0   0


 Molecular orbital dump at record        2100.2

 ITERATION    DDIFF          GRAD             ENERGY        2-EL.EN.            DIPOLE MOMENTS         DIIS   ORB.
    1      0.000D+00      0.000D+00       -15.66027615     20.330189    0.00000    0.00000    0.00000    0    start
    2      0.000D+00      0.194D-01       -15.68553485     21.228310    0.00000    0.00000    0.00000    1    diag,B
    3      0.536D-02      0.486D-02       -15.68660349     21.222923    0.00000    0.00000    0.00000    2    diag,B
    4      0.116D-02      0.163D-02       -15.68689395     21.243798    0.00000    0.00000    0.00000    3    diag,B
    5      0.735D-03      0.399D-03       -15.68691605     21.246414    0.00000    0.00000    0.00000    4    diag,B
    6      0.314D-03      0.689D-04       -15.68691657     21.245713    0.00000    0.00000    0.00000    5    diag,B
    7      0.619D-04      0.139D-04       -15.68691659     21.245618    0.00000    0.00000    0.00000    6    diag,B
    8      0.130D-04      0.337D-05       -15.68691660     21.245568    0.00000    0.00000    0.00000    7    diag,B
    9      0.233D-05      0.109D-05       -15.68691660     21.245561    0.00000    0.00000    0.00000    0    orth

 Final alpha occupancy:   1   1   1   0   1   0   0   0
 Final beta  occupancy:   1   1   0   0   0   0   0   0

 !RHF STATE 1.7 Energy                -15.686916597026
 Nuclear energy                         0.00000000
 One-electron energy                  -26.30969722
 Two-electron energy                   10.62278063
 Virial quotient                       -1.32532609
 !RHF STATE 1.7 Dipole moment           0.00000000     0.00000000     0.00000000
 Dipole moment /Debye                   0.00000000     0.00000000     0.00000000

 ELECTRON ORBITALS
 =================


   Orb  Occ    Energy  Couls-En    Coefficients

                                   1 1s      1 1s      1 1s      1 1s      1 1s      1 1s      1 1s      1 1s      1 1s      1 1s   
                                   1 1s      1 1s      1 1s      1 3d0     1 3d2+    1 3d0     1 3d2+    1 3d0     1 3d2+    1 3d0  
                                   1 3d2+ 

   1.1   2    -1.2609   -6.0763 -0.000000  0.000003 -0.000020  0.000128 -0.001214  0.052035 -0.119553  0.179267  0.605839  0.368059
                                 0.005161 -0.037797 -0.082729 -0.000309  0.000535 -0.000728  0.001260 -0.001769  0.003063 -0.000174
                                 0.000302

   2.1   0     0.1496   -1.3900  0.000001 -0.000017  0.000126 -0.000732  0.004625 -0.081540 -0.223403 -0.313171  0.196692 -1.071416
                                 1.579900  0.305661  0.163576 -0.000811  0.001405 -0.002929  0.005073  0.008606 -0.014906 -0.000053
                                 0.000092

                                   1 2px     1 2px     1 2px     1 2px     1 2px     1 2px     1 2px     1 2px     1 4f1+    1 4f3+ 
                                   1 4f1+    1 4f3+ 

   1.2   2    -0.5675   -4.6933  0.009376  0.091348  0.304237  0.480021  0.345396  0.030206  0.007445 -0.001853  0.001922 -0.002482
                                 0.001946 -0.002513

   2.2   0     0.1626   -1.0776 -0.001018 -0.004054 -0.096179 -0.050766 -0.396382  1.181463 -0.015465  0.000060 -0.001156  0.001493
                                 0.000511 -0.000660

                                   1 2py     1 2py     1 2py     1 2py     1 2py     1 2py     1 2py     1 2py     1 4f1-    1 4f3- 
                                   1 4f1-    1 4f3- 

   1.3   +    -0.7036   -4.9173  0.009631  0.093398  0.319589  0.506572  0.303533  0.008155  0.008433 -0.001897  0.001446 -0.005600
                                 0.001165 -0.004513

   2.3   0     0.1531   -1.0740 -0.000843 -0.002706 -0.087531 -0.044066 -0.358485  1.171756 -0.014445  0.000034 -0.000360  0.001394
                                 0.000249 -0.000966

                                   1 3d2-    1 3d2-    1 3d2-    1 3d2- 

   1.4   0     0.6383   -0.9147  0.042298 -0.111207  1.058743 -0.001316

                                   1 2pz     1 2pz     1 2pz     1 2pz     1 2pz     1 2pz     1 2pz     1 2pz     1 4f0     1 4f2+ 
                                   1 4f0     1 4f2+ 

   1.5   +    -0.7036   -4.9173  0.009631  0.093398  0.319589  0.506572  0.303533  0.008155  0.008433 -0.001897  0.003542 -0.004572
                                 0.002854 -0.003685

   2.5   0     0.1531   -1.0740 -0.000843 -0.002706 -0.087531 -0.044066 -0.358485  1.171756 -0.014445  0.000034 -0.000882  0.001138
                                 0.000611 -0.000789

                                   1 3d1+    1 3d1+    1 3d1+    1 3d1+ 

   1.6   0     0.6383   -0.9147  0.042298 -0.111207  1.058743 -0.001316

                                   1 3d1-    1 3d1-    1 3d1-    1 3d1- 

   1.7   0     0.6223   -0.9381  0.042328 -0.101914  1.053605 -0.001190

                                   1 4f2-    1 4f2- 

   1.8   0     2.0177    1.2239 -0.127628  1.064865

 HOMO      1.2    -0.567531 =     -15.4433eV
 LUMO      2.1     0.149564 =       4.0698eV
 LUMO-HOMO         0.717094 =      19.5131eV


 **********************************************************************************************************************************
 DATASETS  * FILE   NREC   LENGTH (MB)   RECORD NAMES
              1      19       19.92       500      610      700      900      950      970     1000      129      960     1100   
                                          VAR    BASINP    GEOM    SYMINP    ZMAT    AOBASIS   BASIS     P2S    ABASIS      S 
                                         1400     1410     1420     1200     1210     1080     1600     1650     1700   
                                           T        V       ECP      H0       H01     AOSYM     SMH    MOLCAS    OPER   

              2       4        2.78       700     1000      520     2100   
                                         GEOM     BASIS   MCVARS     RHF  

 PROGRAMS   *        TOTAL       RHF       INT
 CPU TIMES  *         0.73      0.07      0.42
 REAL TIME  *         3.52 SEC
 DISK USED  *       303.35 MB      
 SF USED    *         0.00 MB      
 GA USED    *         0.00 MB       (max)       0.00 MB       (current)
 **********************************************************************************************************************************
 SETTING SCF(I)         =       -15.68691660  AU                              


 PROGRAM * POP (Mulliken population analysis)

 
 Density matrix read from record         2100.2  Type=RHF/CHARGE (state 1.7)
 
 Population analysis by basis function type

 Unique atom        s        p        d        f        g    Total    Charge
   1  O       1.99995  3.99977  0.00005  0.00023  0.00000  6.00000  + 0.00000


 **********************************************************************************************************************************
 DATASETS  * FILE   NREC   LENGTH (MB)   RECORD NAMES
              1      19       19.92       500      610      700      900      950      970     1000      129      960     1100   
                                          VAR    BASINP    GEOM    SYMINP    ZMAT    AOBASIS   BASIS     P2S    ABASIS      S 
                                         1400     1410     1420     1200     1210     1080     1600     1650     1700   
                                           T        V       ECP      H0       H01     AOSYM     SMH    MOLCAS    OPER   

              2       4        2.78       700     1000      520     2100   
                                         GEOM     BASIS   MCVARS     RHF  

 PROGRAMS   *        TOTAL       POP       RHF       INT
 CPU TIMES  *         0.74      0.01      0.07      0.42
 REAL TIME  *         3.54 SEC
 DISK USED  *       303.35 MB      
 SF USED    *         0.00 MB      
 GA USED    *         0.00 MB       (max)       0.00 MB       (current)
 **********************************************************************************************************************************
 SETTING _CC_NORM_MAX   =         2.00000000                                  


 PROGRAM * CCSD (Unrestricted open-shell coupled cluster)     Authors: C. Hampel, H.-J. Werner, 1991, M. Deegan, P.J. Knowles, 1992


 Input parameters for THRESH:

 THRDIS =    1.000000
 ONEINT =    1.00D-15
 TWOINT =    1.00D-15
 ENERGY =    5.00D-06
 COEFF  =    0.001000

 Convergence thresholds:  THRVAR = 1.00D-06  THRDEN = 5.00D-06

 CCSD(T)     terms to be evaluated (factor= 1.000)


 Number of closed-shell orbitals:   2 (   1   1   0   0   0   0   0   0 )
 Number of active  orbitals:        2 (   0   0   1   0   1   0   0   0 )
 Number of external orbitals:      67 (  20  11  11   4  11   4   4   2 )

 Memory could be reduced to 0.80 Mwords without degradation in triples

 Number of N-1 electron functions:               6
 Number of N-2 electron functions:              15
 Number of singly external CSFs:                86
 Number of doubly external CSFs:              7480
 Total number of CSFs:                        7566

 Molecular orbitals read from record     2100.2  Type=RHF/CANONICAL (state 1.7)

 Integral transformation finished. Total CPU:   0.12 sec, npass=  1  Memory used:   0.13 MW

 Starting RMP2 calculation

 ITER.      SQ.NORM     CORR.ENERGY   TOTAL ENERGY   ENERGY CHANGE        DEN1      VAR(S)    VAR(P)  DIIS     TIME
   1      1.03184854    -0.15891852   -15.84583512    -0.15891852    -0.00028865  0.13D-04  0.72D-04  1  1     0.19
   2      1.03205911    -0.15922509   -15.84614169    -0.00030657    -0.00000062  0.14D-06  0.15D-06  2  2     0.19
   3      1.03206682    -0.15923117   -15.84614777    -0.00000608    -0.00000000  0.25D-08  0.48D-09  3  3     0.19
   4      1.03206716    -0.15923126   -15.84614785    -0.00000009    -0.00000000  0.38D-10  0.30D-11  4  4     0.19

 Norm of t1 vector:      0.04352157      S-energy:    -0.00484973      T1 diagnostic:  0.00069516
 Norm of t2 vector:      0.17370388      P-energy:    -0.15438153
                                         Alpha-Beta:  -0.11855869
                                         Alpha-Alpha: -0.03145236
                                         Beta-Beta:   -0.00437049

 Spin contamination <S**2-Sz**2-Sz>     0.01105747
  Reference energy                    -15.686916597026
  RHF-RMP2 correlation energy          -0.159231257312
 !RHF-RMP2 energy                     -15.846147854338

 Starting UCCSD calculation

 ITER.      SQ.NORM     CORR.ENERGY   TOTAL ENERGY   ENERGY CHANGE        DEN1      VAR(S)    VAR(P)  DIIS     TIME
   1      1.03827643    -0.17085366   -15.85777025    -0.17085366    -0.00361752  0.21D-03  0.74D-03  1  1     0.19
   2      1.04163576    -0.17482166   -15.86173825    -0.00396800    -0.00018112  0.37D-04  0.44D-04  2  2     0.19
   3      1.04278372    -0.17545597   -15.86237257    -0.00063431    -0.00002026  0.43D-05  0.65D-05  3  3     0.20
   4      1.04318990    -0.17558498   -15.86250158    -0.00012901    -0.00000336  0.38D-06  0.14D-05  4  4     0.20
   5      1.04337074    -0.17563066   -15.86254725    -0.00004567    -0.00000033  0.40D-07  0.13D-06  5  5     0.21
   6      1.04338348    -0.17562937   -15.86254597     0.00000129    -0.00000005  0.15D-07  0.14D-07  6  6     0.21

 Norm of t1 vector:      0.05907032      S-energy:    -0.00542388      T1 diagnostic:  0.00626386
                                                                       D1 diagnostic:  0.01203645
 Norm of t2 vector:      0.19973527      P-energy:    -0.17020549
                                         Alpha-Beta:  -0.13409336
                                         Alpha-Alpha: -0.03188429
                                         Beta-Beta:   -0.00422784

 Spin contamination <S**2-Sz**2-Sz>     0.00319591

 Memory could be reduced to 0.82 Mwords without degradation in triples
 

 RESULTS
 =======

  Reference energy                    -15.686916597026
  UCCSD singles energy                 -0.005423879123
  UCCSD pair energy                    -0.170205490041
  UCCSD correlation energy             -0.175629369164
  Triples (T) contribution             -0.003752399809
  Total correlation energy             -0.179381768973
 
  RHF-UCCSD energy                    -15.862545966190
  RHF-UCCSD[T] energy                 -15.866323553129
  RHF-UCCSD-T energy                  -15.866267244401
 !RHF-UCCSD(T) energy                 -15.866298365999

 Program statistics:

 Available memory in ccsd:               999999732
 Min. memory needed in ccsd:                 46789
 Max. memory used in ccsd:                   53185
 Max. memory used in cckext:                 75703 ( 6 integral passes)
 Max. memory used in cckint:                130342 ( 1 integral passes)



 **********************************************************************************************************************************
 DATASETS  * FILE   NREC   LENGTH (MB)   RECORD NAMES
              1      19       19.92       500      610      700      900      950      970     1000      129      960     1100   
                                          VAR    BASINP    GEOM    SYMINP    ZMAT    AOBASIS   BASIS     P2S    ABASIS      S 
                                         1400     1410     1420     1200     1210     1080     1600     1650     1700   
                                           T        V       ECP      H0       H01     AOSYM     SMH    MOLCAS    OPER   

              2       4        2.78       700     1000      520     2100   
                                         GEOM     BASIS   MCVARS     RHF  

 PROGRAMS   *        TOTAL  UCCSD(T)       POP       RHF       INT
 CPU TIMES  *         1.02      0.27      0.01      0.07      0.42
 REAL TIME  *         4.04 SEC
 DISK USED  *       310.44 MB      
 SF USED    *         5.53 MB      
 GA USED    *         0.00 MB       (max)       0.00 MB       (current)
 **********************************************************************************************************************************
 SETTING CCSD(I)        =       -15.86629837  AU                              
                                                                                                                                                                                                                                                                

 Z       SCF            CCSD
 Z   -15.68691660   -15.86629837
                                                  

 UCCSD(T)/USERDEF energy=    -15.866298365999

        UCCSD(T)        RHF-SCF 
    -15.86629837    -15.68691660
 **********************************************************************************************************************************
 Molpro calculation terminated
 Variable memory released
