<?xml version="1.0"?>
<molpro xmlns="http://www.molpro.net/schema/molpro-output"
  xmlns:xsd="http://www.w3.org/1999/XMLSchema"
  xmlns:cml="http://www.xml-cml.org/schema"
  xmlns:stm="http://www.xml-cml.org/schema"
  xmlns:xhtml="http://www.w3.org/1999/xhtml">
 <!--

 Nodes     nprocs
 nid00934    11
 Number of processes for MPI-2 version of Molpro:   nprocs(total)=   12   nprocs(compute)=   11   nprocs(helper)=    1

 Using customized tuning parameters: mindgm=7; mindgv=16; mindgc=1; mindgr=1; noblas=0; minvec=7
 default implementation of scratch files=sf

 --><job>
  <!--

 Variables initialized (889), CPU time= 0.03 sec
 Commands  initialized (702), CPU time= 0.01 sec, 572 directives.
 Default parameters read. Elapsed time= 0.12 sec

 Checking input...
 Passed
1


                                         ***  PROGRAM SYSTEM MOLPRO  ***
                                       Copyright, TTI GmbH Stuttgart, 2015
                                    Version 2015.1 linked Dec 29 2018 15:55:43


 **********************************************************************************************************************************
 LABEL *   Calculation for Y atom, singlet and triplet
  64 bit mpp version                                                                     DATE: 03-May-23          TIME: 07:31:56
 **********************************************************************************************************************************

 SHA1:             19cd028119e0e09f93f0674bd8af7968d9b3eff6
 **********************************************************************************************************************************
  -->
  <!--

 THRESHOLDS:

 ZERO    =  1.00D-12  ONEINT  =  1.00D-12  TWOINT  =  1.00D-15  PREFAC  =  1.00D-14  LOCALI  =  1.00D-09  EORDER  =  1.00D-04
 ENERGY  =  0.00D+00  ETEST   =  0.00D+00  EDENS   =  0.00D+00  THRDEDEF=  1.00D-06  GRADIENT=  1.00D-02  STEP    =  1.00D-03
 ORBITAL =  1.00D-05  CIVEC   =  1.00D-05  COEFF   =  1.00D-04  PRINTCI =  5.00D-02  PUNCHCI =  9.90D+01  OPTGRAD =  3.00D-04
 OPTENERG=  1.00D-06  OPTSTEP =  3.00D-04  THRGRAD =  1.00D-10  COMPRESS=  1.00D-11  VARMIN  =  1.00D-07  VARMAX  =  1.00D-03
 THRDOUB =  0.00D+00  THRDIV  =  1.00D-05  THRRED  =  1.00D-07  THRPSP  =  1.00D+00  THRDC   =  1.00D-10  THRCS   =  1.00D-10
 THRNRM  =  1.00D-08  THREQ   =  0.00D+00  THRDE   =  1.00D+00  THRREF  =  1.00D-05  SPARFAC =  1.00D+00  THRDLP  =  1.00D-07
 THRDIA  =  1.00D-10  THRDLS  =  1.00D-07  THRGPS  =  0.00D+00  THRKEX  =  0.00D+00  THRDIS  =  2.00D-01  THRVAR  =  1.00D-10
 THRLOC  =  1.00D-06  THRGAP  =  1.00D-06  THRLOCT = -1.00D+00  THRGAPT = -1.00D+00  THRORB  =  1.00D-06  THRMLTP =  0.00D+00
 THRCPQCI=  1.00D-10  KEXTA   =  0.00D+00  THRCOARS=  0.00D+00  SYMTOL  =  1.00D-06  GRADTOL =  1.00D-06  THROVL  =  1.00D-08
 THRORTH =  1.00D-08  GRID    =  1.00D-06  GRIDMAX =  1.00D-03  DTMAX   =  0.00D+00  THROCCDE=  1.00D-01  THROCCDE=  1.00D-01



 THRESHOLDS:

 ZERO    =  1.00D-12  ONEINT  =  1.00D-12  TWOINT  =  1.00D-15  PREFAC  =  1.00D-14  LOCALI  =  1.00D-09  EORDER  =  1.00D-04
 ENERGY  =  0.00D+00  ETEST   =  0.00D+00  EDENS   =  0.00D+00  THRDEDEF=  1.00D-06  GRADIENT=  1.00D-02  STEP    =  1.00D-03
 ORBITAL =  1.00D-05  CIVEC   =  1.00D-05  COEFF   =  1.00D-04  PRINTCI =  5.00D-02  PUNCHCI =  9.90D+01  OPTGRAD =  3.00D-04
 OPTENERG=  1.00D-06  OPTSTEP =  3.00D-04  THRGRAD =  1.00D-10  COMPRESS=  1.00D-11  VARMIN  =  1.00D-07  VARMAX  =  1.00D-03
 THRDOUB =  0.00D+00  THRDIV  =  1.00D-05  THRRED  =  1.00D-07  THRPSP  =  1.00D+00  THRDC   =  1.00D-10  THRCS   =  1.00D-10
 THRNRM  =  1.00D-08  THREQ   =  0.00D+00  THRDE   =  1.00D+00  THRREF  =  1.00D-05  SPARFAC =  1.00D+00  THRDLP  =  1.00D-07
 THRDIA  =  1.00D-10  THRDLS  =  1.00D-07  THRGPS  =  0.00D+00  THRKEX  =  0.00D+00  THRDIS  =  2.00D-01  THRVAR  =  1.00D-10
 THRLOC  =  1.00D-06  THRGAP  =  1.00D-06  THRLOCT = -1.00D+00  THRGAPT = -1.00D+00  THRORB  =  1.00D-06  THRMLTP =  0.00D+00
 THRCPQCI=  1.00D-10  KEXTA   =  0.00D+00  THRCOARS=  0.00D+00  SYMTOL  =  1.00D-06  GRADTOL =  1.00D-06  THROVL  =  1.00D-15
 THRORTH =  1.00D-08  GRID    =  1.00D-06  GRIDMAX =  1.00D-03  DTMAX   =  0.00D+00  THROCCDE=  1.00D-01  THROCCDE=  1.00D-01



 Variable memory set to 1000000000 words,  buffer space   230000 words

 SETTING BASIS          =    USERDEF
 SETTING LU_CCSD        =       -40.33772772
 SETTING O_CCSD         =       -15.86622096
 SETTING NE             =        17.00000000
 SETTING SYMM           =         1.00000000
 SETTING SS             =         1.00000000
 SETTING A1             =         5.00000000
 SETTING B1             =         2.00000000
 SETTING B2             =         2.00000000
 SETTING A2             =     0.00000000D+00

Geometry recognized as XYZ

  --><jobstep command="RHF-SCF" commandset="SCFPRO">
   <!--


 Recomputing integrals since basis changed


 Using spherical harmonics



 PROGRAM * SEWARD (Integral evaluation for generally contracted gaussian basis sets)     Author: Roland Lindh, 1990

 Geometry written to block  1 of record 700


 Point group  C2v


   --><cml:molecule>
    <cml:symmetry pointGroup="C2v"/>
    <cml:atomArray>
     <cml:atom id="a1" elementType="Lu" x3="0.0" y3="0.0" z3="0.0"/>
     <cml:atom id="a2" elementType="O" x3="0.0" y3="0.0" z3="2.3"/>
    </cml:atomArray>
    <cml:bondArray>
     <cml:bond atomRefs2="a1 a2"/>
    </cml:bondArray>
   </cml:molecule><!--

 ATOMIC COORDINATES

 NR  ATOM    CHARGE       X              Y              Z

   1  LU     11.00    0.000000000    0.000000000    0.000000000
   2  O       6.00    0.000000000    0.000000000    4.346370086

 Bond lengths in Bohr (Angstrom)

 1-2  4.346370086
     ( 2.300000000)

 NUCLEAR CHARGE:                   17
 NUMBER OF PRIMITIVE AOS:         584
 NUMBER OF SYMMETRY AOS:          451
 NUMBER OF CONTRACTIONS:          451   ( 180A1  + 108B1  + 108B2  +  55A2  )
 NUMBER OF CORE ORBITALS:           0   (   0A1  +   0B1  +   0B2  +   0A2  )
 NUMBER OF VALENCE ORBITALS:       14   (   7A1  +   3B1  +   3B2  +   1A2  )


 NUCLEAR REPULSION ENERGY   15.18508518

 EXTRA SYMMETRY OF AOS IN SYMMETRY 1:   1 1 1 1 1 1 1 1 1 1   1 1 1 1 1 1 1 1 1 1   1 1 1 1 1 1 1 1 1 1   1 1 1 1 1 1 1 1 1 1
                                        1 1 1 1 1 1 1 1 1 1   1 1 1 1 1 1 1 1 1 2   1 2 1 2 1 2 1 2 1 2   1 2 1 2 1 2 1 2 1 2
                                        1 2 1 2 1 2 1 2 1 2   1 2 1 2 1 2 1 2 1 2   1 2 1 2 1 2 1 2 1 2   1 2 1 2 1 2 1 2 1 2
                                        1 3 2 1 3 2 1 3 2 1   3 2 1 3 2 1 3 2 2 3   1 2 3 1 2 3 1 1 1 1   1 1 1 1 1 1 1 1 1 1
                                        1 1 1 1 1 1 1 1 1 2   1 2 1 2 1 2 1 2 1 2
 EXTRA SYMMETRY OF AOS IN SYMMETRY 2:   1 1 1 1 1 1 1 1 1 1   1 1 1 1 1 1 1 1 1 1   1 1 1 1 1 1 1 1 1 1   1 1 1 1 1 1 1 1 1 1
                                        1 1 1 1 1 1 2 1 2 1   2 1 2 1 2 1 2 1 2 1   2 1 2 1 2 1 2 1 2 1   2 1 2 1 2 1 2 1 2 1
                                        2 1 2 1 2 3 1 2 3 1   2 3 1 1 1 1 1 1 1 1   1 1 1 1 1 2 1 2
 EXTRA SYMMETRY OF AOS IN SYMMETRY 3:   1 1 1 1 1 1 1 1 1 1   1 1 1 1 1 1 1 1 1 1   1 1 1 1 1 1 1 1 1 1   1 1 1 1 1 1 1 1 1 1
                                        1 1 1 1 1 1 2 1 2 1   2 1 2 1 2 1 2 1 2 1   2 1 2 1 2 1 2 1 2 1   2 1 2 1 2 1 2 1 2 1
                                        2 1 2 1 2 3 1 2 3 1   2 3 1 1 1 1 1 1 1 1   1 1 1 1 1 2 1 2
 EXTRA SYMMETRY OF AOS IN SYMMETRY 4:   1 1 1 1 1 1 1 1 1 1   1 1 1 1 1 1 1 1 1 1   1 1 1 1 1 1 1 1 1 1   1 1 2 1 2 1 2 1 2 1
                                        2 1 2 2 1 2 1 2 1 1   1 1 1 1 1

 Eigenvalues of metric

         1 0.863E-05 0.121E-04 0.369E-04 0.478E-04 0.678E-04 0.747E-04 0.105E-03 0.186E-03
         2 0.122E-04 0.175E-04 0.105E-03 0.490E-03 0.644E-03 0.156E-02 0.220E-02 0.335E-02
         3 0.122E-04 0.175E-04 0.105E-03 0.490E-03 0.644E-03 0.156E-02 0.220E-02 0.335E-02
         4 0.701E-03 0.220E-02 0.838E-02 0.144E-01 0.215E-01 0.328E-01 0.344E-01 0.520E-01


 Contracted 2-electron integrals neglected if value below      1.0D-15
 AO integral compression algorithm  1   Integral accuracy      1.0D-15

     3558.867 MB (compressed) written to integral file ( 32.4%)

     Node minimum: 249.561 MB, node maximum: 431.751 MB


 NUMBER OF SORTED TWO-ELECTRON INTEGRALS:  120329803.     BUFFER LENGTH:  32768
 NUMBER OF SEGMENTS:   4  SEGMENT LENGTH:   31977703      RECORD LENGTH: 524288

 Memory used in sort:      32.53 MW

 SORT1 READ  1374547738. AND WROTE    40768609. INTEGRALS IN    119 RECORDS. CPU TIME:    22.56 SEC, REAL TIME:    34.13 SEC
 SORT2 READ   446856432. AND WROTE  1323827515. INTEGRALS IN  14069 RECORDS. CPU TIME:     2.28 SEC, REAL TIME:     3.15 SEC

 Node minimum:   120327112.  Node maximum:   120451591. integrals

 OPERATOR DM      FOR CENTER  0  COORDINATES:    0.000000    0.000000    0.000000


 **********************************************************************************************************************************
 DATASETS  * FILE   NREC   LENGTH (MB)   RECORD NAMES
              1      19       22.40       500      610      700      900      950      970     1000      129      960     1100
                                          VAR    BASINP    GEOM    SYMINP    ZMAT    AOBASIS   BASIS     P2S    ABASIS      S
                                         1400     1410     1420     1200     1210     1080     1600     1650     1700
                                           T        V       ECP      H0       H01     AOSYM     SMH    MOLCAS    OPER

 PROGRAMS   *        TOTAL       INT
 CPU TIMES  *        85.25     85.03
 REAL TIME  *        99.12 SEC
 DISK USED  *         8.87 GB
 GA USED    *         0.00 MB       (max)       0.00 MB       (current)
 **********************************************************************************************************************************


 PROGRAM * RHF-SCF (CLOSED SHELL)       Authors: W. Meyer, H.-J. Werner


 NUMBER OF ELECTRONS:       8+    8-    SPACE SYMMETRY=1    SPIN SYMMETRY: Singlet
 CONVERGENCE THRESHOLDS:    1.00E-05 (Density)    1.00E-07 (Energy)
 MAX. NUMBER OF ITERATIONS:      200
 INTERPOLATION TYPE:            DIIS
 INTERPOLATION STEPS:              2 (START)      1 (STEP)
 LEVEL SHIFTS:                  0.00 (CLOSED)  0.00 (OPEN)

 Number of closed-shell orbitals:    8 (   4   2   2   0 )


 Orbital guess generated from atomic densities. Full valence occupancy:    7   3   3   1

 Molecular orbital dump at record        2202.2

 ITERATION    DDIFF          GRAD             ENERGY        2-EL.EN.            DIPOLE MOMENTS         DIIS   ORB.
    1      0.000D+00      0.000D+00       -55.06331371    101.822615    0.00000    0.00000   -7.79013    0    start
    2      0.000D+00      0.154D-01       -48.99467740     93.902703    0.00000    0.00000   23.10836    1    diag
    3      0.177D-01      0.496D-01       -55.36984075     99.157853    0.00000    0.00000   -5.88194    2    diag
    4      0.158D-01      0.496D-02       -55.41258742     98.563250    0.00000    0.00000   -4.63509    3    diag
    5      0.259D-02      0.190D-02       -55.41889988     98.191170    0.00000    0.00000   -4.09073    4    diag
    6      0.982D-03      0.406D-03       -55.42009082     98.078818    0.00000    0.00000   -3.92610    5    diag
    7      0.563D-03      0.428D-03       -55.42103442     98.026145    0.00000    0.00000   -3.83512    6    diag
    8      0.461D-03      0.428D-03       -55.42394845     97.795049    0.00000    0.00000   -3.43988    7    diag
    9      0.169D-02      0.375D-03       -55.42526236     97.596659    0.00000    0.00000   -3.07698    8    diag
   10      0.130D-02      0.242D-03       -55.42531091     97.666402    0.00000    0.00000   -3.19205    9    orth
   11      0.389D-03      0.151D-03       -55.42548357     97.540947    0.00000    0.00000   -2.98188    9    diag
   12      0.629D-03      0.388D-04       -55.42548724     97.557462    0.00000    0.00000   -3.01554    9    diag
   13      0.668D-04      0.141D-04       -55.42549045     97.542099    0.00000    0.00000   -2.99352    9    diag
   14      0.696D-04      0.351D-05       -55.42549062     97.539388    0.00000    0.00000   -2.99000    9    diag
   15      0.146D-04      0.948D-06       -55.42549062     97.538527    0.00000    0.00000   -2.98855    9    diag
   16      0.408D-05      0.763D-06       -55.42549062     97.539040    0.00000    0.00000   -2.98905    0    orth

 Final occupancy:   4   2   2   0

 !RHF STATE 1.1 Energy                -55.425490621255
   --><property name="Energy" method="RHF" principal="true" stateSymmetry="1" stateNumber="1"
     value="-55.4254906212551"/><!--
 Nuclear energy                        15.18508518
 One-electron energy                 -119.38009567
 Two-electron energy                   48.76951987
 Virial quotient                       -2.27238914
 !RHF STATE 1.1 Dipole moment           0.00000000     0.00000000    -2.98905178
 Dipole moment /Debye                   0.00000000     0.00000000    -7.59691422
   --><property name="Dipole moment" method="RHF" principal="true" stateSymmetry="1"
     stateNumber="1" value="0.0 0.0 -2.98905177758233"/><!--

 ELECTRON ORBITALS
 =================


   Orb  Occ    Energy  Couls-En    Coefficients

                                   1 1s      1 1s      1 1s      1 1s      1 1s      1 1s      1 1s      1 1s      1 1s      1 1s
                                   1 1s      1 1s      1 1s      1 1s      1 1s      1 1s      1 1s      1 1s      1 1s      1 1s
                                   1 1s      1 1s      1 1s      1 1s      1 1s      1 1s      1 1s      1 1s      1 1s      1 1s
                                   1 1s      1 2pz     1 2pz     1 2pz     1 2pz     1 2pz     1 2pz     1 2pz     1 2pz     1 2pz
                                   1 2pz     1 2pz     1 2pz     1 2pz     1 2pz     1 2pz     1 2pz     1 2pz     1 2pz     1 2pz
                                   1 2pz     1 2pz     1 2pz     1 2pz     1 2pz     1 2pz     1 2pz     1 2pz     1 3d0     1 3d2+
                                   1 3d0     1 3d2+    1 3d0     1 3d2+    1 3d0     1 3d2+    1 3d0     1 3d2+    1 3d0     1 3d2+
                                   1 3d0     1 3d2+    1 3d0     1 3d2+    1 3d0     1 3d2+    1 3d0     1 3d2+    1 3d0     1 3d2+
                                   1 3d0     1 3d2+    1 3d0     1 3d2+    1 3d0     1 3d2+    1 3d0     1 3d2+    1 3d0     1 3d2+
                                   1 3d0     1 3d2+    1 3d0     1 3d2+    1 4f0     1 4f2+    1 4f0     1 4f2+    1 4f0     1 4f2+
                                   1 4f0     1 4f2+    1 4f0     1 4f2+    1 4f0     1 4f2+    1 4f0     1 4f2+    1 4f0     1 4f2+
                                   1 4f0     1 4f2+    1 4f0     1 4f2+    1 4f0     1 4f2+    1 4f0     1 4f2+    1 4f0     1 4f2+
                                   1 5g0     1 5g4+    1 5g2+    1 5g0     1 5g4+    1 5g2+    1 5g0     1 5g4+    1 5g2+    1 5g0
                                   1 5g4+    1 5g2+    1 5g0     1 5g4+    1 5g2+    1 5g0     1 5g4+    1 5g2+    1 6h2+    1 6h4+
                                   1 6h0     1 6h2+    1 6h4+    1 6h0     1 6h2+    1 6h4+    1 6h0     2 1s      2 1s      2 1s
                                   2 1s      2 1s      2 1s      2 1s      2 1s      2 1s      2 1s      2 1s      2 1s      2 1s
                                   2 2pz     2 2pz     2 2pz     2 2pz     2 2pz     2 2pz     2 2pz     2 2pz     2 3d0     2 3d2+
                                   2 3d0     2 3d2+    2 3d0     2 3d2+    2 3d0     2 3d2+    2 4f0     2 4f2+    2 4f0     2 4f2+


   1.1   2    -2.8997  -12.3200 -0.000000  0.000000 -0.000000  0.000000 -0.000000  0.000000 -0.000001  0.000003 -0.000007  0.000018
                                -0.000046  0.000110 -0.000257  0.000577 -0.001237  0.002544 -0.004771  0.007451 -0.007812 -0.000781
                                 0.190431 -0.383288 -0.242445  0.143901  0.790848  0.300876  0.055073 -0.032185  0.030550 -0.021852
                                 0.006875 -0.000000  0.000000 -0.000000  0.000000 -0.000000  0.000000 -0.000000  0.000000 -0.000000
                                 0.000000 -0.000000  0.000001 -0.000004  0.000009 -0.000009 -0.000211 -0.000028  0.001097  0.000355
                                -0.000290 -0.005008 -0.002506 -0.010314  0.005235 -0.002358  0.002866 -0.005237 -0.000000  0.000000
                                 0.000000 -0.000000 -0.000000  0.000000  0.000000 -0.000000 -0.000001  0.000000  0.000003 -0.000000
                                -0.000009  0.000000  0.000019 -0.000000 -0.000034  0.000000  0.000026 -0.000000  0.000248  0.000000
                                 0.000473 -0.000000 -0.005784  0.000000 -0.004410  0.000000  0.001756 -0.000000 -0.002050  0.000000
                                 0.004043 -0.000000 -0.001666  0.000000  0.000000 -0.000000 -0.000000  0.000000  0.000000 -0.000000
                                -0.000001  0.000000  0.000003 -0.000000 -0.000005  0.000000 -0.000022 -0.000000 -0.000089  0.000000
                                -0.000404 -0.000000 -0.000063 -0.000000  0.000222  0.000000  0.000440 -0.000000 -0.000141  0.000000
                                 0.000001 -0.000000 -0.000000 -0.000006 -0.000000  0.000000  0.000036 -0.000000 -0.000000  0.000287
                                -0.000000 -0.000000  0.000109  0.000000  0.000000 -0.000010 -0.000000 -0.000000 -0.000000  0.000000
                                 0.000004 -0.000000  0.000000 -0.000029 -0.000000  0.000000  0.000112 -0.000000  0.000000 -0.000000
                                 0.000001 -0.000007  0.000225 -0.000263  0.000740  0.001465  0.001316 -0.003025 -0.000315 -0.000372
                                -0.000025 -0.000208 -0.000665 -0.001076 -0.001078  0.000992 -0.000016  0.000007  0.000059 -0.000000
                                 0.000360  0.000000  0.000519  0.000000  0.000008  0.000000 -0.000002  0.000000 -0.000347 -0.000000

   2.1   2    -1.6637   -9.7696 -0.000000  0.000000 -0.000000  0.000000 -0.000000  0.000000 -0.000000  0.000000 -0.000000  0.000001
                                -0.000001  0.000003 -0.000008  0.000017 -0.000037  0.000076 -0.000142  0.000222 -0.000234  0.000097
                                 0.004572 -0.009520 -0.007847  0.006573  0.032208 -0.003216 -0.015374 -0.000910 -0.015150 -0.006480
                                 0.004264 -0.000000  0.000000 -0.000000  0.000000 -0.000000  0.000000 -0.000000  0.000001 -0.000003
                                 0.000009 -0.000026  0.000071 -0.000190  0.000583 -0.003410  0.043132 -0.047874 -0.049796 -0.063680
                                 0.160784  0.531115 -0.035606  0.404871 -0.010222  0.067628 -0.015551  0.010908 -0.000000  0.000000
                                 0.000000 -0.000000 -0.000000  0.000000  0.000000 -0.000000 -0.000000  0.000000  0.000001 -0.000000
                                -0.000003  0.000000  0.000005 -0.000000 -0.000003  0.000000 -0.000068  0.000000  0.000719 -0.000000
                                 0.000144  0.000000 -0.008179  0.000000 -0.013826  0.000000 -0.005532  0.000000 -0.002358  0.000000
                                -0.005006 -0.000000  0.003124  0.000000 -0.000000 -0.000000  0.000000 -0.000000 -0.000000  0.000000
                                 0.000000 -0.000000  0.000003  0.000000 -0.000000 -0.000000 -0.000163 -0.000000 -0.000165 -0.000000
                                -0.003146 -0.000000 -0.001736 -0.000000 -0.000906 -0.000000 -0.001844 -0.000000  0.000676 -0.000000
                                -0.000001 -0.000000 -0.000000  0.000007  0.000000  0.000000 -0.000021 -0.000000 -0.000000  0.000285
                                 0.000000 -0.000000 -0.000976 -0.000000 -0.000000  0.000388  0.000000  0.000000  0.000000  0.000000
                                 0.000008  0.000000 -0.000000 -0.000142 -0.000000  0.000000  0.000431 -0.000000  0.000000 -0.000002
                                 0.000015 -0.000132  0.005120 -0.010127  0.017336  0.050343  0.037353  0.021613 -0.004598 -0.008231
                                -0.000324 -0.002745 -0.008385 -0.014577 -0.015108 -0.006746 -0.000106  0.000087  0.000480 -0.000000
                                 0.003088  0.000000  0.003232 -0.000000  0.000026 -0.000000 -0.000330  0.000000 -0.001224 -0.000000

   3.1   2    -1.3168   -8.6577  0.000000 -0.000000  0.000000 -0.000000  0.000000 -0.000000  0.000000 -0.000000  0.000000 -0.000001
                                 0.000002 -0.000005  0.000011 -0.000025  0.000053 -0.000109  0.000204 -0.000321  0.000339  0.000055
                                -0.009000  0.018704  0.011355 -0.006940 -0.052225 -0.027099  0.045602 -0.003442 -0.026684  0.002087
                                 0.004974  0.000000 -0.000000  0.000000 -0.000000  0.000000 -0.000000  0.000000 -0.000000  0.000001
                                -0.000002  0.000006 -0.000016  0.000042 -0.000125  0.000638 -0.007381  0.008725  0.006732  0.010896
                                -0.028001 -0.074563 -0.021914 -0.038104  0.059191 -0.011737 -0.025598 -0.052248 -0.000000  0.000000
                                 0.000000 -0.000000 -0.000001  0.000000  0.000002 -0.000000 -0.000007  0.000000  0.000022 -0.000000
                                -0.000058  0.000000  0.000136 -0.000000 -0.000289  0.000000  0.000678 -0.000000 -0.002271  0.000000
                                 0.001291 -0.000000  0.011202  0.000000  0.023271 -0.000000 -0.000962 -0.000000 -0.023189 -0.000000
                                 0.018656  0.000000 -0.000877 -0.000000  0.000000 -0.000000 -0.000001  0.000000  0.000003 -0.000000
                                -0.000010  0.000000  0.000021 -0.000000 -0.000066  0.000000  0.000467 -0.000000  0.000496  0.000000
                                 0.002940 -0.000000  0.004133  0.000000 -0.008478  0.000000  0.001778  0.000000  0.002039 -0.000000
                                 0.000008  0.000000 -0.000000 -0.000037 -0.000000  0.000000  0.000365  0.000000 -0.000000  0.000977
                                 0.000000  0.000000 -0.004187  0.000000  0.000000  0.003099 -0.000000 -0.000000  0.000000 -0.000000
                                 0.000019 -0.000000  0.000000 -0.000109  0.000000 -0.000000  0.000740 -0.000000  0.000004 -0.000026
                                 0.000165 -0.001427  0.054221 -0.100940  0.188966  0.546331  0.407219  0.044742 -0.053150 -0.088077
                                -0.000157 -0.001057 -0.004909 -0.007624 -0.041733 -0.016356 -0.000333  0.000039 -0.000531 -0.000000
                                 0.002450 -0.000000  0.009790  0.000000 -0.000274 -0.000000  0.000067 -0.000000 -0.002537  0.000000

   4.1   2    -0.5094   -6.3669 -0.000000  0.000000 -0.000000  0.000000 -0.000000  0.000000 -0.000000  0.000001 -0.000002  0.000005
                                -0.000013  0.000031 -0.000072  0.000162 -0.000347  0.000714 -0.001344  0.002111 -0.002240  0.000172
                                 0.054049 -0.113553 -0.077478  0.055677  0.334049  0.259051 -0.081935 -0.482377 -0.265440  0.109409
                                -0.061350 -0.000000  0.000000 -0.000000  0.000000 -0.000000  0.000000 -0.000000  0.000000 -0.000000
                                 0.000000 -0.000001  0.000002 -0.000004  0.000015 -0.000146  0.002382 -0.002582 -0.003332 -0.004040
                                 0.012073  0.030801  0.023461 -0.000544  0.422722 -0.020848  0.078848 -0.413070  0.000000 -0.000000
                                -0.000000  0.000000  0.000003 -0.000000 -0.000011  0.000000  0.000036 -0.000000 -0.000109  0.000000
                                 0.000287 -0.000000 -0.000680  0.000000  0.001460 -0.000000 -0.003537  0.000000  0.012642 -0.000000
                                -0.007007 -0.000000 -0.070975  0.000000 -0.131529  0.000000 -0.088295  0.000000  0.071205  0.000000
                                -0.040762 -0.000000  0.001003  0.000000 -0.000000 -0.000000  0.000001 -0.000000 -0.000003  0.000000
                                 0.000010 -0.000000 -0.000016  0.000000  0.000066 -0.000000 -0.000709  0.000000 -0.001131 -0.000000
                                -0.003686  0.000000 -0.011134 -0.000000  0.003639  0.000000  0.012540 -0.000000 -0.005252  0.000000
                                -0.000006 -0.000000 -0.000000  0.000026  0.000000  0.000000 -0.000372 -0.000000 -0.000000 -0.004076
                                 0.000000  0.000000  0.005843 -0.000000 -0.000000 -0.002308  0.000000  0.000000  0.000000  0.000000
                                -0.000033 -0.000000 -0.000000  0.000272  0.000000  0.000000 -0.001725 -0.000000  0.000001 -0.000004
                                 0.000027 -0.000230  0.008917 -0.016248  0.033433  0.104877  0.103391 -0.046645 -0.009286 -0.014692
                                 0.006271  0.053615  0.174790  0.283312  0.241047  0.065275  0.003413 -0.001654 -0.002979  0.000000
                                -0.012135  0.000000 -0.017287  0.000000 -0.000312  0.000000  0.002361  0.000000  0.004687 -0.000000

   5.1   0    -0.2532   -5.0310  0.000000 -0.000000  0.000000 -0.000000  0.000000 -0.000000  0.000000 -0.000001  0.000001 -0.000004
                                 0.000009 -0.000023  0.000053 -0.000118  0.000253 -0.000521  0.000980 -0.001538  0.001630 -0.000415
                                -0.035689  0.074851  0.056513 -0.044726 -0.213118 -0.169561 -0.059456  0.310945  0.431018  0.064127
                                 0.116529  0.000000 -0.000000  0.000000 -0.000000  0.000000 -0.000000  0.000000 -0.000000  0.000000
                                -0.000001  0.000003 -0.000009  0.000023 -0.000053 -0.000151  0.005726 -0.004782 -0.013452 -0.010316
                                 0.031638  0.134224 -0.031142  0.130695 -0.098887 -0.106703 -0.276653  0.038958  0.000000 -0.000000
                                -0.000001  0.000000  0.000003 -0.000000 -0.000012  0.000000  0.000041 -0.000000 -0.000121  0.000000
                                 0.000320 -0.000000 -0.000757  0.000000  0.001620 -0.000000 -0.003881  0.000000  0.013589 -0.000000
                                -0.007992  0.000000 -0.072128  0.000000 -0.136945  0.000000 -0.141714  0.000000  0.021085  0.000000
                                -0.073152 -0.000000  0.021098  0.000000 -0.000000  0.000000  0.000001 -0.000000 -0.000005  0.000000
                                 0.000016 -0.000000 -0.000035  0.000000  0.000108 -0.000000 -0.000720  0.000000 -0.000686  0.000000
                                -0.004252  0.000000 -0.006950  0.000000  0.010400 -0.000000 -0.000225  0.000000  0.001097  0.000000
                                -0.000004 -0.000000 -0.000000  0.000015 -0.000000  0.000000 -0.000228  0.000000 -0.000000 -0.000954
                                 0.000000 -0.000000  0.003228  0.000000 -0.000000 -0.002484 -0.000000  0.000000 -0.000000 -0.000000
                                -0.000023  0.000000  0.000000  0.000155 -0.000000 -0.000000 -0.001222 -0.000000  0.000000 -0.000000
                                 0.000001 -0.000015  0.000872 -0.002597  0.003693  0.017136  0.018812  0.048153 -0.000357 -0.001382
                                 0.004811  0.041119  0.135085  0.217927  0.198421  0.056093  0.002738 -0.001267 -0.001558  0.000000
                                -0.006428 -0.000000 -0.010947  0.000000 -0.000155 -0.000000  0.001674  0.000000  0.003947  0.000000

   6.1   0    -0.1643   -5.1441 -0.000000  0.000000 -0.000000  0.000000 -0.000000  0.000000 -0.000000  0.000000 -0.000000  0.000000
                                -0.000000  0.000000 -0.000000  0.000000 -0.000000  0.000000 -0.000000  0.000000 -0.000000 -0.000000
                                 0.000000 -0.000000 -0.000000  0.000000  0.000000  0.000000  0.000000 -0.000000  0.000000 -0.000000
                                 0.000000  0.000000  0.000000 -0.000000  0.000000 -0.000000  0.000000 -0.000000  0.000000 -0.000000
                                 0.000000 -0.000000  0.000000 -0.000000  0.000000 -0.000000  0.000000 -0.000000 -0.000000 -0.000000
                                 0.000000  0.000000  0.000000  0.000000  0.000000 -0.000000 -0.000000 -0.000000 -0.000000  0.000000
                                 0.000000 -0.000001 -0.000000  0.000007  0.000000 -0.000029 -0.000000  0.000100  0.000000 -0.000298
                                -0.000000  0.000787  0.000000 -0.001870 -0.000000  0.004028  0.000000 -0.009901 -0.000000  0.036294
                                 0.000000 -0.019281  0.000000 -0.211607  0.000000 -0.373342  0.000000 -0.422089  0.000000 -0.112517
                                -0.000000 -0.076712  0.000000 -0.093724  0.000000 -0.000000 -0.000000  0.000001  0.000000 -0.000004
                                -0.000000  0.000015  0.000000 -0.000054 -0.000000  0.000100 -0.000000  0.000401 -0.000000  0.001985
                                -0.000000  0.002843 -0.000000  0.017535 -0.000000  0.039729 -0.000000  0.016438  0.000000  0.017302
                                -0.000000 -0.000000  0.000017  0.000000  0.000000 -0.000082 -0.000000 -0.000000  0.000609 -0.000000
                                -0.000000  0.009130 -0.000000 -0.000000  0.007255 -0.000000  0.000000  0.000391 -0.000005  0.000000
                                -0.000000  0.000036 -0.000000  0.000000  0.000021  0.000000 -0.000000 -0.000000  0.000000 -0.000000
                                 0.000000 -0.000000  0.000000 -0.000000  0.000000  0.000000  0.000000  0.000000 -0.000000 -0.000000
                                 0.000000  0.000000  0.000000  0.000000  0.000000  0.000000  0.000000 -0.000000  0.000000 -0.000528
                                 0.000000 -0.002395 -0.000000 -0.003005  0.000000 -0.000046  0.000000  0.000193 -0.000000  0.001066

                                   1 2px     1 2px     1 2px     1 2px     1 2px     1 2px     1 2px     1 2px     1 2px     1 2px
                                   1 2px     1 2px     1 2px     1 2px     1 2px     1 2px     1 2px     1 2px     1 2px     1 2px
                                   1 2px     1 2px     1 2px     1 2px     1 2px     1 2px     1 2px     1 3d1+    1 3d1+    1 3d1+
                                   1 3d1+    1 3d1+    1 3d1+    1 3d1+    1 3d1+    1 3d1+    1 3d1+    1 3d1+    1 3d1+    1 3d1+
                                   1 3d1+    1 3d1+    1 3d1+    1 3d1+    1 3d1+    1 4f1+    1 4f3+    1 4f1+    1 4f3+    1 4f1+
                                   1 4f3+    1 4f1+    1 4f3+    1 4f1+    1 4f3+    1 4f1+    1 4f3+    1 4f1+    1 4f3+    1 4f1+
                                   1 4f3+    1 4f1+    1 4f3+    1 4f1+    1 4f3+    1 4f1+    1 4f3+    1 4f1+    1 4f3+    1 4f1+
                                   1 4f3+    1 5g1+    1 5g3+    1 5g1+    1 5g3+    1 5g1+    1 5g3+    1 5g1+    1 5g3+    1 5g1+
                                   1 5g3+    1 5g1+    1 5g3+    1 6h1+    1 6h3+    1 6h5+    1 6h1+    1 6h3+    1 6h5+    1 6h1+
                                   1 6h3+    1 6h5+    2 2px     2 2px     2 2px     2 2px     2 2px     2 2px     2 2px     2 2px
                                   2 3d1+    2 3d1+    2 3d1+    2 3d1+    2 4f1+    2 4f3+    2 4f1+    2 4f3+

   1.2   2    -1.6763   -9.7056 -0.000000  0.000000 -0.000000  0.000000 -0.000000  0.000000 -0.000000  0.000001 -0.000003  0.000009
                                -0.000025  0.000068 -0.000183  0.000566 -0.003381  0.043301 -0.047736 -0.051179 -0.064151  0.162201
                                 0.536671 -0.026720  0.408117  0.049393  0.061772 -0.005850 -0.047360  0.000000 -0.000000  0.000000
                                -0.000000  0.000001 -0.000002  0.000006 -0.000015  0.000036 -0.000128  0.000714 -0.000069 -0.006017
                                -0.012677 -0.002644  0.001140 -0.001353  0.000223 -0.000000  0.000000  0.000000 -0.000000 -0.000002
                                 0.000000  0.000005 -0.000000 -0.000009  0.000000  0.000032 -0.000000 -0.000299  0.000000 -0.000273
                                -0.000000 -0.003568  0.000000 -0.002633 -0.000000  0.000312  0.000000 -0.000510 -0.000000  0.000027
                                 0.000000 -0.000003  0.000000  0.000016 -0.000000 -0.000092  0.000000 -0.000117 -0.000000 -0.000109
                                 0.000000 -0.000081 -0.000000  0.000002  0.000000 -0.000000 -0.000075  0.000000 -0.000000  0.000145
                                -0.000000 -0.000000  0.000086  0.000745  0.002229  0.003706  0.002731  0.000664  0.000011 -0.000023
                                -0.000151 -0.000947 -0.000851 -0.000018  0.000096  0.000000  0.000524 -0.000000

   2.2   2    -0.5892   -7.0426  0.000000 -0.000000  0.000000 -0.000000  0.000000 -0.000000  0.000000 -0.000000  0.000000 -0.000000
                                 0.000001 -0.000003  0.000008 -0.000026  0.000173 -0.002392  0.002700  0.002840  0.003777 -0.010528
                                -0.032741  0.000558 -0.032086 -0.051175  0.034143  0.038041  0.045449 -0.000000  0.000000 -0.000001
                                 0.000006 -0.000022  0.000064 -0.000169  0.000399 -0.000849  0.002003 -0.006807  0.004058  0.034919
                                 0.066321  0.075263 -0.041288  0.073899 -0.031649 -0.000000 -0.000000  0.000002  0.000000 -0.000007
                                -0.000000  0.000023  0.000000 -0.000079 -0.000000  0.000160  0.000000  0.000276 -0.000000  0.002356
                                 0.000000  0.002013 -0.000000  0.016619  0.000000  0.006704  0.000000  0.004467 -0.000000 -0.001758
                                 0.000000  0.000008  0.000000 -0.000032  0.000000  0.000491  0.000000  0.006358  0.000000 -0.005263
                                -0.000000  0.003505  0.000000  0.000075  0.000000  0.000000 -0.000603 -0.000000 -0.000000  0.002294
                                 0.000000  0.000000  0.009805  0.084416  0.276898  0.433071  0.357543  0.046568  0.005273 -0.002582
                                -0.002689 -0.011474 -0.024818 -0.000277  0.002472  0.000000  0.007296  0.000000

   3.2   0    -0.1701   -4.0287  0.000000 -0.000000  0.000000 -0.000000  0.000000 -0.000000  0.000000 -0.000000  0.000000 -0.000000
                                 0.000001 -0.000003  0.000009 -0.000038  0.000470 -0.008129  0.008442  0.012641  0.013313 -0.038381
                                -0.146433  0.035661 -0.154644  0.005972  0.107799  0.458002  0.284874  0.000000 -0.000001  0.000004
                                -0.000017  0.000059 -0.000176  0.000465 -0.001104  0.002379 -0.005852  0.021470 -0.011344 -0.125819
                                -0.215448 -0.256885 -0.165736  0.029351 -0.136074 -0.000000 -0.000000  0.000000  0.000000 -0.000002
                                -0.000000  0.000007  0.000000 -0.000031 -0.000000  0.000046  0.000000  0.000510 -0.000000  0.001632
                                 0.000000  0.004165 -0.000000  0.014325 -0.000000  0.018050  0.000000  0.003895  0.000000  0.006865
                                -0.000000  0.000016 -0.000000 -0.000074  0.000000  0.000548  0.000000  0.008083 -0.000000  0.005644
                                -0.000000  0.000302 -0.000000  0.000002  0.000000  0.000000 -0.000000 -0.000000 -0.000000  0.000116
                                 0.000000  0.000000  0.000589  0.005057  0.017096  0.026227  0.026058  0.020461  0.000395 -0.000154
                                 0.000280  0.002331 -0.001112  0.000037 -0.000082 -0.000000 -0.000931  0.000000

   4.2   0    -0.1080   -4.5511  0.000000 -0.000000  0.000000 -0.000000  0.000000 -0.000000  0.000000 -0.000000  0.000001 -0.000004
                                 0.000012 -0.000032  0.000084 -0.000240  0.000904 -0.007646  0.010936  0.000115  0.010404 -0.025646
                                -0.031812 -0.049211 -0.020165 -4.886201 -0.012589  0.319448  5.325669 -0.000000  0.000001 -0.000006
                                 0.000023 -0.000081  0.000243 -0.000641  0.001523 -0.003285  0.008112 -0.029988  0.015859  0.177373
                                 0.312161  0.337784 -0.067102  0.253120 -0.092293  0.000000  0.000000 -0.000002 -0.000000  0.000008
                                 0.000000 -0.000029 -0.000000  0.000104  0.000000 -0.000200 -0.000000 -0.000611  0.000000 -0.003528
                                -0.000000 -0.003996  0.000000 -0.027840 -0.000000 -0.076667  0.000000 -0.046838 -0.000000 -0.065924
                                 0.000000 -0.000022 -0.000000  0.000105 -0.000000 -0.000823  0.000000 -0.012574  0.000000 -0.011134
                                 0.000000 -0.002088 -0.000000 -0.000003 -0.000000 -0.000000  0.000029  0.000000  0.000000 -0.000300
                                -0.000000  0.000000 -0.002799 -0.024090 -0.081007 -0.124816 -0.120615 -0.059931 -0.001776  0.000733
                                -0.001163 -0.006595 -0.003021 -0.000102 -0.000198  0.000000  0.000896 -0.000000

                                   1 2py     1 2py     1 2py     1 2py     1 2py     1 2py     1 2py     1 2py     1 2py     1 2py
                                   1 2py     1 2py     1 2py     1 2py     1 2py     1 2py     1 2py     1 2py     1 2py     1 2py
                                   1 2py     1 2py     1 2py     1 2py     1 2py     1 2py     1 2py     1 3d1-    1 3d1-    1 3d1-
                                   1 3d1-    1 3d1-    1 3d1-    1 3d1-    1 3d1-    1 3d1-    1 3d1-    1 3d1-    1 3d1-    1 3d1-
                                   1 3d1-    1 3d1-    1 3d1-    1 3d1-    1 3d1-    1 4f1-    1 4f3-    1 4f1-    1 4f3-    1 4f1-
                                   1 4f3-    1 4f1-    1 4f3-    1 4f1-    1 4f3-    1 4f1-    1 4f3-    1 4f1-    1 4f3-    1 4f1-
                                   1 4f3-    1 4f1-    1 4f3-    1 4f1-    1 4f3-    1 4f1-    1 4f3-    1 4f1-    1 4f3-    1 4f1-
                                   1 4f3-    1 5g1-    1 5g3-    1 5g1-    1 5g3-    1 5g1-    1 5g3-    1 5g1-    1 5g3-    1 5g1-
                                   1 5g3-    1 5g1-    1 5g3-    1 6h1-    1 6h3-    1 6h5-    1 6h1-    1 6h3-    1 6h5-    1 6h1-
                                   1 6h3-    1 6h5-    2 2py     2 2py     2 2py     2 2py     2 2py     2 2py     2 2py     2 2py
                                   2 3d1-    2 3d1-    2 3d1-    2 3d1-    2 4f1-    2 4f3-    2 4f1-    2 4f3-

   1.3   2    -1.6763   -9.7056 -0.000000  0.000000 -0.000000  0.000000 -0.000000  0.000000 -0.000000  0.000001 -0.000003  0.000009
                                -0.000025  0.000068 -0.000183  0.000566 -0.003381  0.043301 -0.047736 -0.051179 -0.064151  0.162201
                                 0.536671 -0.026720  0.408117  0.049393  0.061772 -0.005850 -0.047360  0.000000 -0.000000  0.000000
                                -0.000000  0.000001 -0.000002  0.000006 -0.000015  0.000036 -0.000128  0.000714 -0.000069 -0.006017
                                -0.012677 -0.002644  0.001140 -0.001353  0.000223 -0.000000  0.000000  0.000000 -0.000000 -0.000002
                                 0.000000  0.000005 -0.000000 -0.000009  0.000000  0.000032 -0.000000 -0.000299  0.000000 -0.000273
                                -0.000000 -0.003568  0.000000 -0.002633  0.000000  0.000312 -0.000000 -0.000510  0.000000  0.000027
                                -0.000000 -0.000003  0.000000  0.000016 -0.000000 -0.000092 -0.000000 -0.000117 -0.000000 -0.000109
                                 0.000000 -0.000081 -0.000000  0.000002  0.000000 -0.000000 -0.000075  0.000000 -0.000000  0.000145
                                -0.000000 -0.000000  0.000086  0.000745  0.002229  0.003706  0.002731  0.000664  0.000011 -0.000023
                                -0.000151 -0.000947 -0.000851 -0.000018  0.000096  0.000000  0.000524  0.000000

   2.3   2    -0.5892   -7.0426  0.000000 -0.000000  0.000000 -0.000000  0.000000 -0.000000  0.000000 -0.000000  0.000000 -0.000000
                                 0.000001 -0.000003  0.000008 -0.000026  0.000173 -0.002392  0.002700  0.002840  0.003777 -0.010528
                                -0.032741  0.000558 -0.032086 -0.051175  0.034143  0.038041  0.045449 -0.000000  0.000000 -0.000001
                                 0.000006 -0.000022  0.000064 -0.000169  0.000399 -0.000849  0.002003 -0.006807  0.004058  0.034919
                                 0.066321  0.075263 -0.041288  0.073899 -0.031649 -0.000000 -0.000000  0.000002  0.000000 -0.000007
                                -0.000000  0.000023  0.000000 -0.000079 -0.000000  0.000160  0.000000  0.000276 -0.000000  0.002356
                                 0.000000  0.002013 -0.000000  0.016619  0.000000  0.006704 -0.000000  0.004467  0.000000 -0.001758
                                -0.000000  0.000008  0.000000 -0.000032  0.000000  0.000491  0.000000  0.006358  0.000000 -0.005263
                                 0.000000  0.003505 -0.000000  0.000075  0.000000  0.000000 -0.000603 -0.000000 -0.000000  0.002294
                                 0.000000  0.000000  0.009805  0.084416  0.276898  0.433071  0.357543  0.046568  0.005273 -0.002582
                                -0.002689 -0.011474 -0.024818 -0.000277  0.002472  0.000000  0.007296  0.000000

   3.3   0    -0.1701   -4.0287  0.000000 -0.000000  0.000000 -0.000000  0.000000 -0.000000  0.000000 -0.000000  0.000000 -0.000000
                                 0.000001 -0.000003  0.000009 -0.000038  0.000470 -0.008129  0.008442  0.012641  0.013313 -0.038381
                                -0.146433  0.035661 -0.154644  0.005972  0.107799  0.458002  0.284874  0.000000 -0.000001  0.000004
                                -0.000017  0.000059 -0.000176  0.000465 -0.001104  0.002379 -0.005852  0.021470 -0.011344 -0.125819
                                -0.215448 -0.256885 -0.165736  0.029351 -0.136074 -0.000000 -0.000000  0.000000  0.000000 -0.000002
                                -0.000000  0.000007  0.000000 -0.000031 -0.000000  0.000046  0.000000  0.000510 -0.000000  0.001632
                                 0.000000  0.004165 -0.000000  0.014325 -0.000000  0.018050  0.000000  0.003895  0.000000  0.006865
                                -0.000000  0.000016 -0.000000 -0.000074  0.000000  0.000548  0.000000  0.008083 -0.000000  0.005644
                                -0.000000  0.000302 -0.000000  0.000002  0.000000  0.000000 -0.000000 -0.000000 -0.000000  0.000116
                                 0.000000  0.000000  0.000589  0.005057  0.017096  0.026227  0.026058  0.020461  0.000395 -0.000154
                                 0.000280  0.002331 -0.001112  0.000037 -0.000082 -0.000000 -0.000931  0.000000

   4.3   0    -0.1080   -4.5511  0.000000 -0.000000  0.000000 -0.000000  0.000000 -0.000000  0.000000 -0.000000  0.000001 -0.000004
                                 0.000012 -0.000032  0.000084 -0.000240  0.000904 -0.007646  0.010936  0.000115  0.010404 -0.025646
                                -0.031812 -0.049211 -0.020165 -4.886200 -0.012589  0.319448  5.325668 -0.000000  0.000001 -0.000006
                                 0.000023 -0.000081  0.000243 -0.000641  0.001523 -0.003285  0.008112 -0.029988  0.015859  0.177373
                                 0.312161  0.337784 -0.067102  0.253120 -0.092293  0.000000  0.000000 -0.000002 -0.000000  0.000008
                                 0.000000 -0.000029 -0.000000  0.000104  0.000000 -0.000200  0.000000 -0.000611 -0.000000 -0.003528
                                -0.000000 -0.003996 -0.000000 -0.027840 -0.000000 -0.076667 -0.000000 -0.046838  0.000000 -0.065924
                                -0.000000 -0.000022  0.000000  0.000105 -0.000000 -0.000823  0.000000 -0.012574  0.000000 -0.011134
                                 0.000000 -0.002088 -0.000000 -0.000003 -0.000000 -0.000000  0.000029  0.000000  0.000000 -0.000300
                                -0.000000  0.000000 -0.002799 -0.024090 -0.081007 -0.124816 -0.120615 -0.059931 -0.001776  0.000733
                                -0.001163 -0.006595 -0.003021 -0.000102 -0.000198  0.000000  0.000896 -0.000000

                                   1 3d2-    1 3d2-    1 3d2-    1 3d2-    1 3d2-    1 3d2-    1 3d2-    1 3d2-    1 3d2-    1 3d2-
                                   1 3d2-    1 3d2-    1 3d2-    1 3d2-    1 3d2-    1 3d2-    1 3d2-    1 3d2-    1 4f2-    1 4f2-
                                   1 4f2-    1 4f2-    1 4f2-    1 4f2-    1 4f2-    1 4f2-    1 4f2-    1 4f2-    1 4f2-    1 4f2-
                                   1 4f2-    1 5g2-    1 5g4-    1 5g2-    1 5g4-    1 5g2-    1 5g4-    1 5g2-    1 5g4-    1 5g2-
                                   1 5g4-    1 5g2-    1 5g4-    1 6h4-    1 6h2-    1 6h4-    1 6h2-    1 6h4-    1 6h2-    2 3d2-
                                   2 3d2-    2 3d2-    2 3d2-    2 4f2-    2 4f2-

   1.4   0    -0.1643   -5.1441  0.000000 -0.000001  0.000007 -0.000029  0.000100 -0.000298  0.000787 -0.001870  0.004028 -0.009901
                                 0.036294 -0.019281 -0.211607 -0.373342 -0.422089 -0.112517 -0.076713 -0.093724 -0.000000  0.000001
                                -0.000004  0.000015 -0.000054  0.000100  0.000401  0.001985  0.002843  0.017535  0.039729  0.016438
                                 0.017302  0.000017 -0.000000 -0.000082  0.000000  0.000609 -0.000000  0.009130 -0.000000  0.007255
                                -0.000000  0.000391  0.000000  0.000000 -0.000005 -0.000000  0.000036  0.000000  0.000021 -0.000528
                                -0.002395 -0.003005 -0.000046  0.000193  0.001066

   2.4   0    -0.0442   -2.2046  0.000000 -0.000000  0.000001 -0.000004  0.000014 -0.000042  0.000115 -0.000293  0.000695 -0.002304
                                 0.012015 -0.002473 -0.102337 -0.128312 -0.384915  2.299779 -4.676464  3.471285 -0.000000  0.000003
                                -0.000011  0.000038 -0.000109  0.000258 -0.000468  0.001475 -0.002179  0.011974 -0.033835  0.065003
                                -0.306876  0.000008 -0.000000 -0.000038  0.000000  0.000286 -0.000000  0.004251 -0.000000 -0.002028
                                -0.000000  0.005107  0.000000  0.000000  0.000002  0.000000 -0.000023  0.000000  0.000132 -0.000072
                                -0.000107 -0.000332 -0.000002  0.000179 -0.000319

 HOMO      4.1    -0.509355 =     -13.8603eV
 LUMO      5.1    -0.253215 =      -6.8903eV
 LUMO-HOMO         0.256140 =       6.9699eV


 **********************************************************************************************************************************
 DATASETS  * FILE   NREC   LENGTH (MB)   RECORD NAMES
              1      19       22.47       500      610      700      900      950      970     1000      129      960     1100
                                          VAR    BASINP    GEOM    SYMINP    ZMAT    AOBASIS   BASIS     P2S    ABASIS      S
                                         1400     1410     1420     1200     1210     1080     1600     1650     1700
                                           T        V       ECP      H0       H01     AOSYM     SMH    MOLCAS    OPER

              2       4        4.02       700     1000      520     2202
                                         GEOM     BASIS   MCVARS     RHF

 PROGRAMS   *        TOTAL       RHF       INT
 CPU TIMES  *        94.31      9.06     85.03
 REAL TIME  *       108.84 SEC
 DISK USED  *         9.21 GB
 SF USED    *         0.24 MB
 GA USED    *         0.00 MB       (max)       0.00 MB       (current)
 **********************************************************************************************************************************
   -->
   <time start="07:31:57" end="07:33:45" cpu="94.31" system="14.22" real="108.84"/>
   <storage units="megabyte" memory="8001.84" sf="0.24" df="339.45" eaf="8872.32" ga="0.0"/>
  </jobstep><!--
  --><jobstep command="RHF-SCF" commandset="SCFPRO">
   <!--


 PROGRAM * RHF-SCF (OPEN SHELL)       Authors: W. Meyer, H.-J. Werner


 NUMBER OF ELECTRONS:       9+    8-    SPACE SYMMETRY=1    SPIN SYMMETRY: Doublet
 CONVERGENCE THRESHOLDS:    1.00E-05 (Density)    1.00E-07 (Energy)
 MAX. NUMBER OF ITERATIONS:      200
 INTERPOLATION TYPE:            DIIS
 INTERPOLATION STEPS:              2 (START)      1 (STEP)
 LEVEL SHIFTS:                 -0.60 (CLOSED) -0.30 (OPEN)

 Number of closed-shell orbitals:    8 (   4   2   2   0 )
 Number of open-shell orbitals:      1 (   1   0   0   0 )


 Molecular orbitals read from record     2202.2  Type=RHF/CANONICAL (state 1.1)

 Molecular orbital dump at record        3202.2

 ITERATION    DDIFF          GRAD             ENERGY        2-EL.EN.            DIPOLE MOMENTS         DIIS   ORB.
    1      0.000D+00      0.000D+00       -55.67870572    106.588207    0.00000    0.00000   -3.18698    0    start
    2      0.000D+00      0.254D-02       -55.69053665    105.466214    0.00000    0.00000   -3.02060    1    diag,B
    3      0.152D-02      0.124D-02       -55.69436895    105.459203    0.00000    0.00000   -3.10953    2    diag,B
    4      0.710D-03      0.725D-03       -55.69929816    105.140074    0.00000    0.00000   -3.02502    3    diag,B
    5      0.918D-03      0.546D-03       -55.70402525    104.923364    0.00000    0.00000   -2.86139    4    diag,B
    6      0.104D-02      0.533D-03       -55.70458072    104.902245    0.00000    0.00000   -2.83608    5    diag,B
    7      0.116D-03      0.541D-03       -55.69565579    105.258002    0.00000    0.00000   -3.39115    6    diag,B
    8      0.125D-02      0.506D-03       -55.69535523    105.288972    0.00000    0.00000   -3.43761    7    orth
    9      0.248D-03      0.468D-03       -55.69399095    105.464374    0.00000    0.00000   -3.76364    8    diag,B
   10      0.228D-02      0.295D-03       -55.69362624    105.563189    0.00000    0.00000   -3.92664    9    diag,B
   11      0.875D-03      0.278D-03       -55.69337497    105.591019    0.00000    0.00000   -4.00271    9    diag,B
   12      0.844D-03      0.335D-03       -55.69391822    105.544891    0.00000    0.00000   -3.88687    9    diag,B
   13      0.789D-03      0.191D-03       -55.69418895    105.492892    0.00000    0.00000   -3.81626    9    diag,B
   14      0.141D-02      0.238D-03       -55.69459802    105.415273    0.00000    0.00000   -3.70940    9    diag,B
   15      0.435D-03      0.314D-03       -55.69412090    105.534832    0.00000    0.00000   -3.88655    9    diag,B
   16      0.456D-03      0.149D-03       -55.69401447    105.564869    0.00000    0.00000   -3.93781    9    diag,B
   17      0.618D-03      0.121D-03       -55.69399085    105.571885    0.00000    0.00000   -3.94892    9    diag,B
   18      0.120D-02      0.952D-04       -55.69393824    105.583630    0.00000    0.00000   -3.96833    9    orth
   19      0.364D-03      0.778D-04       -55.69389221    105.593302    0.00000    0.00000   -3.98573    9    diag,B
   20      0.792D-04      0.749D-04       -55.69378388    105.612167    0.00000    0.00000   -4.02111    9    diag,B
   21      0.363D-03      0.505D-04       -55.69377433    105.612400    0.00000    0.00000   -4.02316    9    diag,B
   22      0.181D-04      0.526D-04       -55.69381586    105.612848    0.00000    0.00000   -4.01674    9    diag,B
   23      0.168D-03      0.462D-04       -55.69374210    105.629766    0.00000    0.00000   -4.04824    9    diag,B
   24      0.186D-03      0.555D-04       -55.69378530    105.623745    0.00000    0.00000   -4.03621    9    diag,B
   25      0.345D-03      0.529D-04       -55.69376711    105.625483    0.00000    0.00000   -4.04079    9    diag,B
   26      0.374D-04      0.569D-04       -55.69407871    105.555063    0.00000    0.00000   -3.91922    9    diag,B
   27      0.476D-03      0.757D-04       -55.69436323    105.487465    0.00000    0.00000   -3.81488    9    diag,B
   28      0.311D-03      0.126D-03       -55.69393362    105.584804    0.00000    0.00000   -3.97905    9    orth
   29      0.494D-03      0.874D-04       -55.69369837    105.618585    0.00000    0.00000   -4.05712    9    diag,B
   30      0.359D-03      0.115D-03       -55.69489589    105.391338    0.00000    0.00000   -3.67584    9    diag,B
   31      0.123D-02      0.225D-03       -55.69351746    105.623711    0.00000    0.00000   -4.08542    9    diag,B
   32      0.151D-02      0.163D-03       -55.69397163    105.583837    0.00000    0.00000   -3.96661    9    diag,B
   33      0.539D-03      0.632D-04       -55.69452736    105.458680    0.00000    0.00000   -3.76875    9    diag,B
   34      0.583D-03      0.148D-03       -55.69366657    105.621635    0.00000    0.00000   -4.06289    9    diag,B
   35      0.941D-03      0.124D-03       -55.69364919    105.622458    0.00000    0.00000   -4.06494    9    diag,B
   36      0.101D-03      0.127D-03       -55.69431111    105.501410    0.00000    0.00000   -3.83814    9    diag,B
   37      0.110D-02      0.110D-03       -55.69430133    105.504433    0.00000    0.00000   -3.83771    9    diag,B
   38      0.765D-03      0.107D-03       -55.69370459    105.619377    0.00000    0.00000   -4.05641    9    orth
   39      0.103D-02      0.112D-03       -55.69338715    105.621763    0.00000    0.00000   -4.09370    9    diag,B
   40      0.350D-03      0.197D-03       -55.69396962    105.581665    0.00000    0.00000   -3.96929    9    diag,B
   41      0.727D-03      0.667D-04       -55.69444411    105.470965    0.00000    0.00000   -3.79176    9    diag,B
   42      0.496D-03      0.141D-03       -55.69377320    105.612299    0.00000    0.00000   -4.03931    9    diag,B
   43      0.759D-03      0.102D-03       -55.69350319    105.625235    0.00000    0.00000   -4.08919    9    diag,B
   44      0.396D-03      0.161D-03       -55.69410446    105.545771    0.00000    0.00000   -3.90897    9    diag,B
   45      0.816D-03      0.851D-04       -55.69532322    105.335638    0.00000    0.00000   -3.59571    9    diag,B
   46      0.738D-03      0.278D-03       -55.69398753    105.568806    0.00000    0.00000   -3.95484    9    diag,B
   47      0.880D-03      0.101D-03       -55.69389849    105.591112    0.00000    0.00000   -3.99545    9    diag,B
   48      0.179D-03      0.929D-04       -55.69455895    105.451022    0.00000    0.00000   -3.76558    9    orth
   49      0.660D-03      0.155D-03       -55.69374504    105.614581    0.00000    0.00000   -4.04658    9    diag,B
   50      0.946D-03      0.109D-03       -55.69354657    105.623998    0.00000    0.00000   -4.08240    9    diag,B
   51      0.476D-03      0.155D-03       -55.69416510    105.530058    0.00000    0.00000   -3.88476    9    diag,B
   52      0.112D-02      0.977D-04       -55.69565924    105.298160    0.00000    0.00000   -3.54339    9    diag,B
   53      0.769D-03      0.318D-03       -55.69406864    105.547481    0.00000    0.00000   -3.91955    9    diag,B
   54      0.865D-03      0.114D-03       -55.69397730    105.573027    0.00000    0.00000   -3.96225    9    diag,B
   55      0.248D-03      0.970D-04       -55.69421849    105.523116    0.00000    0.00000   -3.87586    9    diag,B
   56      0.377D-03      0.939D-04       -55.69389230    105.593501    0.00000    0.00000   -3.99664    9    diag,B
   57      0.452D-03      0.838D-04       -55.69382745    105.603118    0.00000    0.00000   -4.01744    9    fixocc
   58      0.112D-03      0.902D-04       -55.69430289    105.502866    0.00000    0.00000   -3.84475    9    orth
   59      0.566D-03      0.111D-03       -55.69365756    105.616475    0.00000    0.00000   -4.05686    9    diag,B
   60      0.758D-03      0.125D-03       -55.69337564    105.617230    0.00000    0.00000   -4.08494    9    diag,B
   61      0.414D-03      0.189D-03       -55.69413079    105.539916    0.00000    0.00000   -3.90054    9    diag,B
   62      0.909D-03      0.919D-04       -55.69527997    105.345375    0.00000    0.00000   -3.61312    9    diag,B
   63      0.702D-03      0.278D-03       -55.69401283    105.561357    0.00000    0.00000   -3.94313    9    diag,B
   64      0.853D-03      0.107D-03       -55.69390211    105.588323    0.00000    0.00000   -3.99137    9    diag,B
   65      0.189D-03      0.952D-04       -55.69443362    105.475561    0.00000    0.00000   -3.80289    9    diag,B
   66      0.555D-03      0.132D-03       -55.69374745    105.612114    0.00000    0.00000   -4.04225    9    diag,B
   67      0.773D-03      0.108D-03       -55.69344476    105.619227    0.00000    0.00000   -4.08572    9    diag,B
   68      0.364D-03      0.184D-03       -55.69406993    105.554116    0.00000    0.00000   -3.92406    9    orth
   69      0.822D-03      0.823D-04       -55.69512001    105.363028    0.00000    0.00000   -3.63660    9    diag,B
   70      0.711D-03      0.253D-03       -55.69396296    105.574191    0.00000    0.00000   -3.96567    9    diag,B
   71      0.845D-03      0.999D-04       -55.69385839    105.597508    0.00000    0.00000   -4.00993    9    diag,B
   72      0.210D-03      0.964D-04       -55.69505416    105.371615    0.00000    0.00000   -3.65091    9    diag,B
   73      0.102D-02      0.240D-03       -55.69373434    105.613705    0.00000    0.00000   -4.04817    9    diag,B
   74      0.125D-02      0.115D-03       -55.69362961    105.621128    0.00000    0.00000   -4.07009    9    diag,B
   75      0.306D-03      0.136D-03       -55.69436060    105.484733    0.00000    0.00000   -3.81494    9    diag,B
   76      0.112D-02      0.134D-03       -55.69464394    105.440004    0.00000    0.00000   -3.74290    9    diag,B
   77      0.657D-03      0.161D-03       -55.69398272    105.571088    0.00000    0.00000   -3.95692    9    diag,B
   78      0.712D-03      0.932D-04       -55.69388000    105.593885    0.00000    0.00000   -4.00058    9    orth
   79      0.181D-03      0.923D-04       -55.69451225    105.459040    0.00000    0.00000   -3.77830    9    diag,B
   80      0.653D-03      0.148D-03       -55.69374672    105.612231    0.00000    0.00000   -4.04311    9    diag,B
   81      0.847D-03      0.111D-03       -55.69346546    105.620230    0.00000    0.00000   -4.08620    9    diag,B
   82      0.330D-03      0.181D-03       -55.69409522    105.547561    0.00000    0.00000   -3.91302    9    diag,B
   83      0.829D-03      0.852D-04       -55.69526210    105.344278    0.00000    0.00000   -3.60913    9    diag,B
   84      0.739D-03      0.270D-03       -55.69397810    105.570017    0.00000    0.00000   -3.95849    9    diag,B
   85      0.877D-03      0.103D-03       -55.69388216    105.593096    0.00000    0.00000   -4.00098    9    diag,B
   86      0.187D-03      0.955D-04       -55.69479606    105.410199    0.00000    0.00000   -3.70634    9    diag,B
   87      0.833D-03      0.197D-03       -55.69374686    105.612988    0.00000    0.00000   -4.04530    9    diag,B
   88      0.106D-02      0.111D-03       -55.69359070    105.622126    0.00000    0.00000   -4.07602    9    orth
   89      0.283D-03      0.146D-03       -55.69423531    105.512488    0.00000    0.00000   -3.85756    9    diag,B
   90      0.968D-03      0.111D-03       -55.69542880    105.327110    0.00000    0.00000   -3.58313    9    diag,B
   91      0.633D-03      0.282D-03       -55.69406018    105.548642    0.00000    0.00000   -3.92177    9    diag,B
   92      0.801D-03      0.113D-03       -55.69395638    105.576856    0.00000    0.00000   -3.96964    9    diag,B
   93      0.192D-03      0.962D-04       -55.69402543    105.568785    0.00000    0.00000   -3.95193    9    diag,B
   94      0.243D-03      0.698D-04       -55.69416791    105.526722    0.00000    0.00000   -3.87916    9    diag,B
   95      0.398D-03      0.995D-04       -55.69445229    105.475262    0.00000    0.00000   -3.79952    9    diag,B
   96      0.463D-03      0.127D-03       -55.69408785    105.543288    0.00000    0.00000   -3.90645    9    diag,B
   97      0.530D-03      0.992D-04       -55.69406096    105.550218    0.00000    0.00000   -3.91713    9    diag,B
   98      0.420D-04      0.928D-04       -55.69419137    105.521148    0.00000    0.00000   -3.86735    9    orth
   99      0.188D-03      0.896D-04       -55.69420894    105.518962    0.00000    0.00000   -3.86807    9    diag,B
  100      0.185D-03      0.113D-03       -55.69463443    105.444530    0.00000    0.00000   -3.75435    9    diag,B
  101      0.515D-03      0.164D-03       -55.69404859    105.553380    0.00000    0.00000   -3.92531    9    diag,B
  102      0.680D-03      0.993D-04       -55.69396818    105.572339    0.00000    0.00000   -3.95815    9    diag,B
  103      0.125D-03      0.883D-04       -55.69400607    105.566105    0.00000    0.00000   -3.94510    9    diag,B
  104      0.113D-03      0.656D-04       -55.69439979    105.479127    0.00000    0.00000   -3.80636    9    diag,B
  105      0.491D-03      0.142D-03       -55.69379788    105.605455    0.00000    0.00000   -4.02276    9    diag,B
  106      0.770D-03      0.773D-04       -55.69384292    105.604897    0.00000    0.00000   -4.01402    9    diag,B
  107      0.243D-03      0.593D-04       -55.69498040    105.380251    0.00000    0.00000   -3.66098    9    diag,B
  108      0.102D-02      0.237D-03       -55.69369021    105.619204    0.00000    0.00000   -4.05465    9    orth
  109      0.121D-02      0.107D-03       -55.69351011    105.621049    0.00000    0.00000   -4.07582    9    diag,B
  110      0.369D-03      0.146D-03       -55.69389618    105.598138    0.00000    0.00000   -3.99769    9    diag,B
  111      0.521D-03      0.615D-04       -55.69412143    105.544054    0.00000    0.00000   -3.90517    9    diag,B
  112      0.379D-03      0.842D-04       -55.69391694    105.591215    0.00000    0.00000   -3.98938    9    diag,B
  113      0.293D-03      0.760D-04       -55.69385872    105.603953    0.00000    0.00000   -4.01623    9    diag,B
  114      0.191D-03      0.830D-04       -55.69451143    105.459915    0.00000    0.00000   -3.77673    9    diag,B
  115      0.829D-03      0.152D-03       -55.69370889    105.620751    0.00000    0.00000   -4.05963    9    diag,B
  116      0.108D-02      0.113D-03       -55.69367448    105.624804    0.00000    0.00000   -4.06570    9    diag,B
  117      0.157D-03      0.101D-03       -55.69424354    105.511982    0.00000    0.00000   -3.85588    9    diag,B
  118      0.117D-02      0.109D-03       -55.69433943    105.493413    0.00000    0.00000   -3.82077    9    orth
  119      0.157D-03      0.100D-03       -55.69381751    105.611760    0.00000    0.00000   -4.03254    9    diag,B
  120      0.953D-03      0.863D-04       -55.69364474    105.627355    0.00000    0.00000   -4.07493    9    diag,B
  121      0.374D-03      0.116D-03       -55.69419596    105.523233    0.00000    0.00000   -3.87340    9    diag,B
  122      0.125D-02      0.100D-03       -55.69460452    105.443984    0.00000    0.00000   -3.74896    9    diag,B
  123      0.303D-03      0.148D-03       -55.69387722    105.595777    0.00000    0.00000   -4.00315    9    diag,B
  124      0.766D-03      0.934D-04       -55.69382207    105.607241    0.00000    0.00000   -4.02631    9    diag,B
  125      0.311D-03      0.955D-04       -55.69450237    105.458855    0.00000    0.00000   -3.77578    9    diag,B
  126      0.104D-02      0.154D-03       -55.69379164    105.614973    0.00000    0.00000   -4.04062    9    diag,B
  127      0.133D-02      0.907D-04       -55.69378456    105.618545    0.00000    0.00000   -4.04304    9    diag,B
  128      0.101D-03      0.742D-04       -55.69439722    105.478404    0.00000    0.00000   -3.80452    9    orth
  129      0.124D-02      0.135D-03       -55.69389095    105.600570    0.00000    0.00000   -3.99954    9    diag,B
  130      0.837D-03      0.473D-04       -55.69367151    105.623717    0.00000    0.00000   -4.06057    9    diag,B
  131      0.429D-03      0.944D-04       -55.69393367    105.583205    0.00000    0.00000   -3.97131    9    diag,B
  132      0.944D-03      0.628D-04       -55.69435354    105.485026    0.00000    0.00000   -3.81120    9    diag,B
  133      0.570D-03      0.119D-03       -55.69377909    105.605125    0.00000    0.00000   -4.02378    9    diag,B
  134      0.775D-03      0.973D-04       -55.69374552    105.610951    0.00000    0.00000   -4.03831    9    diag,B
  135      0.444D-03      0.106D-03       -55.69422346    105.513742    0.00000    0.00000   -3.85645    9    diag,B
  136      0.827D-03      0.981D-04       -55.69389236    105.600829    0.00000    0.00000   -4.00521    9    diag,B
  137      0.111D-02      0.639D-04       -55.69411081    105.553624    0.00000    0.00000   -3.91826    9    diag,B
  138      0.318D-03      0.638D-04       -55.69334020    105.619146    0.00000    0.00000   -4.09092    9    orth
  139      0.818D-03      0.201D-03       -55.69418416    105.534756    0.00000    0.00000   -3.88523    9    diag,B
  140      0.110D-02      0.706D-04       -55.69379489    105.615730    0.00000    0.00000   -4.03114    9    diag,B
  141      0.537D-03      0.581D-04       -55.69341128    105.623972    0.00000    0.00000   -4.08603    9    diag,B
  142      0.358D-03      0.153D-03       -55.69393486    105.589786    0.00000    0.00000   -3.98134    9    diag,B
  143      0.576D-03      0.611D-04       -55.69427868    105.505188    0.00000    0.00000   -3.84487    9    diag,B
  144      0.504D-03      0.116D-03       -55.69400544    105.567937    0.00000    0.00000   -3.94836    9    diag,B
  145      0.305D-03      0.835D-04       -55.69394554    105.580668    0.00000    0.00000   -3.97376    9    diag,B
  146      0.110D-03      0.877D-04       -55.69462105    105.440679    0.00000    0.00000   -3.75126    9    diag,B
  147      0.628D-03      0.173D-03       -55.69393074    105.583415    0.00000    0.00000   -3.97997    9    diag,B
  148      0.658D-03      0.916D-04       -55.69391951    105.586520    0.00000    0.00000   -3.98583    9    orth
  149      0.192D-03      0.918D-04       -55.69454298    105.452771    0.00000    0.00000   -3.76814    9    diag,B
  150      0.867D-03      0.159D-03       -55.69391434    105.590168    0.00000    0.00000   -3.99155    9    diag,B
  151      0.115D-02      0.879D-04       -55.69387699    105.600323    0.00000    0.00000   -4.00942    9    diag,B
  152      0.328D-03      0.837D-04       -55.69469009    105.425676    0.00000    0.00000   -3.72826    9    diag,B
  153      0.152D-02      0.186D-03       -55.69378809    105.615365    0.00000    0.00000   -4.04018    9    diag,B
  154      0.167D-02      0.891D-04       -55.69371654    105.623220    0.00000    0.00000   -4.05697    9    diag,B
  155      0.196D-03      0.909D-04       -55.69441401    105.475040    0.00000    0.00000   -3.80178    9    diag,B
  156      0.112D-02      0.146D-03       -55.69405529    105.563700    0.00000    0.00000   -3.93099    9    diag,B
  157      0.427D-03      0.495D-04       -55.69373557    105.626524    0.00000    0.00000   -4.05730    9    diag,B
  158      0.104D-02      0.707D-04       -55.69360724    105.626067    0.00000    0.00000   -4.06950    9    orth
  159      0.578D-03      0.107D-03       -55.69365264    105.628880    0.00000    0.00000   -4.07094    9    diag,B
  160      0.236D-03      0.994D-04       -55.69373684    105.626759    0.00000    0.00000   -4.06130    9    diag,B
  161      0.186D-03      0.839D-04       -55.69377886    105.622317    0.00000    0.00000   -4.05064    9    diag,B
  162      0.155D-03      0.778D-04       -55.69392962    105.589803    0.00000    0.00000   -3.98846    9    diag,B
  163      0.105D-02      0.747D-04       -55.69398663    105.565097    0.00000    0.00000   -3.94061    9    diag,B
  164      0.438D-03      0.644D-04       -55.69391417    105.600087    0.00000    0.00000   -4.00479    9    diag,B
  165      0.154D-02      0.553D-04       -55.69370748    105.624813    0.00000    0.00000   -4.05678    9    diag,B
  166      0.351D-03      0.712D-04       -55.69390963    105.596548    0.00000    0.00000   -3.99992    9    diag,B
  167      0.900D-03      0.743D-04       -55.69396992    105.579826    0.00000    0.00000   -3.97028    9    diag,B
  168      0.223D-03      0.790D-04       -55.69380780    105.612773    0.00000    0.00000   -4.03085    9    orth
  169      0.616D-03      0.672D-04       -55.69408521    105.545755    0.00000    0.00000   -3.91136    9    diag,B
  170      0.630D-03      0.890D-04       -55.69377258    105.616838    0.00000    0.00000   -4.03753    9    diag,B
  171      0.959D-03      0.619D-04       -55.69391501    105.592714    0.00000    0.00000   -3.99113    9    diag,B
  172      0.100D-02      0.677D-04       -55.69384728    105.609689    0.00000    0.00000   -4.02315    9    diag,B
  173      0.149D-03      0.666D-04       -55.69371523    105.613839    0.00000    0.00000   -4.03761    9    diag,B
  174      0.111D-02      0.763D-04       -55.69384083    105.612636    0.00000    0.00000   -4.02612    9    diag,B
  175      0.102D-02      0.559D-04       -55.69375022    105.622697    0.00000    0.00000   -4.05311    9    diag,B
  176      0.101D-02      0.772D-04       -55.69380895    105.613364    0.00000    0.00000   -4.03345    9    diag,B
  177      0.664D-03      0.791D-04       -55.69388548    105.598533    0.00000    0.00000   -3.99984    9    diag,B
  178      0.979D-03      0.626D-04       -55.69374848    105.619420    0.00000    0.00000   -4.04209    9    orth
  179      0.758D-03      0.610D-04       -55.69398357    105.574625    0.00000    0.00000   -3.96073    9    diag,B
  180      0.425D-03      0.804D-04       -55.69390340    105.592620    0.00000    0.00000   -3.99347    9    diag,B
  181      0.104D-02      0.728D-04       -55.69375812    105.615672    0.00000    0.00000   -4.03417    9    diag,B
  182      0.113D-02      0.597D-04       -55.69380425    105.614134    0.00000    0.00000   -4.03414    9    diag,B
  183      0.121D-02      0.670D-04       -55.69382857    105.615339    0.00000    0.00000   -4.03256    9    diag,B
  184      0.122D-02      0.628D-04       -55.69362784    105.627224    0.00000    0.00000   -4.07416    9    diag,B
  185      0.672D-03      0.114D-03       -55.69378889    105.618362    0.00000    0.00000   -4.04258    9    diag,B
  186      0.338D-03      0.712D-04       -55.69385497    105.610483    0.00000    0.00000   -4.02122    9    diag,B
  187      0.113D-02      0.584D-04       -55.69363776    105.628577    0.00000    0.00000   -4.07595    9    diag,B
  188      0.872D-03      0.110D-03       -55.69386129    105.609339    0.00000    0.00000   -4.02034    9    orth
  189      0.355D-03      0.601D-04       -55.69371308    105.625363    0.00000    0.00000   -4.06076    9    diag,B
  190      0.302D-03      0.875D-04       -55.69361257    105.628708    0.00000    0.00000   -4.07856    9    diag,B
  191      0.510D-03      0.114D-03       -55.69390076    105.601922    0.00000    0.00000   -4.00364    9    diag,B
  192      0.109D-02      0.573D-04       -55.69392360    105.597167    0.00000    0.00000   -3.99519    9    diag,B
  193      0.304D-03      0.569D-04       -55.69377057    105.615180    0.00000    0.00000   -4.03114    9    diag,B
  194      0.263D-03      0.579D-04       -55.69386359    105.607364    0.00000    0.00000   -4.01837    9    diag,B
  195      0.975D-03      0.591D-04       -55.69366950    105.628130    0.00000    0.00000   -4.07084    9    diag,B
  196      0.584D-03      0.101D-03       -55.69379717    105.618206    0.00000    0.00000   -4.03854    9    diag,B
  197      0.471D-03      0.680D-04       -55.69389847    105.601857    0.00000    0.00000   -4.00412    9    diag,B
  198      0.297D-03      0.546D-04       -55.69374089    105.620206    0.00000    0.00000   -4.04797    9    orth
  199      0.970D-03      0.678D-04       -55.69388203    105.605088    0.00000    0.00000   -4.00971    9    orth
  200      0.142D-02      0.613D-04       -55.69390018    105.613198    0.00000    0.00000   -4.00745    0    orth

 Final alpha occupancy:   5   2   2   0
 Final beta  occupancy:   4   2   2   0

 !RHF STATE 1.1 Energy                -55.693900179887
   --><property name="Energy" method="RHF" principal="true" stateSymmetry="1" stateNumber="1"
     value="-55.6939001798873"/><!--
 Nuclear energy                        15.18508518
 One-electron energy                 -123.68558443
 Two-electron energy                   52.80659907
 Virial quotient                       -2.25815911
 !RHF STATE 1.1 Dipole moment           0.00000000     0.00000000    -4.00744787
 Dipole moment /Debye                   0.00000000     0.00000000   -10.18524935
   --><property name="Dipole moment" method="RHF" principal="true" stateSymmetry="1"
     stateNumber="1" value="0.0 0.0 -4.00744786640438"/><!--

 ELECTRON ORBITALS
 =================


   Orb  Occ    Energy  Couls-En    Coefficients

                                   1 1s      1 1s      1 1s      1 1s      1 1s      1 1s      1 1s      1 1s      1 1s      1 1s
                                   1 1s      1 1s      1 1s      1 1s      1 1s      1 1s      1 1s      1 1s      1 1s      1 1s
                                   1 1s      1 1s      1 1s      1 1s      1 1s      1 1s      1 1s      1 1s      1 1s      1 1s
                                   1 1s      1 2pz     1 2pz     1 2pz     1 2pz     1 2pz     1 2pz     1 2pz     1 2pz     1 2pz
                                   1 2pz     1 2pz     1 2pz     1 2pz     1 2pz     1 2pz     1 2pz     1 2pz     1 2pz     1 2pz
                                   1 2pz     1 2pz     1 2pz     1 2pz     1 2pz     1 2pz     1 2pz     1 2pz     1 3d0     1 3d2+
                                   1 3d0     1 3d2+    1 3d0     1 3d2+    1 3d0     1 3d2+    1 3d0     1 3d2+    1 3d0     1 3d2+
                                   1 3d0     1 3d2+    1 3d0     1 3d2+    1 3d0     1 3d2+    1 3d0     1 3d2+    1 3d0     1 3d2+
                                   1 3d0     1 3d2+    1 3d0     1 3d2+    1 3d0     1 3d2+    1 3d0     1 3d2+    1 3d0     1 3d2+
                                   1 3d0     1 3d2+    1 3d0     1 3d2+    1 4f0     1 4f2+    1 4f0     1 4f2+    1 4f0     1 4f2+
                                   1 4f0     1 4f2+    1 4f0     1 4f2+    1 4f0     1 4f2+    1 4f0     1 4f2+    1 4f0     1 4f2+
                                   1 4f0     1 4f2+    1 4f0     1 4f2+    1 4f0     1 4f2+    1 4f0     1 4f2+    1 4f0     1 4f2+
                                   1 5g0     1 5g4+    1 5g2+    1 5g0     1 5g4+    1 5g2+    1 5g0     1 5g4+    1 5g2+    1 5g0
                                   1 5g4+    1 5g2+    1 5g0     1 5g4+    1 5g2+    1 5g0     1 5g4+    1 5g2+    1 6h2+    1 6h4+
                                   1 6h0     1 6h2+    1 6h4+    1 6h0     1 6h2+    1 6h4+    1 6h0     2 1s      2 1s      2 1s
                                   2 1s      2 1s      2 1s      2 1s      2 1s      2 1s      2 1s      2 1s      2 1s      2 1s
                                   2 2pz     2 2pz     2 2pz     2 2pz     2 2pz     2 2pz     2 2pz     2 2pz     2 3d0     2 3d2+
                                   2 3d0     2 3d2+    2 3d0     2 3d2+    2 3d0     2 3d2+    2 4f0     2 4f2+    2 4f0     2 4f2+


   1.1   2    -2.6446  -12.0622 -0.000000  0.000000 -0.000000  0.000000 -0.000000  0.000000 -0.000001  0.000003 -0.000007  0.000018
                                -0.000046  0.000110 -0.000256  0.000576 -0.001234  0.002538 -0.004760  0.007433 -0.007792 -0.000802
                                 0.190186 -0.382765 -0.241694  0.142926  0.788906  0.300073  0.058706 -0.033328  0.032777 -0.023078
                                 0.007332 -0.000000  0.000000 -0.000000  0.000000 -0.000000  0.000000 -0.000000  0.000000 -0.000000
                                 0.000000 -0.000000  0.000001 -0.000002  0.000005  0.000002 -0.000255  0.000096  0.000915  0.000228
                                 0.000179 -0.003478 -0.004436 -0.009580  0.005108 -0.002723  0.002591 -0.005242 -0.000000 -0.000000
                                 0.000000  0.000000 -0.000000 -0.000000  0.000000  0.000000 -0.000001 -0.000000  0.000002  0.000000
                                -0.000006 -0.000000  0.000013  0.000000 -0.000022 -0.000000  0.000006  0.000000  0.000241 -0.000000
                                 0.000307  0.000000 -0.004298 -0.000001 -0.004635 -0.000001  0.000691  0.000001 -0.000843 -0.000001
                                 0.002751  0.000001 -0.001327 -0.000000 -0.000000  0.000000  0.000000 -0.000000 -0.000000  0.000000
                                 0.000000 -0.000000  0.000001  0.000000  0.000001 -0.000000 -0.000074  0.000000 -0.000113  0.000000
                                -0.000990  0.000001 -0.000279  0.000000  0.000227 -0.000000  0.000446  0.000000 -0.000174 -0.000000
                                -0.000000  0.000000 -0.000000  0.000001 -0.000000  0.000000 -0.000013 -0.000000 -0.000000  0.000181
                                 0.000000 -0.000001  0.000129 -0.000000  0.000000 -0.000038  0.000000 -0.000000 -0.000000  0.000000
                                 0.000003  0.000000  0.000000 -0.000030 -0.000000 -0.000000  0.000087 -0.000000  0.000000 -0.000000
                                 0.000001 -0.000007  0.000230 -0.000306  0.000732  0.001612  0.001596 -0.002919 -0.000295 -0.000378
                                -0.000027 -0.000222 -0.000702 -0.001177 -0.001130  0.001147 -0.000015  0.000007  0.000079 -0.000000
                                 0.000376 -0.000000  0.000453 -0.000000  0.000009 -0.000000 -0.000014  0.000000 -0.000269  0.000000

   2.1   2    -1.4120   -9.5168 -0.000000  0.000000 -0.000000  0.000000 -0.000000  0.000000 -0.000000  0.000000 -0.000000  0.000001
                                -0.000001  0.000003 -0.000007  0.000017 -0.000036  0.000074 -0.000139  0.000217 -0.000229  0.000088
                                 0.004529 -0.009340 -0.007863  0.005880  0.033463 -0.004298 -0.013229 -0.004934 -0.012051 -0.008168
                                 0.004422 -0.000000  0.000000 -0.000000  0.000000 -0.000000  0.000000 -0.000000  0.000001 -0.000003
                                 0.000009 -0.000026  0.000070 -0.000187  0.000576 -0.003391  0.043066 -0.047707 -0.050089 -0.063625
                                 0.161038  0.531925 -0.033109  0.401526 -0.007944  0.065319 -0.012858  0.008779 -0.000000 -0.000000
                                 0.000000  0.000000 -0.000000 -0.000000  0.000000  0.000000 -0.000001 -0.000000  0.000002  0.000000
                                -0.000005 -0.000000  0.000010  0.000000 -0.000012 -0.000000 -0.000056  0.000000  0.000710 -0.000000
                                 0.000411  0.000000 -0.008807  0.000002 -0.017189  0.000002 -0.006888 -0.000002 -0.000571  0.000001
                                -0.005856 -0.000001  0.003180  0.000000 -0.000000  0.000000  0.000000 -0.000000 -0.000000  0.000000
                                 0.000001 -0.000000  0.000003  0.000000  0.000008 -0.000000 -0.000278 -0.000000 -0.000519 -0.000000
                                -0.003289 -0.000001 -0.003101 -0.000002 -0.001539 -0.000001 -0.001157  0.000000  0.000485 -0.000000
                                -0.000007 -0.000000  0.000000  0.000036  0.000000 -0.000000 -0.000128 -0.000000  0.000000 -0.000421
                                -0.000000 -0.000000 -0.000617  0.000000 -0.000000  0.000274 -0.000000  0.000000  0.000000 -0.000000
                                 0.000005  0.000000 -0.000000 -0.000117 -0.000000  0.000000  0.000253 -0.000000  0.000000 -0.000002
                                 0.000015 -0.000130  0.004996 -0.009718  0.016853  0.048085  0.038025  0.021082 -0.004575 -0.008043
[...]
                                 0.000001 -0.000000 -0.000003  0.000000  0.000012 -0.000000 -0.000042  0.000000  0.000127 -0.000000
                                -0.000334  0.000000  0.000789 -0.000000 -0.001685  0.000001  0.004020 -0.000002 -0.013985  0.000008
                                 0.008270 -0.000005  0.074539 -0.000046  0.138625 -0.000084  0.068429 -0.000089  1.016322 -0.000116
                                -1.187338  0.000158  0.902948 -0.000159  0.000000 -0.000000 -0.000003  0.000000  0.000011 -0.000000
                                -0.000039  0.000000  0.000115 -0.000000 -0.000265  0.000000  0.000302  0.000000 -0.001948  0.000000
                                 0.001289  0.000001 -0.016825  0.000004 -0.027243  0.000013  0.113270  0.000003 -0.067056  0.000021
                                -0.000009 -0.000000  0.000000  0.000039  0.000000 -0.000000 -0.000397 -0.000000  0.000000 -0.013190
                                -0.000000  0.000004  0.022887  0.000000  0.000003 -0.003285 -0.000000 -0.000000  0.000000  0.000000
                                -0.000033 -0.000000 -0.000000  0.000334  0.000000  0.000000 -0.001057 -0.000000  0.000001 -0.000004
                                 0.000022 -0.000143  0.003091  0.003828  0.012188  0.003004  0.028578 -0.595463 -0.008959 -0.005829
                                 0.000179  0.001432  0.006599  0.009119 -0.009471  0.167305  0.000455 -0.000042  0.000534 -0.000000
                                 0.002340 -0.000000  0.028333  0.000002  0.000042  0.000000  0.000290  0.000000 -0.003978 -0.000000

   7.1   0     0.0286   -2.0155  0.000000 -0.000000  0.000000 -0.000000  0.000000 -0.000000  0.000000 -0.000001  0.000002 -0.000004
                                 0.000010 -0.000024  0.000057 -0.000127  0.000271 -0.000554  0.001027 -0.001579  0.001651 -0.005921
                                 0.031273 -0.065756  0.061411 -0.136376  0.356856 -0.658081  2.004799 -3.791882  9.150169-15.371662
                                 9.109926 -0.000000  0.000000 -0.000000  0.000000 -0.000000  0.000000 -0.000000  0.000001 -0.000002
                                 0.000007 -0.000021  0.000057 -0.000150  0.000412 -0.001091  0.003399 -0.009257  0.017337 -0.001358
                                -0.004729 -0.141749  0.143510 -0.179840 24.496173  0.133289  0.008001-24.279149  0.000000  0.000000
                                -0.000000 -0.000000  0.000001  0.000000 -0.000005 -0.000000  0.000018  0.000000 -0.000054 -0.000000
                                 0.000143  0.000001 -0.000337 -0.000002  0.000720  0.000004 -0.001716 -0.000009  0.005959  0.000032
                                -0.003457 -0.000019 -0.032132 -0.000165 -0.056074 -0.000319 -0.057766 -0.000256 -0.484798 -0.001362
                                 1.054823  0.002358 -0.803738 -0.001876  0.000000  0.000000 -0.000000 -0.000000  0.000002  0.000000
                                -0.000006 -0.000000  0.000012 -0.000000 -0.000038 -0.000000  0.000288  0.000001  0.000290  0.000001
                                 0.001770  0.000004  0.003189  0.000014 -0.000892  0.000073  0.056249 -0.000022  0.079328  0.000181
                                 0.000009 -0.000000  0.000000 -0.000042  0.000000 -0.000000  0.000308 -0.000000  0.000001  0.000885
                                -0.000000  0.000009  0.011774  0.000000  0.000010  0.022675 -0.000000  0.000001  0.000000 -0.000000
                                 0.000007 -0.000000  0.000000 -0.000055  0.000000 -0.000000  0.000257 -0.000000  0.000000 -0.000003
                                 0.000017 -0.000103  0.001397  0.007392  0.005495 -0.014947  0.025815 -0.358471 -0.007382 -0.003078
                                -0.000565 -0.004802 -0.016766 -0.025356 -0.037533  0.033579 -0.000477  0.000146  0.000061 -0.000001
                                -0.003945 -0.000003  0.007834 -0.000005 -0.000058 -0.000000 -0.000102  0.000000  0.001968  0.000001

                                   1 2px     1 2px     1 2px     1 2px     1 2px     1 2px     1 2px     1 2px     1 2px     1 2px
                                   1 2px     1 2px     1 2px     1 2px     1 2px     1 2px     1 2px     1 2px     1 2px     1 2px
                                   1 2px     1 2px     1 2px     1 2px     1 2px     1 2px     1 2px     1 3d1+    1 3d1+    1 3d1+
                                   1 3d1+    1 3d1+    1 3d1+    1 3d1+    1 3d1+    1 3d1+    1 3d1+    1 3d1+    1 3d1+    1 3d1+
                                   1 3d1+    1 3d1+    1 3d1+    1 3d1+    1 3d1+    1 4f1+    1 4f3+    1 4f1+    1 4f3+    1 4f1+
                                   1 4f3+    1 4f1+    1 4f3+    1 4f1+    1 4f3+    1 4f1+    1 4f3+    1 4f1+    1 4f3+    1 4f1+
                                   1 4f3+    1 4f1+    1 4f3+    1 4f1+    1 4f3+    1 4f1+    1 4f3+    1 4f1+    1 4f3+    1 4f1+
                                   1 4f3+    1 5g1+    1 5g3+    1 5g1+    1 5g3+    1 5g1+    1 5g3+    1 5g1+    1 5g3+    1 5g1+
                                   1 5g3+    1 5g1+    1 5g3+    1 6h1+    1 6h3+    1 6h5+    1 6h1+    1 6h3+    1 6h5+    1 6h1+
                                   1 6h3+    1 6h5+    2 2px     2 2px     2 2px     2 2px     2 2px     2 2px     2 2px     2 2px
                                   2 3d1+    2 3d1+    2 3d1+    2 3d1+    2 4f1+    2 4f3+    2 4f1+    2 4f3+

   1.2   2    -1.4241   -9.4428 -0.000000  0.000000 -0.000000  0.000000 -0.000000  0.000000 -0.000000  0.000001 -0.000003  0.000009
                                -0.000025  0.000067 -0.000181  0.000559 -0.003352  0.043004 -0.047349 -0.051016 -0.063706  0.160919
                                 0.533916 -0.029053  0.408719  0.048094  0.068680 -0.004277 -0.046132  0.000000 -0.000000  0.000000
                                -0.000000  0.000000 -0.000001  0.000002 -0.000007  0.000019 -0.000082  0.000462  0.000288 -0.004425
                                -0.012829 -0.004934  0.002483 -0.002998  0.000703 -0.000000 -0.000000  0.000000  0.000000 -0.000002
                                -0.000000  0.000005  0.000000 -0.000007 -0.000000  0.000032  0.000000 -0.000356  0.000000 -0.000540
                                 0.000000 -0.003401 -0.000000 -0.003633  0.000000 -0.000241  0.000000 -0.000164 -0.000000 -0.000072
                                 0.000000 -0.000007  0.000000  0.000038 -0.000000 -0.000180  0.000000 -0.000635  0.000000  0.000121
                                -0.000000 -0.000166  0.000000 -0.000000  0.000000 -0.000000 -0.000060  0.000000 -0.000000  0.000024
                                 0.000000 -0.000000  0.000087  0.000751  0.002288  0.003779  0.003328  0.000857  0.000019 -0.000023
                                -0.000148 -0.000906 -0.001085 -0.000017  0.000077 -0.000000  0.000505 -0.000000

   2.2   2    -0.3058   -6.5633  0.000000 -0.000000  0.000000 -0.000000  0.000000 -0.000000  0.000000 -0.000000  0.000000 -0.000000
                                 0.000001 -0.000004  0.000010 -0.000030  0.000203 -0.002841  0.003188  0.003449  0.004479 -0.012581
                                -0.039839  0.002102 -0.038793 -0.101609  0.030981  0.067287  0.100811 -0.000000  0.000000 -0.000002
                                 0.000007 -0.000026  0.000077 -0.000202  0.000478 -0.001022  0.002445 -0.008526  0.004822  0.045908
                                 0.083962  0.095664 -0.005735  0.051687 -0.023000 -0.000000  0.000000  0.000001 -0.000000 -0.000005
                                 0.000000  0.000019 -0.000000 -0.000068  0.000000  0.000131 -0.000000  0.000372  0.000000  0.002332
                                -0.000000  0.002612  0.000000  0.015308 -0.000000  0.011442 -0.000001  0.007620 -0.000001 -0.004300
                                -0.000000  0.000007 -0.000000 -0.000028  0.000000  0.000414 -0.000000  0.005415 -0.000001 -0.001445
                                -0.000001  0.001399 -0.000000  0.000065  0.000000 -0.000000 -0.000509 -0.000000  0.000000  0.001970
                                 0.000000 -0.000000  0.008989  0.077155  0.254062  0.397902  0.350901  0.097172  0.005107 -0.002365
                                -0.002556 -0.011030 -0.020332 -0.000268  0.000604 -0.000002  0.005256 -0.000001

   3.2   0    -0.0177   -3.0416  0.000000 -0.000000  0.000000 -0.000000  0.000000 -0.000000  0.000000 -0.000001  0.000002 -0.000006
                                 0.000018 -0.000049  0.000131 -0.000375  0.001472 -0.013212  0.018221  0.002689  0.018333 -0.045704
                                -0.075950 -0.068298 -0.056247 -9.611288  0.015885  0.513156 10.054655  0.000000 -0.000000  0.000002
                                -0.000009  0.000032 -0.000094  0.000248 -0.000586  0.001251 -0.002978  0.010321 -0.006047 -0.054990
                                -0.097110 -0.111243 -0.465584  0.650627 -0.584251  0.000000 -0.000000 -0.000000  0.000000  0.000001
                                -0.000000 -0.000002  0.000000  0.000004 -0.000000 -0.000017  0.000000  0.000162  0.000000  0.000164
                                 0.000001  0.001206  0.000001  0.002531  0.000005  0.004890  0.000008 -0.008012  0.000001  0.009777
                                 0.000003  0.000009 -0.000000 -0.000044  0.000000  0.000359 -0.000000  0.004773 -0.000001  0.003497
                                -0.000000 -0.000499  0.000001  0.000004 -0.000000  0.000000 -0.000034  0.000000 -0.000000  0.000198
                                -0.000000  0.000000 -0.000159 -0.001374 -0.004458 -0.007076 -0.004727  0.024566 -0.000076  0.000042
                                 0.000090  0.001363 -0.001197  0.000025 -0.000052  0.000000 -0.000902 -0.000000

   4.2   0     0.0517   -2.1097 -0.000000  0.000000 -0.000000  0.000000 -0.000000  0.000000 -0.000001  0.000004 -0.000013  0.000041
                                -0.000120  0.000328 -0.000870  0.002418 -0.007277  0.038397 -0.072250  0.068215 -0.039258  0.064326
                                -0.463234  0.746320 -0.677349 69.307874  0.523137 -0.892409-68.874734  0.000000 -0.000000  0.000001
                                -0.000006  0.000021 -0.000062  0.000166 -0.000402  0.000891 -0.002426  0.010281 -0.003833 -0.072554
                                -0.099843 -0.228147  0.701697 -1.527071  0.985488 -0.000000  0.000000  0.000001 -0.000000 -0.000003
                                 0.000000  0.000010  0.000000 -0.000035 -0.000000  0.000068  0.000000  0.000187  0.000000  0.001108
                                 0.000000  0.001420  0.000001  0.009588  0.000002  0.014950  0.000006  0.049484 -0.000003  0.156614
                                 0.000013  0.000011 -0.000000 -0.000054  0.000000  0.000452 -0.000000  0.005703 -0.000001  0.006135
                                 0.000001  0.051898 -0.000005  0.000006 -0.000000  0.000000 -0.000053  0.000000 -0.000000  0.000324
                                -0.000000  0.000000  0.000708  0.005827  0.023607  0.031668  0.048578 -0.236707  0.001196 -0.000176
                                 0.000279  0.000207  0.003899 -0.000004 -0.000078 -0.000000 -0.000591 -0.000000

                                   1 2py     1 2py     1 2py     1 2py     1 2py     1 2py     1 2py     1 2py     1 2py     1 2py
                                   1 2py     1 2py     1 2py     1 2py     1 2py     1 2py     1 2py     1 2py     1 2py     1 2py
                                   1 2py     1 2py     1 2py     1 2py     1 2py     1 2py     1 2py     1 3d1-    1 3d1-    1 3d1-
                                   1 3d1-    1 3d1-    1 3d1-    1 3d1-    1 3d1-    1 3d1-    1 3d1-    1 3d1-    1 3d1-    1 3d1-
                                   1 3d1-    1 3d1-    1 3d1-    1 3d1-    1 3d1-    1 4f1-    1 4f3-    1 4f1-    1 4f3-    1 4f1-
                                   1 4f3-    1 4f1-    1 4f3-    1 4f1-    1 4f3-    1 4f1-    1 4f3-    1 4f1-    1 4f3-    1 4f1-
                                   1 4f3-    1 4f1-    1 4f3-    1 4f1-    1 4f3-    1 4f1-    1 4f3-    1 4f1-    1 4f3-    1 4f1-
                                   1 4f3-    1 5g1-    1 5g3-    1 5g1-    1 5g3-    1 5g1-    1 5g3-    1 5g1-    1 5g3-    1 5g1-
                                   1 5g3-    1 5g1-    1 5g3-    1 6h1-    1 6h3-    1 6h5-    1 6h1-    1 6h3-    1 6h5-    1 6h1-
                                   1 6h3-    1 6h5-    2 2py     2 2py     2 2py     2 2py     2 2py     2 2py     2 2py     2 2py
                                   2 3d1-    2 3d1-    2 3d1-    2 3d1-    2 4f1-    2 4f3-    2 4f1-    2 4f3-

   1.3   2    -1.4241   -9.4428 -0.000000  0.000000 -0.000000  0.000000 -0.000000  0.000000 -0.000000  0.000001 -0.000003  0.000009
                                -0.000025  0.000067 -0.000181  0.000559 -0.003352  0.043004 -0.047349 -0.051016 -0.063706  0.160919
                                 0.533916 -0.029052  0.408719  0.048096  0.068677 -0.004279 -0.046134  0.000000 -0.000000  0.000000
                                -0.000000  0.000000 -0.000001  0.000002 -0.000007  0.000019 -0.000082  0.000462  0.000288 -0.004429
                                -0.012833 -0.004930  0.002481 -0.002995  0.000702 -0.000000 -0.000000  0.000000  0.000000 -0.000002
                                -0.000000  0.000005  0.000000 -0.000007 -0.000000  0.000032  0.000000 -0.000356  0.000000 -0.000539
                                 0.000000 -0.003400 -0.000000 -0.003629  0.000000 -0.000239  0.000000 -0.000165 -0.000000 -0.000071
                                 0.000000 -0.000007  0.000000  0.000038 -0.000000 -0.000179  0.000000 -0.000634  0.000000  0.000121
                                -0.000000 -0.000166  0.000000 -0.000000  0.000000 -0.000000 -0.000059  0.000000 -0.000000  0.000024
                                 0.000000 -0.000000  0.000087  0.000751  0.002289  0.003781  0.003330  0.000857  0.000019 -0.000023
                                -0.000148 -0.000906 -0.001086 -0.000017  0.000077 -0.000000  0.000505 -0.000000

   2.3   2    -0.3057   -6.5626  0.000000 -0.000000  0.000000 -0.000000  0.000000 -0.000000  0.000000 -0.000000  0.000000 -0.000000
                                 0.000001 -0.000004  0.000010 -0.000030  0.000203 -0.002843  0.003190  0.003452  0.004482 -0.012590
                                -0.039874  0.002112 -0.038831 -0.101466  0.031008  0.067411  0.100733 -0.000000  0.000000 -0.000002
                                 0.000007 -0.000026  0.000077 -0.000202  0.000479 -0.001024  0.002449 -0.008541  0.004829  0.045994
                                 0.084112  0.095830 -0.005682  0.051714 -0.022969 -0.000000  0.000000  0.000001 -0.000000 -0.000005
                                 0.000000  0.000019 -0.000000 -0.000068  0.000000  0.000131 -0.000000  0.000372  0.000000  0.002333
                                -0.000000  0.002614  0.000000  0.015310 -0.000000  0.011448 -0.000001  0.007625 -0.000001 -0.004296
                                -0.000000  0.000007 -0.000000 -0.000028  0.000000  0.000414 -0.000000  0.005412 -0.000001 -0.001443
                                -0.000001  0.001399 -0.000000  0.000065  0.000000 -0.000000 -0.000509 -0.000000  0.000000  0.001970
                                 0.000000 -0.000000  0.008986  0.077131  0.253981  0.397787  0.350830  0.097184  0.005105 -0.002364
                                -0.002557 -0.011036 -0.020336 -0.000268  0.000604 -0.000002  0.005257 -0.000001

   3.3   0    -0.0177   -3.0414  0.000000 -0.000000  0.000000 -0.000000  0.000000 -0.000000  0.000000 -0.000001  0.000002 -0.000006
                                 0.000018 -0.000049  0.000131 -0.000375  0.001473 -0.013213  0.018225  0.002682  0.018334 -0.045703
                                -0.075901 -0.068351 -0.056183 -9.615468  0.015824  0.513142 10.058856  0.000000 -0.000000  0.000002
                                -0.000009  0.000032 -0.000094  0.000248 -0.000586  0.001251 -0.002979  0.010322 -0.006048 -0.054996
                                -0.097124 -0.111232 -0.465687  0.650856 -0.584425  0.000000 -0.000000 -0.000000  0.000000  0.000001
                                -0.000000 -0.000002  0.000000  0.000004 -0.000000 -0.000017  0.000000  0.000162  0.000000  0.000165
                                 0.000001  0.001207  0.000001  0.002536  0.000005  0.004902  0.000008 -0.008012  0.000001  0.009786
                                 0.000003  0.000009 -0.000000 -0.000044  0.000000  0.000359 -0.000000  0.004772 -0.000001  0.003498
                                -0.000000 -0.000499  0.000001  0.000004 -0.000000  0.000000 -0.000034  0.000000 -0.000000  0.000198
                                -0.000000  0.000000 -0.000159 -0.001372 -0.004451 -0.007064 -0.004718  0.024577 -0.000076  0.000042
                                 0.000090  0.001364 -0.001197  0.000025 -0.000052  0.000000 -0.000902 -0.000000

   4.3   0     0.0517   -2.1098 -0.000000  0.000000 -0.000000  0.000000 -0.000000  0.000000 -0.000001  0.000004 -0.000013  0.000041
                                -0.000120  0.000328 -0.000870  0.002418 -0.007277  0.038396 -0.072249  0.068216 -0.039257  0.064324
                                -0.463243  0.746325 -0.677360 69.308272  0.523134 -0.892412-68.875046  0.000000 -0.000000  0.000001
                                -0.000006  0.000021 -0.000062  0.000166 -0.000402  0.000891 -0.002426  0.010282 -0.003833 -0.072561
                                -0.099850 -0.228152  0.701734 -1.527142  0.985525 -0.000000  0.000000  0.000001 -0.000000 -0.000003
                                 0.000000  0.000010  0.000000 -0.000035 -0.000000  0.000068  0.000000  0.000188  0.000000  0.001108
                                 0.000000  0.001421  0.000001  0.009593  0.000002  0.014963  0.000006  0.049482 -0.000003  0.156638
                                 0.000013  0.000011 -0.000000 -0.000054  0.000000  0.000452 -0.000000  0.005704 -0.000001  0.006138
                                 0.000001  0.051895 -0.000005  0.000006 -0.000000  0.000000 -0.000053  0.000000 -0.000000  0.000325
                                -0.000000  0.000000  0.000710  0.005836  0.023638  0.031719  0.048624 -0.236696  0.001197 -0.000176
                                 0.000279  0.000206  0.003900 -0.000004 -0.000078 -0.000000 -0.000591 -0.000000

                                   1 3d2-    1 3d2-    1 3d2-    1 3d2-    1 3d2-    1 3d2-    1 3d2-    1 3d2-    1 3d2-    1 3d2-
                                   1 3d2-    1 3d2-    1 3d2-    1 3d2-    1 3d2-    1 3d2-    1 3d2-    1 3d2-    1 4f2-    1 4f2-
                                   1 4f2-    1 4f2-    1 4f2-    1 4f2-    1 4f2-    1 4f2-    1 4f2-    1 4f2-    1 4f2-    1 4f2-
                                   1 4f2-    1 5g2-    1 5g4-    1 5g2-    1 5g4-    1 5g2-    1 5g4-    1 5g2-    1 5g4-    1 5g2-
                                   1 5g4-    1 5g2-    1 5g4-    1 6h4-    1 6h2-    1 6h4-    1 6h2-    1 6h4-    1 6h2-    2 3d2-
                                   2 3d2-    2 3d2-    2 3d2-    2 4f2-    2 4f2-

   1.4   0     0.0317   -3.6083  0.000000 -0.000001  0.000006 -0.000023  0.000081 -0.000242  0.000636 -0.001501  0.003198 -0.007544
                                 0.025733 -0.015705 -0.132603 -0.259914 -0.195416 -1.243816  2.182881 -1.709694  0.000000 -0.000000
                                 0.000002 -0.000005  0.000004 -0.000031  0.000506  0.000886  0.002750  0.010098  0.061740 -0.021426
                                 0.157545  0.000014 -0.000000 -0.000064  0.000000  0.000553 -0.000000  0.007574 -0.000002  0.008337
                                -0.000001  0.002384  0.000001 -0.000000  0.000001  0.000000 -0.000022 -0.000000  0.000200 -0.000428
                                -0.002046 -0.002776 -0.000039  0.000088  0.001017

   2.4   0     0.0793   -2.6872  0.000000 -0.000000  0.000001 -0.000004  0.000015 -0.000046  0.000127 -0.000333  0.000824 -0.002996
