<?xml version="1.0"?>
<molpro xmlns="http://www.molpro.net/schema/molpro-output"
  xmlns:xsd="http://www.w3.org/1999/XMLSchema"
  xmlns:cml="http://www.xml-cml.org/schema"
  xmlns:stm="http://www.xml-cml.org/schema"
  xmlns:xhtml="http://www.w3.org/1999/xhtml">
 <!--

 Nodes     nprocs
 nid01574    11
 Number of processes for MPI-2 version of Molpro:   nprocs(total)=   12   nprocs(compute)=   11   nprocs(helper)=    1

 Using customized tuning parameters: mindgm=7; mindgv=16; mindgc=1; mindgr=1; noblas=0; minvec=7
 default implementation of scratch files=sf

 --><job>
  <!--

 Variables initialized (889), CPU time= 0.02 sec
 Commands  initialized (702), CPU time= 0.01 sec, 572 directives.
 Default parameters read. Elapsed time= 0.12 sec

 Checking input...
 Passed
1


                                         ***  PROGRAM SYSTEM MOLPRO  ***
                                       Copyright, TTI GmbH Stuttgart, 2015
                                    Version 2015.1 linked Dec 29 2018 15:55:43


 **********************************************************************************************************************************
 LABEL *   Calculation for Lu atom, singlet and triplet
  64 bit mpp version                                                                     DATE: 16-Apr-23          TIME: 20:39:17
 **********************************************************************************************************************************

 SHA1:             19cd028119e0e09f93f0674bd8af7968d9b3eff6
 **********************************************************************************************************************************
  -->
  <!--

 THRESHOLDS:

 ZERO    =  1.00D-12  ONEINT  =  1.00D-12  TWOINT  =  1.00D-15  PREFAC  =  1.00D-14  LOCALI  =  1.00D-09  EORDER  =  1.00D-04
 ENERGY  =  0.00D+00  ETEST   =  0.00D+00  EDENS   =  0.00D+00  THRDEDEF=  1.00D-06  GRADIENT=  1.00D-02  STEP    =  1.00D-03
 ORBITAL =  1.00D-05  CIVEC   =  1.00D-05  COEFF   =  1.00D-04  PRINTCI =  5.00D-02  PUNCHCI =  9.90D+01  OPTGRAD =  3.00D-04
 OPTENERG=  1.00D-06  OPTSTEP =  3.00D-04  THRGRAD =  1.00D-10  COMPRESS=  1.00D-11  VARMIN  =  1.00D-07  VARMAX  =  1.00D-03
 THRDOUB =  0.00D+00  THRDIV  =  1.00D-05  THRRED  =  1.00D-07  THRPSP  =  1.00D+00  THRDC   =  1.00D-10  THRCS   =  1.00D-10
 THRNRM  =  1.00D-08  THREQ   =  0.00D+00  THRDE   =  1.00D+00  THRREF  =  1.00D-05  SPARFAC =  1.00D+00  THRDLP  =  1.00D-07
 THRDIA  =  1.00D-10  THRDLS  =  1.00D-07  THRGPS  =  0.00D+00  THRKEX  =  0.00D+00  THRDIS  =  2.00D-01  THRVAR  =  1.00D-10
 THRLOC  =  1.00D-06  THRGAP  =  1.00D-06  THRLOCT = -1.00D+00  THRGAPT = -1.00D+00  THRORB  =  1.00D-06  THRMLTP =  0.00D+00
 THRCPQCI=  1.00D-10  KEXTA   =  0.00D+00  THRCOARS=  0.00D+00  SYMTOL  =  1.00D-06  GRADTOL =  1.00D-06  THROVL  =  1.00D-08
 THRORTH =  1.00D-08  GRID    =  1.00D-06  GRIDMAX =  1.00D-03  DTMAX   =  0.00D+00  THROCCDE=  1.00D-01  THROCCDE=  1.00D-01



 THRESHOLDS:

 ZERO    =  1.00D-12  ONEINT  =  1.00D-15  TWOINT  =  1.00D-15  PREFAC  =  1.00D-14  LOCALI  =  1.00D-09  EORDER  =  1.00D-04
 ENERGY  =  0.00D+00  ETEST   =  0.00D+00  EDENS   =  0.00D+00  THRDEDEF=  1.00D-06  GRADIENT=  1.00D-02  STEP    =  1.00D-03
 ORBITAL =  1.00D-05  CIVEC   =  1.00D-05  COEFF   =  1.00D-04  PRINTCI =  5.00D-02  PUNCHCI =  9.90D+01  OPTGRAD =  3.00D-04
 OPTENERG=  1.00D-06  OPTSTEP =  3.00D-04  THRGRAD =  1.00D-10  COMPRESS=  1.00D-11  VARMIN  =  1.00D-07  VARMAX  =  1.00D-03
 THRDOUB =  0.00D+00  THRDIV  =  1.00D-05  THRRED  =  1.00D-07  THRPSP  =  1.00D+00  THRDC   =  1.00D-10  THRCS   =  1.00D-10
 THRNRM  =  1.00D-08  THREQ   =  0.00D+00  THRDE   =  1.00D+00  THRREF  =  1.00D-05  SPARFAC =  1.00D+00  THRDLP  =  1.00D-07
 THRDIA  =  1.00D-10  THRDLS  =  1.00D-07  THRGPS  =  0.00D+00  THRKEX  =  0.00D+00  THRDIS  =  2.00D-01  THRVAR  =  1.00D-10
 THRLOC  =  1.00D-06  THRGAP  =  1.00D-06  THRLOCT = -1.00D+00  THRGAPT = -1.00D+00  THRORB  =  1.00D-06  THRMLTP =  0.00D+00
 THRCPQCI=  1.00D-10  KEXTA   =  0.00D+00  THRCOARS=  0.00D+00  SYMTOL  =  1.00D-06  GRADTOL =  1.00D-06  THROVL  =  1.00D-08
 THRORTH =  1.00D-08  GRID    =  1.00D-06  GRIDMAX =  1.00D-03  DTMAX   =  0.00D+00  THROCCDE=  1.00D-01  THROCCDE=  1.00D-01



Geometry recognized as XYZ


 Variable memory set to 1000000000 words,  buffer space   230000 words

 SETTING BASIS          =    USERDEF

 DO I                   =        10.00000000

 Running procedure=IIIEF1
  --><jobstep command="RHF-SCF" commandset="SCFPRO">
   <!--


 Recomputing integrals since basis changed


 Using spherical harmonics



 PROGRAM * SEWARD (Integral evaluation for generally contracted gaussian basis sets)     Author: Roland Lindh, 1990

 Geometry written to block  1 of record 700

 Orientation using atomic masses
 Molecule type: Atom
 Symmetry elements: X,Y,Z
 Rotational constants:       0.0000000      0.0000000      0.0000000 GHz  (calculated with average atomic masses)

 Point group  D2h


   --><cml:molecule>
    <cml:symmetry pointGroup="D2h"/>
    <cml:atomArray>
     <cml:atom id="a1" elementType="Lu" x3="0.0" y3="0.0" z3="0.0"/>
    </cml:atomArray>
    <cml:bondArray>
    </cml:bondArray>
   </cml:molecule><!--

 ATOMIC COORDINATES

 NR  ATOM    CHARGE       X              Y              Z

   1  LU     11.00    0.000000000    0.000000000    0.000000000

 NUCLEAR CHARGE:                   11
 NUMBER OF PRIMITIVE AOS:         332
 NUMBER OF SYMMETRY AOS:          267
 NUMBER OF CONTRACTIONS:          267   (  53Ag  +  49B3u +  49B2u +  17B1g +  49B1u +  17B2g +  17B3g +  16Au  )
 NUMBER OF CORE ORBITALS:           0   (   0Ag  +   0B3u +   0B2u +   0B1g +   0B1u +   0B2g +   0B3g +   0Au  )
 NUMBER OF VALENCE ORBITALS:       10   (   4Ag  +   1B3u +   1B2u +   1B1g +   1B1u +   1B2g +   1B3g +   0Au  )


 NUCLEAR REPULSION ENERGY    0.00000000

 EXTRA SYMMETRY OF AOS IN SYMMETRY 1:   1 1 1 1 1 1 1 1 1 1   1 1 1 1 1 1 1 1 1 2   3 2 3 2 3 2 3 2 3 2   3 2 3 2 3 2 3 2 3 2
                                        3 2 3 2 3 2 3 2 3 2   3 2 3
 EXTRA SYMMETRY OF AOS IN SYMMETRY 2:   1 1 1 1 1 1 1 1 1 1   1 1 1 1 1 1 1 2 3 2   3 2 3 2 3 2 3 2 3 2   3 2 3 2 3 2 3 2 3 2
                                        3 2 3 2 3 2 3 2 3
 EXTRA SYMMETRY OF AOS IN SYMMETRY 3:   1 1 1 1 1 1 1 1 1 1   1 1 1 1 1 1 1 2 3 2   3 2 3 2 3 2 3 2 3 2   3 2 3 2 3 2 3 2 3 2
                                        3 2 3 2 3 2 3 2 3
 EXTRA SYMMETRY OF AOS IN SYMMETRY 5:   1 1 1 1 1 1 1 1 1 1   1 1 1 1 1 1 1 2 3 2   3 2 3 2 3 2 3 2 3 2   3 2 3 2 3 2 3 2 3 2
                                        3 2 3 2 3 2 3 2 3

 Eigenvalues of metric

         1 0.397E-02 0.551E-02 0.846E-02 0.129E-01 0.129E-01 0.135E-01 0.186E-01 0.186E-01
         2 0.918E-02 0.133E-01 0.212E-01 0.237E-01 0.237E-01 0.337E-01 0.337E-01 0.349E-01
         3 0.918E-02 0.133E-01 0.212E-01 0.237E-01 0.237E-01 0.337E-01 0.337E-01 0.349E-01
         4 0.129E-01 0.186E-01 0.295E-01 0.480E-01 0.777E-01 0.124E+00 0.195E+00 0.299E+00
         5 0.918E-02 0.133E-01 0.212E-01 0.237E-01 0.237E-01 0.337E-01 0.337E-01 0.349E-01
         6 0.129E-01 0.186E-01 0.295E-01 0.480E-01 0.777E-01 0.124E+00 0.195E+00 0.299E+00
         7 0.129E-01 0.186E-01 0.295E-01 0.480E-01 0.777E-01 0.124E+00 0.195E+00 0.299E+00
         8 0.237E-01 0.337E-01 0.526E-01 0.839E-01 0.133E+00 0.206E+00 0.314E+00 0.464E+00


 Contracted 2-electron integrals neglected if value below      1.0D-15
 AO integral compression algorithm  1   Integral accuracy      1.0D-15

     772.276 MB (compressed) written to integral file ( 43.5%)

     Node minimum: 20.709 MB, node maximum: 173.539 MB


 NUMBER OF SORTED TWO-ELECTRON INTEGRALS:    7461019.     BUFFER LENGTH:  32768
 NUMBER OF SEGMENTS:   1  SEGMENT LENGTH:    7461019      RECORD LENGTH: 524288

 Memory used in sort:       8.02 MW

 SORT1 READ   222234615. AND WROTE     5271250. INTEGRALS IN     16 RECORDS. CPU TIME:     3.89 SEC, REAL TIME:     4.01 SEC
 SORT2 READ    57786246. AND WROTE    82656262. INTEGRALS IN   1859 RECORDS. CPU TIME:     0.54 SEC, REAL TIME:     0.89 SEC

 Node minimum:     7459985.  Node maximum:     7573916. integrals

 OPERATOR DM      FOR CENTER  0  COORDINATES:    0.000000    0.000000    0.000000


 **********************************************************************************************************************************
 DATASETS  * FILE   NREC   LENGTH (MB)   RECORD NAMES
              1      19       20.39       500      610      700      900      950      970     1000      129      960     1100
                                          VAR    BASINP    GEOM    SYMINP    ZMAT    AOBASIS   BASIS     P2S    ABASIS      S
                                         1400     1410     1420     1200     1210     1080     1600     1650     1700
                                           T        V       ECP      H0       H01     AOSYM     SMH    MOLCAS    OPER

 PROGRAMS   *        TOTAL       INT
 CPU TIMES  *        24.53     24.14
 REAL TIME  *        26.52 SEC
 DISK USED  *         1.48 GB
 GA USED    *         0.00 MB       (max)       0.00 MB       (current)
 **********************************************************************************************************************************


 PROGRAM * RHF-SCF (OPEN SHELL)       Authors: W. Meyer, H.-J. Werner


 NUMBER OF ELECTRONS:       5+    4-    SPACE SYMMETRY=2    SPIN SYMMETRY: Doublet
 CONVERGENCE THRESHOLDS:    1.00E-05 (Density)    1.00E-07 (Energy)
 MAX. NUMBER OF ITERATIONS:       60
 INTERPOLATION TYPE:            DIIS
 INTERPOLATION STEPS:              2 (START)      1 (STEP)
 LEVEL SHIFTS:                 -0.60 (CLOSED) -0.30 (OPEN)

 Number of closed-shell orbitals:    4 (   1   1   1   0   1   0   0   0 )
 Number of open-shell orbitals:      1 (   0   1   0   0   0   0   0   0 )



 Extra symmetries of mos in symmetry 2:   1   3   2
 Extra symmetries of mos in symmetry 3:   1   3   2
 Extra symmetries of mos in symmetry 5:   1   3   2
 Orbital guess generated from atomic densities. Full valence occupancy:    4   1   1   1   1   1   1   0


 Molecular orbital dump at record        4202.2

 ITERATION    DDIFF          GRAD             ENERGY        2-EL.EN.            DIPOLE MOMENTS         DIIS   ORB.
    1      0.000D+00      0.000D+00       -38.15387006     34.500800    0.00000    0.00000    0.00000    0    start
    2      0.000D+00      0.796D-02       -38.16919081     34.976200    0.00000    0.00000    0.00000    1    diag,B
    3      0.287D-02      0.211D-02       -38.17197124     35.097070    0.00000    0.00000    0.00000    2    diag,B
    4      0.258D-02      0.632D-03       -38.17562178     35.136100    0.00000    0.00000    0.00000    3    diag,B
    5      0.267D-02      0.814D-03       -38.17309249     35.115673    0.00000    0.00000    0.00000    4    diag,B
    6      0.132D-02      0.515D-03       -38.17353521     35.118743    0.00000    0.00000    0.00000    5    diag,B
    7      0.447D-03      0.538D-03       -38.17102532     35.105784    0.00000    0.00000    0.00000    6    fixocc
    8      0.298D-02      0.425D-03       -38.16939467     35.095359    0.00000    0.00000    0.00000    7    diag,B
    9      0.303D-02      0.364D-03       -38.16933204     35.099765    0.00000    0.00000    0.00000    8    diag,B
   10      0.257D-02      0.571D-03       -38.16764850     35.088447    0.00000    0.00000    0.00000    9    orth
   11      0.320D-02      0.307D-03       -38.16766432     35.088769    0.00000    0.00000    0.00000    9    diag,B
   12      0.756D-04      0.307D-03       -38.16725521     35.085940    0.00000    0.00000    0.00000    9    diag,B
   13      0.155D-02      0.298D-03       -38.16628288     35.082954    0.00000    0.00000    0.00000    9    diag,B
   14      0.608D-02      0.399D-03       -38.16519866     35.075088    0.00000    0.00000    0.00000    9    diag,B
   15      0.440D-02      0.234D-03       -38.16473684     35.075627    0.00000    0.00000    0.00000    9    diag,B
   16      0.448D-02      0.206D-03       -38.16445529     35.073680    0.00000    0.00000    0.00000    9    diag,B
   17      0.294D-02      0.195D-03       -38.16355659     35.073660    0.00000    0.00000    0.00000    9    diag,B
   18      0.153D-01      0.228D-03       -38.16411151     35.074590    0.00000    0.00000    0.00000    9    diag,B
   19      0.754D-02      0.308D-03       -38.16329996     35.072619    0.00000    0.00000    0.00000    9    diag,B
   20      0.103D-01      0.177D-03       -38.16310880     35.076101    0.00000    0.00000    0.00000    9    orth
   21      0.581D-02      0.185D-03       -38.16315511     35.075406    0.00000    0.00000    0.00000    9    diag,B
   22      0.933D-03      0.209D-03       -38.16342545     35.076116    0.00000    0.00000    0.00000    9    diag,B
   23      0.378D-02      0.257D-03       -38.16299430     35.078421    0.00000    0.00000    0.00000    9    diag,B
   24      0.715D-02      0.182D-03       -38.16295884     35.078276    0.00000    0.00000    0.00000    9    diag,B
   25      0.562D-03      0.162D-03       -38.16290533     35.080527    0.00000    0.00000    0.00000    9    diag,B
   26      0.211D-02      0.136D-03       -38.16287566     35.078962    0.00000    0.00000    0.00000    9    diag,B
   27      0.156D-02      0.137D-03       -38.16297068     35.079511    0.00000    0.00000    0.00000    9    diag,B
   28      0.196D-02      0.159D-03       -38.16292306     35.079250    0.00000    0.00000    0.00000    9    diag,B
   29      0.198D-02      0.154D-03       -38.16283394     35.079330    0.00000    0.00000    0.00000    9    diag,B
   30      0.155D-02      0.125D-03       -38.16285553     35.080449    0.00000    0.00000    0.00000    9    orth
   31      0.934D-03      0.124D-03       -38.16293858     35.079083    0.00000    0.00000    0.00000    9    diag,B
   32      0.325D-02      0.132D-03       -38.16292528     35.078918    0.00000    0.00000    0.00000    9    diag,B
   33      0.538D-03      0.131D-03       -38.16280523     35.093636    0.00000    0.00000    0.00000    9    diag,B
   34      0.127D-01      0.164D-03       -38.16288170     35.084615    0.00000    0.00000    0.00000    9    diag,B
   35      0.799D-02      0.173D-03       -38.16273900     35.090506    0.00000    0.00000    0.00000    9    diag,B
   36      0.771D-02      0.799D-04       -38.16273916     35.097552    0.00000    0.00000    0.00000    9    diag,B
   37      0.248D-02      0.627D-04       -38.16276269     35.099900    0.00000    0.00000    0.00000    9    diag,B
   38      0.175D-02      0.986D-04       -38.16273063     35.098921    0.00000    0.00000    0.00000    9    diag,B
   39      0.234D-02      0.436D-04       -38.16273836     35.100227    0.00000    0.00000    0.00000    9    diag,B
   40      0.831D-03      0.556D-04       -38.16272510     35.100590    0.00000    0.00000    0.00000    9    orth
   41      0.631D-03      0.280D-04       -38.16272454     35.100202    0.00000    0.00000    0.00000    9    diag,B
   42      0.328D-03      0.264D-04       -38.16272706     35.099179    0.00000    0.00000    0.00000    9    diag,B
   43      0.108D-02      0.325D-04       -38.16272347     35.100580    0.00000    0.00000    0.00000    9    diag,B
   44      0.159D-02      0.203D-04       -38.16272389     35.100057    0.00000    0.00000    0.00000    9    diag,B
   45      0.267D-03      0.248D-04       -38.16272186     35.099264    0.00000    0.00000    0.00000    9    diag,B
   46      0.673D-03      0.141D-04       -38.16272334     35.099002    0.00000    0.00000    0.00000    9    diag,B
   47      0.522D-03      0.174D-04       -38.16272251     35.099503    0.00000    0.00000    0.00000    9    diag,B
   48      0.341D-03      0.120D-04       -38.16272321     35.099963    0.00000    0.00000    0.00000    9    diag,B
   49      0.256D-03      0.125D-04       -38.16272225     35.099417    0.00000    0.00000    0.00000    9    diag,B
   50      0.346D-03      0.984D-05       -38.16272273     35.099498    0.00000    0.00000    0.00000    9    orth
   51      0.978D-04      0.139D-04       -38.16272269     35.099253    0.00000    0.00000    0.00000    9    diag,B
   52      0.572D-03      0.118D-04       -38.16272280     35.098761    0.00000    0.00000    0.00000    9    diag,B
   53      0.384D-03      0.109D-04       -38.16272208     35.099336    0.00000    0.00000    0.00000    9    diag,B
   54      0.214D-03      0.433D-05       -38.16272216     35.099659    0.00000    0.00000    0.00000    9    diag,B
   55      0.627D-04      0.504D-05       -38.16272213     35.099390    0.00000    0.00000    0.00000    9    diag,B
   56      0.103D-03      0.412D-05       -38.16272235     35.099109    0.00000    0.00000    0.00000    9    diag,B
   57      0.207D-03      0.546D-05       -38.16272202     35.099544    0.00000    0.00000    0.00000    9    diag,B
   58      0.326D-03      0.323D-05       -38.16272204     35.099610    0.00000    0.00000    0.00000    9    diag,B
   59      0.234D-04      0.344D-05       -38.16272202     35.099702    0.00000    0.00000    0.00000    9    orth
   60      0.313D-04      0.314D-05       -38.16272232     35.099724    0.00000    0.00000    0.00000    0    orth

 Final alpha occupancy:   1   2   1   0   1   0   0   0
 Final beta  occupancy:   1   1   1   0   1   0   0   0

 !RHF STATE 1.2 Energy                -38.162722321157
   --><property name="Energy" method="RHF" principal="true" stateSymmetry="2" stateNumber="1"
     value="-38.1627223211573"/><!--
 Nuclear energy                         0.00000000
 One-electron energy                  -55.71258412
 Two-electron energy                   17.54986180
 Virial quotient                       -3.29455765
 !RHF STATE 1.2 Dipole moment           0.00000000     0.00000000     0.00000000
 Dipole moment /Debye                   0.00000000     0.00000000     0.00000000
   --><property name="Dipole moment" method="RHF" principal="true" stateSymmetry="2"
     stateNumber="1" value="0.0 0.0 0.0"/><!--

 ELECTRON ORBITALS
 =================


   Orb  Occ    Energy  Couls-En    Coefficients

                                   1 1s      1 1s      1 1s      1 1s      1 1s      1 1s      1 1s      1 1s      1 1s      1 1s
                                   1 1s      1 1s      1 1s      1 1s      1 1s      1 1s      1 1s      1 1s      1 1s      1 3d0
                                   1 3d2+    1 3d0     1 3d2+    1 3d0     1 3d2+    1 3d0     1 3d2+    1 3d0     1 3d2+    1 3d0
                                   1 3d2+    1 3d0     1 3d2+    1 3d0     1 3d2+    1 3d0     1 3d2+    1 3d0     1 3d2+    1 3d0
                                   1 3d2+    1 3d0     1 3d2+    1 3d0     1 3d2+    1 3d0     1 3d2+    1 3d0     1 3d2+    1 3d0
                                   1 3d2+    1 3d0     1 3d2+

   1.1   2    -3.4842  -11.4143 -0.000000  0.000001 -0.000002  0.000007 -0.000018  0.000059 -0.000159  0.000522 -0.001354  0.004441
                                -0.011749  0.032220  0.030376 -0.681009  0.887211  0.578644 -0.022698  0.012102 -0.003389 -0.000000
                                 0.000000  0.000000 -0.000000 -0.000000  0.000000  0.000000 -0.000000 -0.000000  0.000000  0.000000
                                -0.000000 -0.000000  0.000000 -0.000000  0.000000  0.000003 -0.000001  0.000009 -0.000004  0.000001
                                -0.000000 -0.000000  0.000000  0.000000 -0.000000 -0.000000  0.000000  0.000000 -0.000000 -0.000000
                                 0.000000  0.000000 -0.000000

   2.1   0    -0.7107   -4.1883  0.000000 -0.000000  0.000001 -0.000003  0.000008 -0.000026  0.000070 -0.000228  0.000594 -0.001950
                                 0.005214 -0.014867 -0.006318  0.292217 -0.443838 -0.713180  0.886882  0.623196 -0.061147 -0.000000
                                 0.000000  0.000000 -0.000000 -0.000000  0.000000  0.000000 -0.000000 -0.000001  0.000001  0.000004
                                -0.000002 -0.000014  0.000006 -0.000009  0.000004  0.000178 -0.000078  0.000321 -0.000141  0.000413
                                -0.000182  0.000251 -0.000111  0.000048 -0.000021 -0.000016  0.000007  0.000005 -0.000002 -0.000002
                                 0.000001  0.000001 -0.000000

   3.1   0    -0.6735   -5.0241 -0.000000  0.000000 -0.000000  0.000000 -0.000000  0.000000 -0.000000  0.000000 -0.000001  0.000002
                                -0.000005  0.000014  0.000005 -0.000259  0.000390  0.000673 -0.000832 -0.000585  0.000070 -0.000007
                                 0.000009  0.000033 -0.000042 -0.000100  0.000130  0.000303 -0.000392 -0.000797  0.001031  0.002937
                                -0.003802 -0.009296  0.012034 -0.006277  0.008126  0.123836 -0.160313  0.223695 -0.289569  0.272594
                                -0.352892  0.119035 -0.154147  0.001403 -0.001696  0.001871 -0.002487 -0.001065  0.001414  0.000519
                                -0.000693 -0.000171  0.000231

                                   1 2px     1 2px     1 2px     1 2px     1 2px     1 2px     1 2px     1 2px     1 2px     1 2px
                                   1 2px     1 2px     1 2px     1 2px     1 2px     1 2px     1 2px     1 4f1+    1 4f3+    1 4f1+
                                   1 4f3+    1 4f1+    1 4f3+    1 4f1+    1 4f3+    1 4f1+    1 4f3+    1 4f1+    1 4f3+    1 4f1+
                                   1 4f3+    1 4f1+    1 4f3+    1 4f1+    1 4f3+    1 4f1+    1 4f3+    1 4f1+    1 4f3+    1 4f1+
                                   1 4f3+    1 4f1+    1 4f3+    1 4f1+    1 4f3+    1 4f1+    1 4f3+    1 4f1+    1 4f3+

   1.2   2    -2.2657   -8.8720 -0.000006  0.000029 -0.000095  0.000293 -0.000807  0.002537 -0.007098  0.029218 -0.110591 -0.030667
                                 0.676028  0.418416  0.020295  0.000098 -0.000290  0.000155 -0.000050 -0.000000  0.000000  0.000000
                                -0.000000 -0.000000  0.000000  0.000000 -0.000000 -0.000000  0.000000  0.000000 -0.000000 -0.000000
                                 0.000000  0.000007 -0.000004  0.000006 -0.000003 -0.000002  0.000001  0.000002 -0.000001 -0.000001
                                 0.000000  0.000000 -0.000000 -0.000000  0.000000  0.000000 -0.000000 -0.000000  0.000000

   2.2   +    -0.0501   -0.2648 -0.000000  0.000000 -0.000000  0.000000 -0.000000  0.000001 -0.000004  0.000014 -0.000054  0.000017
                                 0.000255  0.000609 -0.001999  0.001400 -0.000200  0.000441  0.000318 -0.000000  0.000001  0.000001
                                -0.000003 -0.000003  0.000009  0.000010 -0.000029 -0.000023  0.000064  0.000101 -0.000284 -0.000155
                                 0.000436  0.001659 -0.004638  0.002008 -0.005589  0.026245 -0.073326 -0.008001  0.022561 -0.073211
                                 0.203561  0.194586 -0.545009 -0.362584  1.015332  0.557400 -1.561843 -0.538964  1.511487

   3.2   0    -0.2632   -2.0748  0.000000 -0.000000  0.000000 -0.000000  0.000001 -0.000003  0.000009 -0.000035  0.000136 -0.000015
                                -0.000783 -0.001257  0.003463  0.001878 -0.006911  0.000744 -0.000229  0.000000 -0.000000 -0.000000
                                 0.000000  0.000002 -0.000000  0.000007 -0.000000  0.000086 -0.000003  0.000329 -0.000009  0.001188
                                -0.000035  0.015203 -0.000417  0.059696 -0.001682  0.267443 -0.007414  0.586983 -0.015740  0.265405
                                -0.006901 -0.016810  0.000295  0.009992  0.000066 -0.004520 -0.000394  0.001385  0.000461

   4.2   0    -0.5312   -3.3562 -0.000002  0.000011 -0.000035  0.000107 -0.000294  0.000925 -0.002586  0.010712 -0.042077 -0.002858
                                 0.268540  0.294936 -0.544452 -0.692950  0.051692 -0.030312  0.009494  0.000000 -0.000000 -0.000000
                                 0.000000  0.000000 -0.000000 -0.000000  0.000000  0.000000 -0.000000 -0.000000  0.000000  0.000001
                                -0.000001 -0.000002  0.000001  0.000000 -0.000005 -0.000069  0.000026 -0.000143  0.000069  0.000018
                                -0.000017 -0.000026  0.000033  0.000024 -0.000047 -0.000023  0.000065  0.000023 -0.000063

                                   1 2py     1 2py     1 2py     1 2py     1 2py     1 2py     1 2py     1 2py     1 2py     1 2py
                                   1 2py     1 2py     1 2py     1 2py     1 2py     1 2py     1 2py     1 4f1-    1 4f3-    1 4f1-
                                   1 4f3-    1 4f1-    1 4f3-    1 4f1-    1 4f3-    1 4f1-    1 4f3-    1 4f1-    1 4f3-    1 4f1-
                                   1 4f3-    1 4f1-    1 4f3-    1 4f1-    1 4f3-    1 4f1-    1 4f3-    1 4f1-    1 4f3-    1 4f1-
                                   1 4f3-    1 4f1-    1 4f3-    1 4f1-    1 4f3-    1 4f1-    1 4f3-    1 4f1-    1 4f3-

   1.3   2    -2.2657   -8.8720 -0.000006  0.000029 -0.000095  0.000293 -0.000807  0.002537 -0.007098  0.029218 -0.110590 -0.030667
                                 0.676020  0.418423  0.020295  0.000098 -0.000290  0.000155 -0.000050 -0.000000  0.000000  0.000000
                                -0.000000 -0.000000  0.000000  0.000000 -0.000000 -0.000000 -0.000000  0.000000 -0.000000  0.000000
                                -0.000000  0.000005 -0.000002  0.000005 -0.000003 -0.000001 -0.000000  0.000001  0.000000 -0.000000
                                 0.000000  0.000000 -0.000000 -0.000000  0.000000  0.000000 -0.000000 -0.000000  0.000000

   2.3   0    -0.2631   -2.0747 -0.000000  0.000000 -0.000000  0.000000 -0.000000  0.000001 -0.000004  0.000015 -0.000059  0.000007
                                 0.000339  0.000553 -0.001540 -0.000738  0.002944 -0.000289  0.000090 -0.000000  0.000000  0.000000
                                -0.000000 -0.000000  0.000002 -0.000001  0.000007 -0.000009  0.000085 -0.000035  0.000328 -0.000127
                                 0.001179 -0.001629  0.015128 -0.006391  0.059349 -0.028648  0.265997 -0.062894  0.583965 -0.028418
                                 0.263847  0.001810 -0.016816 -0.001082  0.010049  0.000503 -0.004671 -0.000167  0.001551

   3.3   0    -0.2633   -2.0746  0.000000 -0.000000  0.000000 -0.000000  0.000001 -0.000002  0.000006 -0.000023  0.000091 -0.000010
                                -0.000522 -0.000842  0.002332  0.001200 -0.004565  0.000474 -0.000147  0.000000  0.000000 -0.000000
                                -0.000000  0.000002  0.000000  0.000007  0.000001  0.000085  0.000009  0.000328  0.000035  0.001180
                                 0.000127  0.015118  0.001628  0.059330  0.006391  0.265887  0.028639  0.583798  0.062881  0.264158
                                 0.028451 -0.016741 -0.001804  0.010048  0.001083 -0.004675 -0.000504  0.001554  0.000167

                                   1 3d2-    1 3d2-    1 3d2-    1 3d2-    1 3d2-    1 3d2-    1 3d2-    1 3d2-    1 3d2-    1 3d2-
                                   1 3d2-    1 3d2-    1 3d2-    1 3d2-    1 3d2-    1 3d2-    1 3d2-

   1.4   0    -0.6735   -5.0241  0.000012 -0.000053  0.000164 -0.000495  0.001303 -0.004804  0.015208  0.010268 -0.202577 -0.365932
                                -0.445902 -0.194718 -0.002257 -0.003081  0.001753 -0.000855  0.000283

   2.4   0    -0.3190   -2.3434  0.000006 -0.000026  0.000079 -0.000240  0.000631 -0.002355  0.007564  0.004981 -0.104686 -0.193346
                                -0.263138  0.332273  0.748894  0.046444  0.008724 -0.005393  0.001858

                                   1 2pz     1 2pz     1 2pz     1 2pz     1 2pz     1 2pz     1 2pz     1 2pz     1 2pz     1 2pz
                                   1 2pz     1 2pz     1 2pz     1 2pz     1 2pz     1 2pz     1 2pz     1 4f0     1 4f2+    1 4f0
                                   1 4f2+    1 4f0     1 4f2+    1 4f0     1 4f2+    1 4f0     1 4f2+    1 4f0     1 4f2+    1 4f0
                                   1 4f2+    1 4f0     1 4f2+    1 4f0     1 4f2+    1 4f0     1 4f2+    1 4f0     1 4f2+    1 4f0
                                   1 4f2+    1 4f0     1 4f2+    1 4f0     1 4f2+    1 4f0     1 4f2+    1 4f0     1 4f2+

   1.5   2    -2.2657   -8.8720 -0.000006  0.000029 -0.000095  0.000293 -0.000807  0.002537 -0.007098  0.029218 -0.110589 -0.030667
                                 0.676010  0.418433  0.020296  0.000097 -0.000289  0.000154 -0.000050 -0.000000 -0.000000  0.000000
                                -0.000000 -0.000000 -0.000000  0.000000 -0.000000  0.000000 -0.000000  0.000000 -0.000000  0.000000
                                -0.000000  0.000006 -0.000002  0.000007 -0.000002 -0.000000 -0.000000  0.000000  0.000000 -0.000000
                                -0.000000  0.000000 -0.000000 -0.000000  0.000000  0.000000 -0.000000 -0.000000  0.000000

   2.5   0    -0.2632   -2.0747 -0.000000  0.000000 -0.000000  0.000000 -0.000001  0.000002 -0.000005  0.000022 -0.000086  0.000010
                                 0.000492  0.000803 -0.002238 -0.001072  0.004278 -0.000420  0.000131 -0.000000  0.000000  0.000000
                                -0.000000 -0.000001  0.000002 -0.000003  0.000006 -0.000034  0.000079 -0.000130  0.000303 -0.000468
                                 0.001091 -0.006001  0.013976 -0.023548  0.054848 -0.105532  0.245791 -0.231695  0.539629 -0.104754
                                 0.243970  0.006660 -0.015517 -0.003988  0.009291  0.001855 -0.004321 -0.000616  0.001436

   3.5   0    -0.2633   -2.0746  0.000000 -0.000000  0.000000 -0.000000  0.000001 -0.000002  0.000007 -0.000026  0.000103 -0.000012
                                -0.000591 -0.000958  0.002659  0.001330 -0.005156  0.000523 -0.000163  0.000000  0.000000 -0.000000
                                -0.000000  0.000002  0.000001  0.000006  0.000003  0.000079  0.000034  0.000303  0.000130  0.001090
                                 0.000468  0.013972  0.005999  0.054831  0.023545  0.245728  0.105511  0.539538  0.231665  0.244138
                                 0.104825 -0.015469 -0.006644  0.009285  0.003988 -0.004321 -0.001856  0.001436  0.000617

                                   1 3d1+    1 3d1+    1 3d1+    1 3d1+    1 3d1+    1 3d1+    1 3d1+    1 3d1+    1 3d1+    1 3d1+
                                   1 3d1+    1 3d1+    1 3d1+    1 3d1+    1 3d1+    1 3d1+    1 3d1+

   1.6   0    -0.6735   -5.0241  0.000012 -0.000053  0.000164 -0.000495  0.001303 -0.004805  0.015208  0.010267 -0.202577 -0.365947
                                -0.445892 -0.194662 -0.002373 -0.003019  0.001719 -0.000836  0.000274

   2.6   0    -0.3190   -2.3434  0.000006 -0.000026  0.000079 -0.000240  0.000630 -0.002354  0.007563  0.004982 -0.104688 -0.193328
                                -0.263181  0.332315  0.748686  0.046730  0.008638 -0.005341  0.001831

                                   1 3d1-    1 3d1-    1 3d1-    1 3d1-    1 3d1-    1 3d1-    1 3d1-    1 3d1-    1 3d1-    1 3d1-
                                   1 3d1-    1 3d1-    1 3d1-    1 3d1-    1 3d1-    1 3d1-    1 3d1-

   1.7   0    -0.6735   -5.0241  0.000012 -0.000053  0.000164 -0.000495  0.001303 -0.004805  0.015208  0.010267 -0.202573 -0.365940
                                -0.445895 -0.194663 -0.002393 -0.003009  0.001713 -0.000832  0.000272

   2.7   0    -0.3191   -2.3433  0.000006 -0.000026  0.000079 -0.000240  0.000630 -0.002354  0.007563  0.004982 -0.104682 -0.193320
                                -0.263170  0.332255  0.748660  0.046835  0.008616 -0.005328  0.001825

                                   1 4f2-    1 4f2-    1 4f2-    1 4f2-    1 4f2-    1 4f2-    1 4f2-    1 4f2-    1 4f2-    1 4f2-
                                   1 4f2-    1 4f2-    1 4f2-    1 4f2-    1 4f2-    1 4f2-

   1.8   0    -0.2632   -2.0747  0.000000 -0.000000  0.000002  0.000007  0.000086  0.000329  0.001188  0.015207  0.059699  0.267489
                                 0.587253  0.265530 -0.016894  0.010121 -0.004710  0.001567

   2.8   0    -0.1616   -1.3241 -0.000000  0.000000 -0.000002 -0.000008 -0.000077 -0.000319 -0.001093 -0.014407 -0.057569 -0.267182
                                -0.459086  0.694350  0.519200 -0.074439  0.032075 -0.010256

 HOMO      2.2    -0.050133 =      -1.3642eV
 LUMO      2.1    -0.710701 =     -19.3391eV
 LUMO-HOMO        -0.660567 =     -17.9749eV

 No convergence



 **********************************************************************************************************************************
 DATASETS  * FILE   NREC   LENGTH (MB)   RECORD NAMES
              1      19       20.42       500      610      700      900      950      970     1000      129      960     1100
                                          VAR    BASINP    GEOM    SYMINP    ZMAT    AOBASIS   BASIS     P2S    ABASIS      S
                                         1400     1410     1420     1200     1210     1080     1600     1650     1700
                                           T        V       ECP      H0       H01     AOSYM     SMH    MOLCAS    OPER

              2       5        5.70       200      700     1000      520     4202
                                        OPTIONS   GEOM     BASIS   MCVARS     RHF

 PROGRAMS   *        TOTAL       RHF       INT
 CPU TIMES  *        26.79      2.26     24.14
 REAL TIME  *        29.15 SEC
 DISK USED  *         1.78 GB
 SF USED    *         0.05 MB
 GA USED    *         0.00 MB       (max)       0.00 MB       (current)
 **********************************************************************************************************************************
   -->
   <time start="20:39:17" end="20:39:46" cpu="26.79" system="1.77" real="29.15"/>
   <storage units="megabyte" memory="8001.84" sf="0.05" df="306.19" eaf="1478.44" ga="0.0"/>
  </jobstep><!--
  --><jobstep command="POP" commandset="POP">
   <!--


 PROGRAM * POP (Mulliken population analysis)


 Density matrix read from record         4202.2  Type=RHF/CHARGE (state 1.2)

 Population analysis by basis function type

 Unique atom        s        p        d        f        g    Total    Charge
   1  LU      2.00000  6.00000  0.00000  1.00000  0.00000  9.00000  + 2.00000


 **********************************************************************************************************************************
 DATASETS  * FILE   NREC   LENGTH (MB)   RECORD NAMES
              1      19       20.42       500      610      700      900      950      970     1000      129      960     1100
                                          VAR    BASINP    GEOM    SYMINP    ZMAT    AOBASIS   BASIS     P2S    ABASIS      S
                                         1400     1410     1420     1200     1210     1080     1600     1650     1700
                                           T        V       ECP      H0       H01     AOSYM     SMH    MOLCAS    OPER

              2       5        5.70       200      700     1000      520     4202
                                        OPTIONS   GEOM     BASIS   MCVARS     RHF

 PROGRAMS   *        TOTAL       POP       RHF       INT
 CPU TIMES  *        26.80      0.00      2.26     24.14
 REAL TIME  *        29.16 SEC
 DISK USED  *         1.78 GB
 SF USED    *         0.05 MB
 GA USED    *         0.00 MB       (max)       0.00 MB       (current)
 **********************************************************************************************************************************
   -->
   <time start="20:39:46" end="20:39:46" cpu="0.01" system="0.0" real="0.01"/>
   <storage units="megabyte" memory="8001.84" sf="0.05" df="306.19" eaf="1478.44" ga="0.0"/>
  </jobstep><!--
  --><jobstep command="RHF-SCF" commandset="SCFPRO">
   <!--


 PROGRAM * RHF-SCF (OPEN SHELL)       Authors: W. Meyer, H.-J. Werner


 NUMBER OF ELECTRONS:       5+    4-    SPACE SYMMETRY=2    SPIN SYMMETRY: Doublet
 CONVERGENCE THRESHOLDS:    1.00E-05 (Density)    1.00E-07 (Energy)
 MAX. NUMBER OF ITERATIONS:        0
 INTERPOLATION TYPE:            DIIS
 INTERPOLATION STEPS:              2 (START)      1 (STEP)
 LEVEL SHIFTS:                 -0.60 (CLOSED) -0.30 (OPEN)

 Number of closed-shell orbitals:    4 (   1   1   1   0   1   0   0   0 )
 Number of open-shell orbitals:      1 (   0   1   0   0   0   0   0   0 )


 Molecular orbitals read from record     4202.2  Type=RHF/CANONICAL (state 1.2)

 Molecular orbital dump at record        2122.2

 ITERATION    DDIFF          GRAD             ENERGY        2-EL.EN.            DIPOLE MOMENTS         DIIS   ORB.
    1      0.000D+00      0.000D+00       -38.16272232     35.099724    0.00000    0.00000    0.00000    0    start

 Final alpha occupancy:   1   2   1   0   1   0   0   0
 Final beta  occupancy:   1   1   1   0   1   0   0   0

 !RHF STATE 1.2 Energy                -38.162722321157
   --><property name="Energy" method="RHF" principal="true" stateSymmetry="2" stateNumber="1"
     value="-38.1627223211573"/><!--
 Nuclear energy                         0.00000000
 One-electron energy                  -55.71258412
 Two-electron energy                   17.54986180
 Virial quotient                       -3.29455765
 !RHF STATE 1.2 Dipole moment           0.00000000     0.00000000     0.00000000
 Dipole moment /Debye                   0.00000000     0.00000000     0.00000000
   --><property name="Dipole moment" method="RHF" principal="true" stateSymmetry="2"
     stateNumber="1" value="0.0 0.0 0.0"/><!--

 Orbital energies:

         1.1          2.1          3.1
     -3.484237    -0.710701    -0.673540

         1.2          2.2          3.2          4.2
     -2.265689    -0.050133    -0.263244    -0.531189

         1.3          2.3          3.3
     -2.265708    -0.263131    -0.263275

         1.4          2.4
     -0.673509    -0.318982

         1.5          2.5          3.5
     -2.265735    -0.263199    -0.263277

         1.6          2.6
     -0.673501    -0.319043

         1.7          2.7
     -0.673519    -0.319083

         1.8          2.8
     -0.263222    -0.161634

 HOMO      2.2    -0.050133 =      -1.3642eV
 LUMO      2.1    -0.710701 =     -19.3391eV
 LUMO-HOMO        -0.660567 =     -17.9749eV


 **********************************************************************************************************************************
 DATASETS  * FILE   NREC   LENGTH (MB)   RECORD NAMES
              1      19       20.42       500      610      700      900      950      970     1000      129      960     1100
                                          VAR    BASINP    GEOM    SYMINP    ZMAT    AOBASIS   BASIS     P2S    ABASIS      S
                                         1400     1410     1420     1200     1210     1080     1600     1650     1700
                                           T        V       ECP      H0       H01     AOSYM     SMH    MOLCAS    OPER

              2       6        8.64       200      700     1000      520     4202     2122
                                        OPTIONS   GEOM     BASIS   MCVARS     RHF      RHF

 PROGRAMS   *        TOTAL       RHF       POP       RHF       INT
 CPU TIMES  *        26.86      0.05      0.00      2.26     24.14
 REAL TIME  *        29.24 SEC
 DISK USED  *         1.78 GB
 SF USED    *         0.05 MB
 GA USED    *         0.00 MB       (max)       0.00 MB       (current)
 **********************************************************************************************************************************
   -->
   <time start="20:39:46" end="20:39:46" cpu="0.06" system="0.02" real="0.08"/>
   <storage units="megabyte" memory="8001.84" sf="0.05" df="306.19" eaf="1478.44" ga="0.0"/>
  </jobstep><!--
 SETTING SCF(10)        =       -38.16272232  AU
 SETTING _CC_NORM_MAX   =         2.00000000
  --><jobstep command="RCCSD(T)" commandset="CCSD">
   <!--


 PROGRAM * CCSD (Restricted open-shell coupled cluster)     Authors: C. Hampel, H.-J. Werner, 1991, M. Deegan, P.J. Knowles, 1992


 Convergence thresholds:  THRVAR = 1.00D-08  THRDEN = 1.00D-06

 CCSD(T)     terms to be evaluated (factor= 1.000)


 Number of closed-shell orbitals:   4 (   1   1   1   0   1   0   0   0 )
 Number of active  orbitals:        1 (   0   1   0   0   0   0   0   0 )
 Number of external orbitals:     262 (  52  47  48  17  48  17  17  16 )

 Memory could be reduced to 27.54 Mwords without degradation in triples

 Number of N-1 electron functions:               9
 Number of N-2 electron functions:              36
 Number of singly external CSFs:               440
 Number of doubly external CSFs:            253213
 Total number of CSFs:                      253653

 Molecular orbitals read from record     2122.2  Type=RHF/CANONICAL (state 1.2)

 Integral transformation finished. Total CPU:   0.68 sec, npass=  1  Memory used:   3.62 MW

 Starting RMP2 calculation

 Wavefunction is spin-projected

 ITER.      SQ.NORM     CORR.ENERGY   TOTAL ENERGY   ENERGY CHANGE        DEN1      VAR(S)    VAR(P)  DIIS     TIME
   1      1.04109201    -0.20496636   -38.36768868    -0.20496636    -0.00170478  0.83D-03  0.38D-03  1  1     0.92
   2      1.77534831    -0.20682179   -38.36954411    -0.00185543    -0.01288331  0.68D+00  0.95D-06  2  2     0.95
   3      1.04117698    -0.20684653   -38.36956885    -0.00002473    -0.00000465  0.12D-04  0.49D-06  3  3     0.97
   4      1.04128947    -0.20686892   -38.36959124    -0.00002240    -0.00000871  0.31D-04  0.15D-07  4  4     0.99
   5      1.04116235    -0.20686773   -38.36959005     0.00000119    -0.00000009  0.13D-06  0.26D-07  5  5     1.01
   6      1.04116475    -0.20686797   -38.36959030    -0.00000024    -0.00000008  0.22D-06  0.14D-08  6  6     1.05
   7      1.04116391    -0.20686811   -38.36959043    -0.00000013    -0.00000005  0.27D-06  0.41D-08  6  3     1.11
   8      1.04116467    -0.20686835   -38.36959067    -0.00000024    -0.00000006  0.85D-06  0.24D-08  6  1     1.14
   9      1.04116336    -0.20686752   -38.36958984     0.00000083    -0.00000001  0.56D-07  0.20D-09  6  2     1.21
  10      1.04116353    -0.20686773   -38.36959005    -0.00000021    -0.00000002  0.11D-06  0.51D-10  6  5     1.24
  11      1.04116389    -0.20686765   -38.36958997     0.00000008    -0.00000001  0.18D-07  0.19D-10  6  4     1.26
  12      1.04116412    -0.20686772   -38.36959005    -0.00000008    -0.00000001  0.22D-07  0.13D-10  6  6     1.29
  13      1.04116382    -0.20686759   -38.36958991     0.00000013    -0.00000001  0.15D-07  0.97D-10  6  2     1.31
  14      1.04116434    -0.20686770   -38.36959002    -0.00000011    -0.00000001  0.43D-07  0.16D-09  6  3     1.33
  15      1.04116436    -0.20686773   -38.36959005    -0.00000003    -0.00000001  0.41D-07  0.16D-09  6  1     1.35
  16      1.04116463    -0.20686785   -38.36959018    -0.00000012    -0.00000001  0.77D-07  0.62D-10  6  4     1.37
  17      1.04116409    -0.20686778   -38.36959011     0.00000007    -0.00000000  0.26D-07  0.13D-09  6  5     1.39
  18      1.04116396    -0.20686787   -38.36959019    -0.00000009    -0.00000001  0.35D-07  0.31D-10  6  2     1.41
  19      1.04116452    -0.20686778   -38.36959010     0.00000009    -0.00000000  0.18D-07  0.82D-10  6  6     1.44
  20      1.04116455    -0.20686776   -38.36959009     0.00000001    -0.00000000  0.18D-07  0.13D-09  6  3     1.46
  21      1.04116533    -0.20686786   -38.36959018    -0.00000010    -0.00000000  0.48D-07  0.21D-10  6  5     1.52
  22      1.04116480    -0.20686780   -38.36959012     0.00000006    -0.00000000  0.24D-07  0.95D-10  6  6     1.54
  23      1.04116453    -0.20686783   -38.36959016    -0.00000003    -0.00000000  0.29D-07  0.64D-10  6  2     1.56
  24      1.04116533    -0.20686781   -38.36959013     0.00000002    -0.00000000  0.38D-07  0.64D-10  6  6     1.59
  25      1.04116497    -0.20686783   -38.36959015    -0.00000002    -0.00000000  0.35D-07  0.69D-10  6  2     1.61
  26      1.04116470    -0.20686782   -38.36959014     0.00000001    -0.00000000  0.29D-07  0.73D-10  6  6     1.63
  27      1.04116465    -0.20686780   -38.36959012     0.00000002    -0.00000000  0.15D-07  0.10D-09  6  2     1.66
  28      1.04116456    -0.20686786   -38.36959018    -0.00000006    -0.00000000  0.19D-07  0.11D-10  6  6     1.67
  29      1.04116490    -0.20686779   -38.36959011     0.00000007    -0.00000000  0.52D-08  0.56D-10  6  3     1.70

 Norm of t1 vector:      0.00169736      S-energy:     0.00000038      T1 diagnostic:  0.00040006
 Norm of t2 vector:      0.20288426      P-energy:    -0.20686817
                                         Alpha-Beta:  -0.15652988
                                         Alpha-Alpha: -0.02517761
                                         Beta-Beta:   -0.02516068

 Spin contamination <S**2-Sz**2-Sz>     0.00000000
  Reference energy                    -38.162722321157
   --><property name="energy" method="Reference" stateSymmetry="1" stateNumber="1"
     value="-38.1627223211573"/><!--
  RHF-RMP2 correlation energy          -0.206867786748
   --><property name="energy" method="RHF-RMP2 correlation" stateSymmetry="1" stateNumber="1"
     value="-0.206867786747569"/><!--
 !RHF-RMP2 energy                     -38.369590107905
   --><property name="energy" method="RHF-RMP2" principal="true" stateSymmetry="2"
     stateNumber="1" value="-38.3695901079049"/><!--
 (NB above energy spin projected)

 Starting RCCSD calculation

 ITER.      SQ.NORM     CORR.ENERGY   TOTAL ENERGY   ENERGY CHANGE        DEN1      VAR(S)    VAR(P)  DIIS     TIME
   1      1.04436093    -0.21331001   -38.37603233    -0.21331001    -0.00461431  0.96D-03  0.84D-03  1  1     1.94
   2      2.11869886    -0.21839384   -38.38111616    -0.00508383    -0.01896105  0.10D+01  0.23D-04  2  2     2.15
   3    806.83756858    -0.21919561   -38.38191793    -0.00080177   -14.18778331  0.75D+03  0.69D-02  2  0     2.36

 UNREASONABLE NORM:806.837569 CALCULATION WILL BE STOPPED

 The threshold can be changed using option CC_NORM_MAX (see manual). The current value is CC_NORM_MAX=2.00

 Norm of t1 vector:     28.38588708      S-energy:    -0.00058946      T1 diagnostic:  6.69061775
                                                                       D1 diagnostic: 20.07185282
 Norm of t2 vector:      0.28103939      P-energy:    -0.21860615
                                         Alpha-Beta:  -0.16969398
                                         Alpha-Alpha: -0.02447016
                                         Beta-Beta:   -0.02444201

 Singles amplitudes (print threshold =  0.500E-01):

         I         SYM. A    A   T(IA) [Alpha-Alpha]

         3         2         3     28.38588333

 ?ERROR: NO CONVERGENCE. TRIPLES WILL NOT BE DONE. THIS CAN BE AVOIDED USING THE NOCHECK OPTION.

 Spin contamination <S**2-Sz**2-Sz>     0.00000000


 RESULTS
 =======

  Reference energy                    -38.162722321157
   --><property name="energy" method="Reference" stateSymmetry="1" stateNumber="1"
     value="-38.1627223211573"/><!--
  RCCSD singles energy                 -0.000589460238
   --><property name="energy" method="RCCSD singles" stateSymmetry="1" stateNumber="1"
     value="-0.589460237592543E-03"/><!--
  RCCSD pair energy                    -0.218606146708
   --><property name="energy" method="RCCSD pair" stateSymmetry="1" stateNumber="1"
     value="-0.218606146707525"/><!--
  RCCSD correlation energy             -0.219195606945
   --><property name="energy" method="RCCSD correlation" stateSymmetry="1" stateNumber="1"
     value="-0.219195606945118"/><!--

 !RHF-RCCSD energy                    -38.381917928102
   --><property name="energy" method="RHF-RCCSD" principal="true" stateSymmetry="1"
     stateNumber="1" value="-38.3819179281024"/><!--

 Program statistics:

 Available memory in ccsd:               999999650
 Min. memory needed in ccsd:                976187
 Max. memory used in ccsd:                 1251162
 Max. memory used in cckext:               1113702 ( 3 integral passes)
 Max. memory used in cckint:               3615721 ( 1 integral passes)


 ? Error
 ? No convergence. This error exit can be avoided using the NOCHECK option
 ? The problem occurs in ccsd
   --><error type="Error" location="ccsd"
     message="No convergence. This error exit can be avoided using the NOCHECK option"/><!--
  --></jobstep><!--
  -->
  <input>
  <!--
 --></job><!--
--></molpro>
