<?xml version="1.0"?>
<molpro xmlns="http://www.molpro.net/schema/molpro-output"
  xmlns:xsd="http://www.w3.org/1999/XMLSchema"
  xmlns:cml="http://www.xml-cml.org/schema"
  xmlns:stm="http://www.xml-cml.org/schema"
  xmlns:xhtml="http://www.w3.org/1999/xhtml">
 <!--

 Nodes     nprocs
 nid01406    11
 Number of processes for MPI-2 version of Molpro:   nprocs(total)=   12   nprocs(compute)=   11   nprocs(helper)=    1

 Using customized tuning parameters: mindgm=7; mindgv=16; mindgc=1; mindgr=1; noblas=0; minvec=7
 default implementation of scratch files=sf

 --><job>
  <!--

 Variables initialized (889), CPU time= 0.02 sec
 Commands  initialized (702), CPU time= 0.01 sec, 572 directives.
 Default parameters read. Elapsed time= 0.13 sec

 Checking input...
 Passed
1


                                         ***  PROGRAM SYSTEM MOLPRO  ***
                                       Copyright, TTI GmbH Stuttgart, 2015
                                    Version 2015.1 linked Dec 29 2018 15:55:43


 **********************************************************************************************************************************
 LABEL *   Calculation for Y atom, singlet and triplet
  64 bit mpp version                                                                     DATE: 11-May-23          TIME: 07:48:24
 **********************************************************************************************************************************

 SHA1:             19cd028119e0e09f93f0674bd8af7968d9b3eff6
 **********************************************************************************************************************************
  -->
  <!--

 THRESHOLDS:

 ZERO    =  1.00D-12  ONEINT  =  1.00D-12  TWOINT  =  1.00D-15  PREFAC  =  1.00D-14  LOCALI  =  1.00D-09  EORDER  =  1.00D-04
 ENERGY  =  0.00D+00  ETEST   =  0.00D+00  EDENS   =  0.00D+00  THRDEDEF=  1.00D-06  GRADIENT=  1.00D-02  STEP    =  1.00D-03
 ORBITAL =  1.00D-05  CIVEC   =  1.00D-05  COEFF   =  1.00D-04  PRINTCI =  5.00D-02  PUNCHCI =  9.90D+01  OPTGRAD =  3.00D-04
 OPTENERG=  1.00D-06  OPTSTEP =  3.00D-04  THRGRAD =  1.00D-10  COMPRESS=  1.00D-11  VARMIN  =  1.00D-07  VARMAX  =  1.00D-03
 THRDOUB =  0.00D+00  THRDIV  =  1.00D-05  THRRED  =  1.00D-07  THRPSP  =  1.00D+00  THRDC   =  1.00D-10  THRCS   =  1.00D-10
 THRNRM  =  1.00D-08  THREQ   =  0.00D+00  THRDE   =  1.00D+00  THRREF  =  1.00D-05  SPARFAC =  1.00D+00  THRDLP  =  1.00D-07
 THRDIA  =  1.00D-10  THRDLS  =  1.00D-07  THRGPS  =  0.00D+00  THRKEX  =  0.00D+00  THRDIS  =  2.00D-01  THRVAR  =  1.00D-10
 THRLOC  =  1.00D-06  THRGAP  =  1.00D-06  THRLOCT = -1.00D+00  THRGAPT = -1.00D+00  THRORB  =  1.00D-06  THRMLTP =  0.00D+00
 THRCPQCI=  1.00D-10  KEXTA   =  0.00D+00  THRCOARS=  0.00D+00  SYMTOL  =  1.00D-06  GRADTOL =  1.00D-06  THROVL  =  1.00D-08
 THRORTH =  1.00D-08  GRID    =  1.00D-06  GRIDMAX =  1.00D-03  DTMAX   =  0.00D+00  THROCCDE=  1.00D-01  THROCCDE=  1.00D-01



 THRESHOLDS:

 ZERO    =  1.00D-12  ONEINT  =  1.00D-12  TWOINT  =  1.00D-15  PREFAC  =  1.00D-14  LOCALI  =  1.00D-09  EORDER  =  1.00D-04
 ENERGY  =  0.00D+00  ETEST   =  0.00D+00  EDENS   =  0.00D+00  THRDEDEF=  1.00D-06  GRADIENT=  1.00D-02  STEP    =  1.00D-03
 ORBITAL =  1.00D-05  CIVEC   =  1.00D-05  COEFF   =  1.00D-04  PRINTCI =  5.00D-02  PUNCHCI =  9.90D+01  OPTGRAD =  3.00D-04
 OPTENERG=  1.00D-06  OPTSTEP =  3.00D-04  THRGRAD =  1.00D-10  COMPRESS=  1.00D-11  VARMIN  =  1.00D-07  VARMAX  =  1.00D-03
 THRDOUB =  0.00D+00  THRDIV  =  1.00D-05  THRRED  =  1.00D-07  THRPSP  =  1.00D+00  THRDC   =  1.00D-10  THRCS   =  1.00D-10
 THRNRM  =  1.00D-08  THREQ   =  0.00D+00  THRDE   =  1.00D+00  THRREF  =  1.00D-05  SPARFAC =  1.00D+00  THRDLP  =  1.00D-07
 THRDIA  =  1.00D-10  THRDLS  =  1.00D-07  THRGPS  =  0.00D+00  THRKEX  =  0.00D+00  THRDIS  =  2.00D-01  THRVAR  =  1.00D-10
 THRLOC  =  1.00D-06  THRGAP  =  1.00D-06  THRLOCT = -1.00D+00  THRGAPT = -1.00D+00  THRORB  =  1.00D-06  THRMLTP =  0.00D+00
 THRCPQCI=  1.00D-10  KEXTA   =  0.00D+00  THRCOARS=  0.00D+00  SYMTOL  =  1.00D-06  GRADTOL =  1.00D-06  THROVL  =  1.00D-15
 THRORTH =  1.00D-08  GRID    =  1.00D-06  GRIDMAX =  1.00D-03  DTMAX   =  0.00D+00  THROCCDE=  1.00D-01  THROCCDE=  1.00D-01



 Variable memory set to 1000000000 words,  buffer space   230000 words

 SETTING BASIS          =    USERDEF
 SETTING LU_CCSD        =       -40.46048677
 SETTING O_CCSD         =       -15.86622096
 SETTING NE             =        17.00000000
 SETTING SYMM           =         1.00000000
 SETTING SS             =         1.00000000
 SETTING A1             =         5.00000000
 SETTING B1             =         2.00000000
 SETTING B2             =         2.00000000
 SETTING A2             =     0.00000000D+00

Geometry recognized as XYZ

  --><jobstep command="RHF-SCF" commandset="SCFPRO">
   <!--


 Recomputing integrals since basis changed


 Using spherical harmonics



 PROGRAM * SEWARD (Integral evaluation for generally contracted gaussian basis sets)     Author: Roland Lindh, 1990

 Geometry written to block  1 of record 700


 Point group  C2v


   --><cml:molecule>
    <cml:symmetry pointGroup="C2v"/>
    <cml:atomArray>
     <cml:atom id="a1" elementType="Lu" x3="0.0" y3="0.0" z3="0.0"/>
     <cml:atom id="a2" elementType="O" x3="0.0" y3="0.0" z3="2.3"/>
    </cml:atomArray>
    <cml:bondArray>
     <cml:bond atomRefs2="a1 a2"/>
    </cml:bondArray>
   </cml:molecule><!--

 ATOMIC COORDINATES

 NR  ATOM    CHARGE       X              Y              Z

   1  LU     11.00    0.000000000    0.000000000    0.000000000
   2  O       6.00    0.000000000    0.000000000    4.346370086

 Bond lengths in Bohr (Angstrom)

 1-2  4.346370086
     ( 2.300000000)

 NUCLEAR CHARGE:                   17
 NUMBER OF PRIMITIVE AOS:         584
 NUMBER OF SYMMETRY AOS:          451
 NUMBER OF CONTRACTIONS:          451   ( 180A1  + 108B1  + 108B2  +  55A2  )
 NUMBER OF CORE ORBITALS:           0   (   0A1  +   0B1  +   0B2  +   0A2  )
 NUMBER OF VALENCE ORBITALS:       14   (   7A1  +   3B1  +   3B2  +   1A2  )


 NUCLEAR REPULSION ENERGY   15.18508518

 EXTRA SYMMETRY OF AOS IN SYMMETRY 1:   1 1 1 1 1 1 1 1 1 1   1 1 1 1 1 1 1 1 1 1   1 1 1 1 1 1 1 1 1 1   1 1 1 1 1 1 1 1 1 1
                                        1 1 1 1 1 1 1 1 1 1   1 1 1 1 1 1 1 1 1 2   1 2 1 2 1 2 1 2 1 2   1 2 1 2 1 2 1 2 1 2
                                        1 2 1 2 1 2 1 2 1 2   1 2 1 2 1 2 1 2 1 2   1 2 1 2 1 2 1 2 1 2   1 2 1 2 1 2 1 2 1 2
                                        1 3 2 1 3 2 1 3 2 1   3 2 1 3 2 1 3 2 2 3   1 2 3 1 2 3 1 1 1 1   1 1 1 1 1 1 1 1 1 1
                                        1 1 1 1 1 1 1 1 1 2   1 2 1 2 1 2 1 2 1 2
 EXTRA SYMMETRY OF AOS IN SYMMETRY 2:   1 1 1 1 1 1 1 1 1 1   1 1 1 1 1 1 1 1 1 1   1 1 1 1 1 1 1 1 1 1   1 1 1 1 1 1 1 1 1 1
                                        1 1 1 1 1 1 2 1 2 1   2 1 2 1 2 1 2 1 2 1   2 1 2 1 2 1 2 1 2 1   2 1 2 1 2 1 2 1 2 1
                                        2 1 2 1 2 3 1 2 3 1   2 3 1 1 1 1 1 1 1 1   1 1 1 1 1 2 1 2
 EXTRA SYMMETRY OF AOS IN SYMMETRY 3:   1 1 1 1 1 1 1 1 1 1   1 1 1 1 1 1 1 1 1 1   1 1 1 1 1 1 1 1 1 1   1 1 1 1 1 1 1 1 1 1
                                        1 1 1 1 1 1 2 1 2 1   2 1 2 1 2 1 2 1 2 1   2 1 2 1 2 1 2 1 2 1   2 1 2 1 2 1 2 1 2 1
                                        2 1 2 1 2 3 1 2 3 1   2 3 1 1 1 1 1 1 1 1   1 1 1 1 1 2 1 2
 EXTRA SYMMETRY OF AOS IN SYMMETRY 4:   1 1 1 1 1 1 1 1 1 1   1 1 1 1 1 1 1 1 1 1   1 1 1 1 1 1 1 1 1 1   1 1 2 1 2 1 2 1 2 1
                                        2 1 2 2 1 2 1 2 1 1   1 1 1 1 1

 Eigenvalues of metric

         1 0.863E-05 0.121E-04 0.369E-04 0.478E-04 0.678E-04 0.747E-04 0.105E-03 0.186E-03
         2 0.122E-04 0.175E-04 0.105E-03 0.490E-03 0.644E-03 0.156E-02 0.220E-02 0.335E-02
         3 0.122E-04 0.175E-04 0.105E-03 0.490E-03 0.644E-03 0.156E-02 0.220E-02 0.335E-02
         4 0.701E-03 0.220E-02 0.838E-02 0.144E-01 0.215E-01 0.328E-01 0.344E-01 0.520E-01


 Contracted 2-electron integrals neglected if value below      1.0D-15
 AO integral compression algorithm  1   Integral accuracy      1.0D-15

     3558.343 MB (compressed) written to integral file ( 32.4%)

     Node minimum: 247.464 MB, node maximum: 406.847 MB


 NUMBER OF SORTED TWO-ELECTRON INTEGRALS:  120332494.     BUFFER LENGTH:  32768
 NUMBER OF SEGMENTS:   4  SEGMENT LENGTH:   31980394      RECORD LENGTH: 524288

 Memory used in sort:      32.54 MW

 SORT1 READ  1374547738. AND WROTE    40325415. INTEGRALS IN    118 RECORDS. CPU TIME:    22.54 SEC, REAL TIME:    33.90 SEC
 SORT2 READ   446856433. AND WROTE  1323827515. INTEGRALS IN  11143 RECORDS. CPU TIME:     1.68 SEC, REAL TIME:     2.64 SEC

 Node minimum:   120327112.  Node maximum:   120451591. integrals

 OPERATOR DM      FOR CENTER  0  COORDINATES:    0.000000    0.000000    0.000000


 **********************************************************************************************************************************
 DATASETS  * FILE   NREC   LENGTH (MB)   RECORD NAMES
              1      19       22.40       500      610      700      900      950      970     1000      129      960     1100
                                          VAR    BASINP    GEOM    SYMINP    ZMAT    AOBASIS   BASIS     P2S    ABASIS      S
                                         1400     1410     1420     1200     1210     1080     1600     1650     1700
                                           T        V       ECP      H0       H01     AOSYM     SMH    MOLCAS    OPER

 PROGRAMS   *        TOTAL       INT
 CPU TIMES  *        84.76     84.50
 REAL TIME  *        98.80 SEC
 DISK USED  *         8.87 GB
 GA USED    *         0.00 MB       (max)       0.00 MB       (current)
 **********************************************************************************************************************************


 PROGRAM * RHF-SCF (CLOSED SHELL)       Authors: W. Meyer, H.-J. Werner


 NUMBER OF ELECTRONS:       8+    8-    SPACE SYMMETRY=1    SPIN SYMMETRY: Singlet
 CONVERGENCE THRESHOLDS:    1.00E-05 (Density)    1.00E-07 (Energy)
 MAX. NUMBER OF ITERATIONS:      200
 INTERPOLATION TYPE:            DIIS
 INTERPOLATION STEPS:              2 (START)      1 (STEP)
 LEVEL SHIFTS:                  0.00 (CLOSED)  0.00 (OPEN)

 Number of closed-shell orbitals:    8 (   4   2   2   0 )


 Orbital guess generated from atomic densities. Full valence occupancy:    7   3   3   1

 Molecular orbital dump at record        2202.2

 ITERATION    DDIFF          GRAD             ENERGY        2-EL.EN.            DIPOLE MOMENTS         DIIS   ORB.
    1      0.000D+00      0.000D+00       -55.18041047    102.089584    0.00000    0.00000   -7.77435    0    start
    2      0.000D+00      0.153D-01       -49.11832568     94.197744    0.00000    0.00000   23.08872    1    diag
    3      0.177D-01      0.497D-01       -55.48682485     99.361676    0.00000    0.00000   -5.82540    2    diag
    4      0.158D-01      0.479D-02       -55.52697771     98.811814    0.00000    0.00000   -4.60819    3    diag
    5      0.251D-02      0.185D-02       -55.53294923     98.456813    0.00000    0.00000   -4.07858    4    diag
    6      0.948D-03      0.398D-03       -55.53408094     98.349661    0.00000    0.00000   -3.92118    5    diag
    7      0.541D-03      0.415D-03       -55.53498571     98.298689    0.00000    0.00000   -3.83241    6    diag
    8      0.455D-03      0.414D-03       -55.53771764     98.079621    0.00000    0.00000   -3.45697    7    diag
    9      0.163D-02      0.361D-03       -55.53899028     97.883830    0.00000    0.00000   -3.10069    8    diag
   10      0.129D-02      0.240D-03       -55.53905874     97.943936    0.00000    0.00000   -3.20150    9    orth
   11      0.373D-03      0.143D-03       -55.53921886     97.822660    0.00000    0.00000   -2.99797    9    diag
   12      0.614D-03      0.400D-04       -55.53922306     97.838308    0.00000    0.00000   -3.03031    9    diag
   13      0.637D-04      0.131D-04       -55.53922588     97.823880    0.00000    0.00000   -3.00968    9    diag
   14      0.656D-04      0.333D-05       -55.53922603     97.821355    0.00000    0.00000   -3.00643    9    diag
   15      0.138D-04      0.833D-06       -55.53922603     97.820458    0.00000    0.00000   -3.00495    9    diag
   16      0.417D-05      0.741D-06       -55.53922603     97.820954    0.00000    0.00000   -3.00543    0    orth

 Final occupancy:   4   2   2   0

 !RHF STATE 1.1 Energy                -55.539226033744
   --><property name="Energy" method="RHF" principal="true" stateSymmetry="1" stateNumber="1"
     value="-55.5392260337439"/><!--
 Nuclear energy                        15.18508518
 One-electron energy                 -119.63478818
 Two-electron energy                   48.91047697
 Virial quotient                       -2.24867782
 !RHF STATE 1.1 Dipole moment           0.00000000     0.00000000    -3.00543415
 Dipole moment /Debye                   0.00000000     0.00000000    -7.63855133
   --><property name="Dipole moment" method="RHF" principal="true" stateSymmetry="1"
     stateNumber="1" value="0.0 0.0 -3.00543415112345"/><!--

 ELECTRON ORBITALS
 =================


   Orb  Occ    Energy  Couls-En    Coefficients

                                   1 1s      1 1s      1 1s      1 1s      1 1s      1 1s      1 1s      1 1s      1 1s      1 1s
                                   1 1s      1 1s      1 1s      1 1s      1 1s      1 1s      1 1s      1 1s      1 1s      1 1s
                                   1 1s      1 1s      1 1s      1 1s      1 1s      1 1s      1 1s      1 1s      1 1s      1 1s
                                   1 1s      1 2pz     1 2pz     1 2pz     1 2pz     1 2pz     1 2pz     1 2pz     1 2pz     1 2pz
                                   1 2pz     1 2pz     1 2pz     1 2pz     1 2pz     1 2pz     1 2pz     1 2pz     1 2pz     1 2pz
                                   1 2pz     1 2pz     1 2pz     1 2pz     1 2pz     1 2pz     1 2pz     1 2pz     1 3d0     1 3d2+
                                   1 3d0     1 3d2+    1 3d0     1 3d2+    1 3d0     1 3d2+    1 3d0     1 3d2+    1 3d0     1 3d2+
                                   1 3d0     1 3d2+    1 3d0     1 3d2+    1 3d0     1 3d2+    1 3d0     1 3d2+    1 3d0     1 3d2+
                                   1 3d0     1 3d2+    1 3d0     1 3d2+    1 3d0     1 3d2+    1 3d0     1 3d2+    1 3d0     1 3d2+
                                   1 3d0     1 3d2+    1 3d0     1 3d2+    1 4f0     1 4f2+    1 4f0     1 4f2+    1 4f0     1 4f2+
                                   1 4f0     1 4f2+    1 4f0     1 4f2+    1 4f0     1 4f2+    1 4f0     1 4f2+    1 4f0     1 4f2+
                                   1 4f0     1 4f2+    1 4f0     1 4f2+    1 4f0     1 4f2+    1 4f0     1 4f2+    1 4f0     1 4f2+
                                   1 5g0     1 5g4+    1 5g2+    1 5g0     1 5g4+    1 5g2+    1 5g0     1 5g4+    1 5g2+    1 5g0
                                   1 5g4+    1 5g2+    1 5g0     1 5g4+    1 5g2+    1 5g0     1 5g4+    1 5g2+    1 6h2+    1 6h4+
                                   1 6h0     1 6h2+    1 6h4+    1 6h0     1 6h2+    1 6h4+    1 6h0     2 1s      2 1s      2 1s
                                   2 1s      2 1s      2 1s      2 1s      2 1s      2 1s      2 1s      2 1s      2 1s      2 1s
                                   2 2pz     2 2pz     2 2pz     2 2pz     2 2pz     2 2pz     2 2pz     2 2pz     2 3d0     2 3d2+
                                   2 3d0     2 3d2+    2 3d0     2 3d2+    2 3d0     2 3d2+    2 4f0     2 4f2+    2 4f0     2 4f2+


   1.1   2    -2.8924  -12.3380 -0.000000  0.000000 -0.000000  0.000000 -0.000000  0.000000 -0.000000  0.000001 -0.000003  0.000008
                                -0.000019  0.000046 -0.000107  0.000239 -0.000511  0.001042 -0.001919  0.002871 -0.002636 -0.020668
                                 0.263345 -0.486028 -0.205139  0.193554  0.737428  0.329885  0.020682 -0.003438  0.005474 -0.003991
                                 0.001369 -0.000000  0.000000 -0.000000  0.000000 -0.000000  0.000000 -0.000000  0.000000 -0.000000
                                 0.000001 -0.000002  0.000005 -0.000014  0.000038 -0.000113  0.000683 -0.001923  0.002611  0.000178
                                -0.000867 -0.004989 -0.002629 -0.010304 -0.002990 -0.002594  0.001403  0.002874 -0.000000 -0.000000
                                 0.000000  0.000000 -0.000000  0.000000  0.000000 -0.000000 -0.000000  0.000000  0.000000 -0.000000
                                 0.000000  0.000000 -0.000002 -0.000000  0.000010  0.000000 -0.000056  0.000000  0.000288 -0.000000
                                 0.000705  0.000000 -0.005993 -0.000000 -0.004370 -0.000000  0.001253  0.000000 -0.001762 -0.000000
                                 0.002630  0.000000 -0.000903 -0.000000  0.000000  0.000000 -0.000000 -0.000000  0.000001  0.000000
                                -0.000002 -0.000000  0.000007  0.000000 -0.000016 -0.000000 -0.000026  0.000000 -0.000168  0.000000
                                -0.000346 -0.000000 -0.000205  0.000000  0.000128 -0.000000  0.000223  0.000000 -0.000021 -0.000000
                                 0.000002  0.000000  0.000000 -0.000007 -0.000000 -0.000000  0.000041  0.000000  0.000000  0.000210
                                -0.000000  0.000000  0.000062  0.000000 -0.000000  0.000030 -0.000000  0.000000  0.000000  0.000000
                                 0.000002 -0.000000  0.000000 -0.000016  0.000000  0.000000  0.000085 -0.000000  0.000000 -0.000000
                                 0.000001 -0.000007  0.000220 -0.000277  0.000730  0.001358  0.001557 -0.000577 -0.000295 -0.000362
                                -0.000027 -0.000226 -0.000641 -0.001105 -0.001470  0.000024 -0.000002  0.000007  0.000051  0.000000
                                 0.000432 -0.000000  0.000675 -0.000000  0.000008 -0.000000 -0.000014 -0.000000 -0.000352  0.000000

   2.1   2    -1.6619   -9.7969 -0.000000  0.000000 -0.000000  0.000000 -0.000000  0.000000 -0.000000  0.000000 -0.000000  0.000000
                                -0.000001  0.000002 -0.000004  0.000010 -0.000021  0.000043 -0.000080  0.000121 -0.000119 -0.000380
                                 0.006452 -0.012278 -0.006909  0.007701  0.031197 -0.001516 -0.019852  0.007105 -0.026348 -0.005619
                                 0.004912  0.000000 -0.000000  0.000000 -0.000000  0.000000 -0.000000  0.000000 -0.000001  0.000004
                                -0.000014  0.000040 -0.000111  0.000302 -0.000868  0.002208 -0.013364  0.075965 -0.147746 -0.052393
                                 0.200083  0.478019  0.016794  0.374632 -0.009503  0.074196 -0.023362  0.010625  0.000000  0.000000
                                -0.000000 -0.000000  0.000000  0.000000 -0.000000 -0.000000  0.000001  0.000000 -0.000004 -0.000000
                                 0.000011  0.000000 -0.000029 -0.000000  0.000071  0.000000 -0.000203 -0.000000  0.000771  0.000000
                                 0.000629  0.000000 -0.008705 -0.000000 -0.014099 -0.000000 -0.004677 -0.000000 -0.005653  0.000000
                                -0.005433 -0.000000  0.004024  0.000000 -0.000000 -0.000000  0.000000  0.000000 -0.000000 -0.000000
                                -0.000000  0.000000  0.000007 -0.000000 -0.000013  0.000000 -0.000284  0.000000 -0.000455  0.000000
                                -0.003280 -0.000000 -0.001705  0.000000 -0.000556  0.000000 -0.003355 -0.000000  0.001118  0.000000
                                -0.000001  0.000000  0.000000  0.000008 -0.000000 -0.000000 -0.000018  0.000000  0.000000  0.000382
                                -0.000000  0.000000 -0.001294  0.000000 -0.000000  0.000416  0.000000 -0.000000 -0.000000 -0.000000
                                 0.000006 -0.000000  0.000000 -0.000135  0.000000 -0.000000  0.000417 -0.000000  0.000000 -0.000002
                                 0.000014 -0.000126  0.005008 -0.010330  0.016964  0.050231  0.036531  0.029252 -0.004249 -0.008016
                                -0.000325 -0.002757 -0.008302 -0.014495 -0.014606 -0.009101 -0.000083  0.000087  0.000456 -0.000000
                                 0.003161 -0.000000  0.002925 -0.000000  0.000028  0.000000 -0.000341  0.000000 -0.001268  0.000000

   3.1   2    -1.3162   -8.6575  0.000000 -0.000000  0.000000 -0.000000  0.000000 -0.000000  0.000000 -0.000000  0.000000 -0.000000
                                 0.000001 -0.000002  0.000005 -0.000011  0.000023 -0.000047  0.000087 -0.000132  0.000124  0.000895
                                -0.012035  0.023072  0.008915 -0.007350 -0.051132 -0.027516  0.046957 -0.005231 -0.024001  0.001612
                                 0.004957 -0.000000  0.000000 -0.000000  0.000000 -0.000000  0.000000 -0.000000  0.000000 -0.000000
                                 0.000001 -0.000004  0.000011 -0.000031  0.000091 -0.000207  0.001255 -0.010241  0.021706  0.008840
                                -0.033142 -0.066682 -0.029333 -0.033078  0.060095 -0.012396 -0.024010 -0.053187 -0.000000 -0.000000
                                 0.000000  0.000000 -0.000001 -0.000000  0.000003  0.000000 -0.000010 -0.000000  0.000029  0.000000
                                -0.000076 -0.000000  0.000180  0.000000 -0.000386 -0.000000  0.000847  0.000000 -0.002181 -0.000000
                                 0.000140 -0.000000  0.012090  0.000000  0.023510  0.000000 -0.000939  0.000000 -0.022576 -0.000000
                                 0.018816  0.000000 -0.001072 -0.000000  0.000000 -0.000000 -0.000001  0.000000  0.000003 -0.000000
                                -0.000009  0.000000  0.000012 -0.000000 -0.000043  0.000000  0.000700  0.000000  0.000993  0.000000
                                 0.003290  0.000000  0.004148  0.000000 -0.008459 -0.000000  0.002041  0.000000  0.001968 -0.000000
                                 0.000008  0.000000  0.000000 -0.000033 -0.000000 -0.000000  0.000425  0.000000  0.000000  0.000966
                                 0.000000  0.000000 -0.004115 -0.000000 -0.000000  0.003091  0.000000  0.000000 -0.000000  0.000000
                                 0.000021  0.000000 -0.000000 -0.000097 -0.000000  0.000000  0.000737 -0.000000  0.000004 -0.000026
                                 0.000165 -0.001428  0.054242 -0.100867  0.189080  0.546268  0.407009  0.043074 -0.053238 -0.088121
                                -0.000153 -0.001016 -0.004856 -0.007442 -0.041553 -0.015871 -0.000344  0.000038 -0.000523  0.000000
                                 0.002414  0.000000  0.009829 -0.000000 -0.000272  0.000000  0.000074  0.000000 -0.002531 -0.000000

   4.1   2    -0.5103   -6.3810 -0.000000  0.000000 -0.000000  0.000000 -0.000000  0.000000 -0.000000  0.000000 -0.000001  0.000003
                                -0.000006  0.000015 -0.000036  0.000080 -0.000170  0.000348 -0.000646  0.000983 -0.000950 -0.004849
                                 0.071831 -0.139184 -0.060580  0.053486  0.329430  0.257747 -0.087337 -0.474605 -0.267026  0.112740
                                -0.062202  0.000000 -0.000000  0.000000 -0.000000  0.000000 -0.000000  0.000000 -0.000000  0.000000
                                -0.000001  0.000003 -0.000008  0.000022 -0.000062  0.000160 -0.000886  0.004698 -0.009175 -0.002956
                                 0.013232  0.029146  0.024939 -0.001801  0.422931 -0.020142  0.077233 -0.413290  0.000000  0.000000
                                -0.000001 -0.000000  0.000003  0.000000 -0.000015 -0.000000  0.000050  0.000000 -0.000150 -0.000000
                                 0.000396  0.000000 -0.000939 -0.000000  0.002025  0.000000 -0.004529 -0.000000  0.012129  0.000000
                                -0.000450  0.000000 -0.075054 -0.000000 -0.133237 -0.000000 -0.089678 -0.000000  0.071711  0.000000
                                -0.042240 -0.000000  0.001596  0.000000 -0.000000  0.000000  0.000001 -0.000000 -0.000003  0.000000
                                 0.000009 -0.000000 -0.000001  0.000000  0.000023 -0.000000 -0.001211 -0.000000 -0.002140 -0.000000
                                -0.004546 -0.000000 -0.011213  0.000000  0.003545  0.000000  0.012309 -0.000000 -0.005202  0.000000
                                -0.000006  0.000000  0.000000  0.000019 -0.000000 -0.000000 -0.000435  0.000000  0.000000 -0.003971
                                 0.000000  0.000000  0.005717 -0.000000 -0.000000 -0.002282  0.000000  0.000000 -0.000000  0.000000
                                -0.000035 -0.000000 -0.000000  0.000252  0.000000  0.000000 -0.001704 -0.000000  0.000001 -0.000004
                                 0.000026 -0.000228  0.008905 -0.016415  0.033378  0.105338  0.103405 -0.045983 -0.009156 -0.014659
                                 0.006291  0.053787  0.175428  0.284145  0.241896  0.065028  0.003437 -0.001659 -0.002998 -0.000000
                                -0.012173 -0.000000 -0.017587  0.000000 -0.000314 -0.000000  0.002330  0.000000  0.004772  0.000000

   5.1   0    -0.2543   -5.0280  0.000000 -0.000000  0.000000 -0.000000  0.000000 -0.000000  0.000000 -0.000000  0.000001 -0.000002
                                 0.000005 -0.000012  0.000028 -0.000063  0.000134 -0.000275  0.000510 -0.000777  0.000758  0.003064
                                -0.048573  0.093763  0.045749 -0.044154 -0.212761 -0.172510 -0.054407  0.313384  0.431970  0.061234
                                 0.115615  0.000000 -0.000000  0.000000 -0.000000  0.000000 -0.000000  0.000000 -0.000000  0.000002
                                -0.000005  0.000014 -0.000039  0.000106 -0.000299  0.000828 -0.004711  0.018423 -0.032002 -0.007050
                                 0.035881  0.127104 -0.023596  0.124662 -0.094271 -0.106603 -0.278610  0.035159  0.000000  0.000000
                                -0.000001 -0.000000  0.000004  0.000000 -0.000016 -0.000000  0.000055  0.000000 -0.000163 -0.000000
                                 0.000430  0.000000 -0.001018 -0.000000  0.002189  0.000000 -0.004870 -0.000000  0.012911  0.000000
                                -0.001081 -0.000000 -0.075721  0.000000 -0.137377  0.000000 -0.141400 -0.000000  0.021419 -0.000000
                                -0.074323 -0.000000  0.021701 -0.000000 -0.000000 -0.000000  0.000001  0.000000 -0.000005 -0.000000
                                 0.000016  0.000000 -0.000024  0.000000  0.000076 -0.000000 -0.001128 -0.000000 -0.001476 -0.000000
                                -0.004922 -0.000000 -0.006738 -0.000000  0.010544 -0.000000 -0.000746 -0.000000  0.001183 -0.000000
                                -0.000004  0.000000 -0.000000  0.000011 -0.000000 -0.000000 -0.000266  0.000000 -0.000000 -0.000762
                                 0.000000  0.000000  0.003018  0.000000  0.000000 -0.002455  0.000000  0.000000 -0.000000 -0.000000
                                -0.000024 -0.000000  0.000000  0.000133  0.000000 -0.000000 -0.001180 -0.000000  0.000000 -0.000000
                                 0.000001 -0.000012  0.000823 -0.002726  0.003480  0.017256  0.018408  0.049626 -0.000167 -0.001284
                                 0.004769  0.040761  0.133984  0.215962  0.196910  0.054813  0.002726 -0.001256 -0.001552 -0.000000
                                -0.006386 -0.000000 -0.011211 -0.000000 -0.000155 -0.000000  0.001625 -0.000000  0.004002 -0.000000

   6.1   0    -0.1662   -5.1591  0.000000  0.000000 -0.000000  0.000000 -0.000000  0.000000 -0.000000  0.000000 -0.000000  0.000000
                                -0.000000  0.000000 -0.000000  0.000000 -0.000000  0.000000 -0.000000  0.000000 -0.000000 -0.000000
                                 0.000000 -0.000000 -0.000000  0.000000  0.000000  0.000000 -0.000000  0.000000 -0.000000  0.000000
                                -0.000000  0.000000 -0.000000  0.000000  0.000000  0.000000 -0.000000  0.000000 -0.000000  0.000000
                                -0.000000  0.000000 -0.000000  0.000000 -0.000000  0.000000 -0.000000  0.000000 -0.000000 -0.000000
                                 0.000000  0.000000 -0.000000  0.000000 -0.000001 -0.000000 -0.000000  0.000001 -0.000000 -0.000000
                                 0.000000  0.000002 -0.000000 -0.000010  0.000000  0.000040 -0.000000 -0.000140  0.000000  0.000417
                                -0.000000 -0.001099  0.000000  0.002612 -0.000000 -0.005648  0.000000  0.012725 -0.000000 -0.034521
                                -0.000000  0.000160  0.000000  0.221063  0.000000  0.375673  0.000000  0.424956  0.000000  0.099273
                                -0.000000  0.092075  0.000000  0.083646 -0.000000  0.000000  0.000000 -0.000001 -0.000000  0.000004
                                -0.000000 -0.000016  0.000000  0.000072 -0.000000 -0.000149 -0.000000 -0.000964 -0.000000 -0.003138
                                -0.000000 -0.003832 -0.000000 -0.018344 -0.000000 -0.040129 -0.000000 -0.016081 -0.000000 -0.016872
                                -0.000000 -0.000000 -0.000017  0.000000  0.000000  0.000076 -0.000000  0.000000 -0.000686 -0.000000
                                -0.000000 -0.009234 -0.000000 -0.000000 -0.007110 -0.000000  0.000000 -0.000371  0.000005  0.000000
                                -0.000000 -0.000038 -0.000000  0.000000 -0.000013  0.000000 -0.000000  0.000000 -0.000000  0.000000
                                -0.000000  0.000000  0.000000 -0.000000  0.000000  0.000000  0.000000  0.000000  0.000000 -0.000000
                                 0.000000  0.000000  0.000000  0.000000  0.000000  0.000000  0.000000 -0.000000 -0.000000  0.000525
                                -0.000000  0.002375 -0.000000  0.003022 -0.000000  0.000046  0.000000 -0.000191  0.000000 -0.001069

                                   1 2px     1 2px     1 2px     1 2px     1 2px     1 2px     1 2px     1 2px     1 2px     1 2px
                                   1 2px     1 2px     1 2px     1 2px     1 2px     1 2px     1 2px     1 2px     1 2px     1 2px
                                   1 2px     1 2px     1 2px     1 2px     1 2px     1 2px     1 2px     1 3d1+    1 3d1+    1 3d1+
                                   1 3d1+    1 3d1+    1 3d1+    1 3d1+    1 3d1+    1 3d1+    1 3d1+    1 3d1+    1 3d1+    1 3d1+
                                   1 3d1+    1 3d1+    1 3d1+    1 3d1+    1 3d1+    1 4f1+    1 4f3+    1 4f1+    1 4f3+    1 4f1+
                                   1 4f3+    1 4f1+    1 4f3+    1 4f1+    1 4f3+    1 4f1+    1 4f3+    1 4f1+    1 4f3+    1 4f1+
                                   1 4f3+    1 4f1+    1 4f3+    1 4f1+    1 4f3+    1 4f1+    1 4f3+    1 4f1+    1 4f3+    1 4f1+
                                   1 4f3+    1 5g1+    1 5g3+    1 5g1+    1 5g3+    1 5g1+    1 5g3+    1 5g1+    1 5g3+    1 5g1+
                                   1 5g3+    1 5g1+    1 5g3+    1 6h1+    1 6h3+    1 6h5+    1 6h1+    1 6h3+    1 6h5+    1 6h1+
                                   1 6h3+    1 6h5+    2 2px     2 2px     2 2px     2 2px     2 2px     2 2px     2 2px     2 2px
                                   2 3d1+    2 3d1+    2 3d1+    2 3d1+    2 4f1+    2 4f3+    2 4f1+    2 4f3+

   1.2   2    -1.6748   -9.7349  0.000000 -0.000000  0.000000 -0.000000  0.000000 -0.000000  0.000000 -0.000001  0.000005 -0.000015
                                 0.000043 -0.000119  0.000322 -0.000924  0.002375 -0.014334  0.078461 -0.150980 -0.052302  0.201254
                                 0.485720  0.021177  0.381381  0.073630  0.065456 -0.008241 -0.070663  0.000000 -0.000000  0.000000
                                -0.000001  0.000002 -0.000006  0.000016 -0.000040  0.000090 -0.000227  0.000733  0.000374 -0.006535
                                -0.012819 -0.002624  0.001333 -0.001699  0.000294 -0.000000  0.000000  0.000000 -0.000000 -0.000002
                                 0.000000  0.000004 -0.000000 -0.000003  0.000000  0.000014 -0.000000 -0.000456  0.000000 -0.000627
                                 0.000000 -0.003746 -0.000000 -0.002649 -0.000000  0.000412  0.000000 -0.000617 -0.000000  0.000011
                                 0.000000 -0.000003  0.000000  0.000015 -0.000000 -0.000099  0.000000 -0.000094  0.000000 -0.000089
                                -0.000000 -0.000132 -0.000000  0.000001 -0.000000  0.000000 -0.000076 -0.000000  0.000000  0.000148
                                 0.000000 -0.000000  0.000086  0.000745  0.002214  0.003695  0.002650  0.000846  0.000008 -0.000023
                                -0.000146 -0.000945 -0.000785 -0.000018  0.000095 -0.000000  0.000529 -0.000000

   2.2   2    -0.5883   -7.0405 -0.000000  0.000000 -0.000000  0.000000 -0.000000  0.000000 -0.000000  0.000000 -0.000000  0.000001
                                -0.000002  0.000006 -0.000016  0.000046 -0.000115  0.000653 -0.004058  0.008240  0.002848 -0.011826
                                -0.030700 -0.001552 -0.030565 -0.053556  0.034417  0.038549  0.047751 -0.000000  0.000000 -0.000002
                                 0.000008 -0.000029  0.000086 -0.000226  0.000534 -0.001145  0.002523 -0.006570  0.000665  0.037356
                                 0.067585  0.076338 -0.042074  0.075016 -0.032028 -0.000000  0.000000  0.000002 -0.000000 -0.000007
                                 0.000000  0.000024 -0.000000 -0.000096  0.000000  0.000207 -0.000000  0.000801  0.000000  0.003435
                                 0.000000  0.002866  0.000000  0.016852  0.000000  0.006825  0.000000  0.004477 -0.000000 -0.001754
                                 0.000000  0.000008  0.000000 -0.000024 -0.000000  0.000586  0.000000  0.006341 -0.000000 -0.005226
                                -0.000000  0.003496 -0.000000  0.000077 -0.000000  0.000000 -0.000584  0.000000 -0.000000  0.002285
                                -0.000000  0.000000  0.009794  0.084320  0.276615  0.432590  0.357075  0.046611  0.005272 -0.002579
                                -0.002698 -0.011431 -0.024679 -0.000277  0.002444 -0.000000  0.007241 -0.000000

   3.2   0    -0.1713   -4.0588 -0.000000  0.000000 -0.000000  0.000000 -0.000000  0.000000 -0.000000  0.000000 -0.000001  0.000004
                                -0.000011  0.000031 -0.000083  0.000237 -0.000624  0.003539 -0.017524  0.033430  0.009591 -0.042920
                                -0.138963  0.027720 -0.148521  0.022165  0.109824  0.455404  0.261359  0.000000 -0.000001  0.000006
                                -0.000024  0.000084 -0.000250  0.000659 -0.001565  0.003385 -0.007630  0.020703 -0.000005 -0.133285
                                -0.219907 -0.262323 -0.157825  0.018256 -0.129605 -0.000000  0.000000  0.000000 -0.000000 -0.000002
                                 0.000000  0.000008 -0.000000 -0.000050  0.000000  0.000094 -0.000000  0.001063  0.000000  0.002766
                                 0.000000  0.005135  0.000000  0.015238  0.000000  0.018957 -0.000000  0.004162 -0.000000  0.006959
                                -0.000000  0.000015  0.000000 -0.000069 -0.000000  0.000633 -0.000000  0.008300  0.000000  0.005654
                                 0.000000  0.000298  0.000000  0.000002 -0.000000 -0.000000  0.000000  0.000000 -0.000000  0.000114
                                -0.000000 -0.000000  0.000627  0.005381  0.018167  0.027896  0.027529  0.021147  0.000416 -0.000164
                                 0.000286  0.002388 -0.001126  0.000038 -0.000073  0.000000 -0.000961 -0.000000

   4.2   0    -0.1089   -4.5433  0.000000 -0.000000  0.000000 -0.000000  0.000000 -0.000000  0.000000 -0.000000  0.000001 -0.000002
                                 0.000006 -0.000016  0.000041 -0.000111  0.000395 -0.002267 -0.001125  0.009985  0.008689 -0.027870
                                -0.030263 -0.051937 -0.019718 -4.754946 -0.010603  0.324389  5.196568 -0.000000  0.000001 -0.000008
                                 0.000033 -0.000113  0.000338 -0.000892  0.002120 -0.004590  0.010367 -0.028263 -0.000009  0.183385
                                 0.311374  0.337479 -0.081762  0.270188 -0.104752  0.000000 -0.000000 -0.000002 -0.000000  0.000008
                                 0.000000 -0.000032 -0.000000  0.000135  0.000000 -0.000283 -0.000000 -0.001562  0.000000 -0.005488
                                -0.000000 -0.005631  0.000000 -0.028980  0.000000 -0.077143 -0.000000 -0.046172 -0.000000 -0.064112
                                -0.000000 -0.000021 -0.000000  0.000094  0.000000 -0.000926  0.000000 -0.012579 -0.000000 -0.010820
                                -0.000000 -0.001800  0.000000 -0.000003  0.000000  0.000000  0.000025 -0.000000 -0.000000 -0.000284
                                 0.000000  0.000000 -0.002809 -0.024183 -0.081269 -0.125272 -0.120602 -0.060598 -0.001774  0.000736
                                -0.001155 -0.006578 -0.003068 -0.000102 -0.000201 -0.000000  0.000923  0.000000

                                   1 2py     1 2py     1 2py     1 2py     1 2py     1 2py     1 2py     1 2py     1 2py     1 2py
                                   1 2py     1 2py     1 2py     1 2py     1 2py     1 2py     1 2py     1 2py     1 2py     1 2py
                                   1 2py     1 2py     1 2py     1 2py     1 2py     1 2py     1 2py     1 3d1-    1 3d1-    1 3d1-
                                   1 3d1-    1 3d1-    1 3d1-    1 3d1-    1 3d1-    1 3d1-    1 3d1-    1 3d1-    1 3d1-    1 3d1-
                                   1 3d1-    1 3d1-    1 3d1-    1 3d1-    1 3d1-    1 4f1-    1 4f3-    1 4f1-    1 4f3-    1 4f1-
                                   1 4f3-    1 4f1-    1 4f3-    1 4f1-    1 4f3-    1 4f1-    1 4f3-    1 4f1-    1 4f3-    1 4f1-
                                   1 4f3-    1 4f1-    1 4f3-    1 4f1-    1 4f3-    1 4f1-    1 4f3-    1 4f1-    1 4f3-    1 4f1-
                                   1 4f3-    1 5g1-    1 5g3-    1 5g1-    1 5g3-    1 5g1-    1 5g3-    1 5g1-    1 5g3-    1 5g1-
                                   1 5g3-    1 5g1-    1 5g3-    1 6h1-    1 6h3-    1 6h5-    1 6h1-    1 6h3-    1 6h5-    1 6h1-
                                   1 6h3-    1 6h5-    2 2py     2 2py     2 2py     2 2py     2 2py     2 2py     2 2py     2 2py
                                   2 3d1-    2 3d1-    2 3d1-    2 3d1-    2 4f1-    2 4f3-    2 4f1-    2 4f3-

   1.3   2    -1.6748   -9.7349  0.000000 -0.000000  0.000000 -0.000000  0.000000 -0.000000  0.000000 -0.000001  0.000005 -0.000015
                                 0.000043 -0.000119  0.000322 -0.000924  0.002375 -0.014334  0.078461 -0.150980 -0.052302  0.201254
                                 0.485720  0.021177  0.381381  0.073630  0.065456 -0.008241 -0.070663  0.000000 -0.000000  0.000000
                                -0.000001  0.000002 -0.000006  0.000016 -0.000040  0.000090 -0.000227  0.000733  0.000374 -0.006535
                                -0.012819 -0.002624  0.001333 -0.001699  0.000294 -0.000000  0.000000  0.000000 -0.000000 -0.000002
                                 0.000000  0.000004 -0.000000 -0.000003  0.000000  0.000014 -0.000000 -0.000456  0.000000 -0.000627
                                -0.000000 -0.003746 -0.000000 -0.002649 -0.000000  0.000412  0.000000 -0.000617 -0.000000  0.000011
                                 0.000000 -0.000003 -0.000000  0.000015  0.000000 -0.000099  0.000000 -0.000094  0.000000 -0.000089
                                -0.000000 -0.000132 -0.000000  0.000001 -0.000000  0.000000 -0.000076 -0.000000  0.000000  0.000148
                                 0.000000  0.000000  0.000086  0.000745  0.002214  0.003695  0.002650  0.000846  0.000008 -0.000023
                                -0.000146 -0.000945 -0.000785 -0.000018  0.000095 -0.000000  0.000529 -0.000000

   2.3   2    -0.5883   -7.0405 -0.000000  0.000000 -0.000000  0.000000 -0.000000  0.000000 -0.000000  0.000000 -0.000000  0.000001
                                -0.000002  0.000006 -0.000016  0.000046 -0.000115  0.000653 -0.004058  0.008240  0.002848 -0.011826
                                -0.030700 -0.001552 -0.030565 -0.053556  0.034417  0.038549  0.047751 -0.000000  0.000000 -0.000002
                                 0.000008 -0.000029  0.000086 -0.000226  0.000534 -0.001145  0.002523 -0.006570  0.000665  0.037356
                                 0.067585  0.076338 -0.042074  0.075016 -0.032028 -0.000000  0.000000  0.000002 -0.000000 -0.000007
                                 0.000000  0.000024 -0.000000 -0.000096 -0.000000  0.000207 -0.000000  0.000801  0.000000  0.003435
                                 0.000000  0.002866  0.000000  0.016852  0.000000  0.006825  0.000000  0.004477 -0.000000 -0.001754
                                 0.000000  0.000008  0.000000 -0.000024 -0.000000  0.000586  0.000000  0.006341  0.000000 -0.005226
                                -0.000000  0.003496 -0.000000  0.000077 -0.000000 -0.000000 -0.000584  0.000000  0.000000  0.002285
                                -0.000000 -0.000000  0.009794  0.084320  0.276615  0.432590  0.357075  0.046611  0.005272 -0.002579
                                -0.002698 -0.011431 -0.024679 -0.000277  0.002444 -0.000000  0.007241 -0.000000

   3.3   0    -0.1713   -4.0588 -0.000000  0.000000 -0.000000  0.000000 -0.000000  0.000000 -0.000000  0.000000 -0.000001  0.000004
                                -0.000011  0.000031 -0.000083  0.000237 -0.000624  0.003539 -0.017524  0.033430  0.009591 -0.042920
                                -0.138963  0.027720 -0.148521  0.022165  0.109824  0.455404  0.261359  0.000000 -0.000001  0.000006
                                -0.000024  0.000084 -0.000250  0.000659 -0.001565  0.003385 -0.007630  0.020703 -0.000005 -0.133285
                                -0.219907 -0.262323 -0.157825  0.018256 -0.129605 -0.000000  0.000000  0.000000 -0.000000 -0.000002
                                 0.000000  0.000008 -0.000000 -0.000050  0.000000  0.000094 -0.000000  0.001063  0.000000  0.002766
                                 0.000000  0.005135  0.000000  0.015238  0.000000  0.018957 -0.000000  0.004162 -0.000000  0.006959
                                -0.000000  0.000015  0.000000 -0.000069 -0.000000  0.000633 -0.000000  0.008300  0.000000  0.005654
                                 0.000000  0.000298  0.000000  0.000002 -0.000000  0.000000  0.000000  0.000000 -0.000000  0.000114
                                -0.000000  0.000000  0.000627  0.005381  0.018167  0.027896  0.027529  0.021147  0.000416 -0.000164
                                 0.000286  0.002388 -0.001126  0.000038 -0.000073  0.000000 -0.000961 -0.000000

   4.3   0    -0.1089   -4.5433  0.000000 -0.000000  0.000000 -0.000000  0.000000 -0.000000  0.000000 -0.000000  0.000001 -0.000002
                                 0.000006 -0.000016  0.000041 -0.000111  0.000395 -0.002267 -0.001125  0.009985  0.008689 -0.027870
                                -0.030263 -0.051937 -0.019718 -4.754945 -0.010603  0.324389  5.196567 -0.000000  0.000001 -0.000008
                                 0.000033 -0.000113  0.000338 -0.000892  0.002120 -0.004590  0.010367 -0.028263 -0.000009  0.183385
                                 0.311374  0.337479 -0.081762  0.270188 -0.104752  0.000000 -0.000000 -0.000002  0.000000  0.000008
                                -0.000000 -0.000032  0.000000  0.000135 -0.000000 -0.000283 -0.000000 -0.001562  0.000000 -0.005488
                                -0.000000 -0.005631  0.000000 -0.028980  0.000000 -0.077143 -0.000000 -0.046172 -0.000000 -0.064112
                                -0.000000 -0.000021 -0.000000  0.000094  0.000000 -0.000926  0.000000 -0.012579 -0.000000 -0.010820
                                -0.000000 -0.001800  0.000000 -0.000003  0.000000  0.000000  0.000025 -0.000000 -0.000000 -0.000284
                                 0.000000  0.000000 -0.002809 -0.024183 -0.081269 -0.125272 -0.120602 -0.060598 -0.001774  0.000736
                                -0.001155 -0.006578 -0.003068 -0.000102 -0.000201 -0.000000  0.000923  0.000000

                                   1 3d2-    1 3d2-    1 3d2-    1 3d2-    1 3d2-    1 3d2-    1 3d2-    1 3d2-    1 3d2-    1 3d2-
                                   1 3d2-    1 3d2-    1 3d2-    1 3d2-    1 3d2-    1 3d2-    1 3d2-    1 3d2-    1 4f2-    1 4f2-
                                   1 4f2-    1 4f2-    1 4f2-    1 4f2-    1 4f2-    1 4f2-    1 4f2-    1 4f2-    1 4f2-    1 4f2-
                                   1 4f2-    1 5g2-    1 5g4-    1 5g2-    1 5g4-    1 5g2-    1 5g4-    1 5g2-    1 5g4-    1 5g2-
                                   1 5g4-    1 5g2-    1 5g4-    1 6h4-    1 6h2-    1 6h4-    1 6h2-    1 6h4-    1 6h2-    2 3d2-
                                   2 3d2-    2 3d2-    2 3d2-    2 4f2-    2 4f2-

   1.4   0    -0.1662   -5.1591 -0.000000  0.000002 -0.000010  0.000040 -0.000140  0.000417 -0.001099  0.002612 -0.005648  0.012725
                                -0.034521  0.000160  0.221063  0.375673  0.424956  0.099273  0.092075  0.083646  0.000000 -0.000001
                                 0.000004 -0.000016  0.000072 -0.000149 -0.000964 -0.003138 -0.003832 -0.018344 -0.040129 -0.016081
                                -0.016872 -0.000017 -0.000000  0.000076  0.000000 -0.000686  0.000000 -0.009234 -0.000000 -0.007110
                                -0.000000 -0.000371 -0.000000  0.000000  0.000005 -0.000000 -0.000038  0.000000 -0.000013  0.000525
                                 0.002375  0.003022  0.000046 -0.000191 -0.001069

   2.4   0    -0.0444   -2.1979  0.000000 -0.000000  0.000002 -0.000009  0.000030 -0.000090  0.000242 -0.000593  0.001354 -0.003440
                                 0.011083  0.005554 -0.104649 -0.127218 -0.383429  2.296675 -4.663132  3.463291 -0.000000  0.000003
                                -0.000011  0.000038 -0.000111  0.000266 -0.000378  0.001660 -0.002022  0.012113 -0.033903  0.064396
                                -0.307350  0.000008  0.000000 -0.000034 -0.000000  0.000320 -0.000000  0.004263  0.000000 -0.002158
                                -0.000000  0.005321 -0.000000 -0.000000  0.000002 -0.000000 -0.000023 -0.000000  0.000132 -0.000069
                                -0.000095 -0.000297 -0.000002  0.000178 -0.000325

 HOMO      4.1    -0.510326 =     -13.8867eV
 LUMO      5.1    -0.254268 =      -6.9190eV
 LUMO-HOMO         0.256058 =       6.9677eV


 **********************************************************************************************************************************
 DATASETS  * FILE   NREC   LENGTH (MB)   RECORD NAMES
              1      19       22.47       500      610      700      900      950      970     1000      129      960     1100
                                          VAR    BASINP    GEOM    SYMINP    ZMAT    AOBASIS   BASIS     P2S    ABASIS      S
                                         1400     1410     1420     1200     1210     1080     1600     1650     1700
                                           T        V       ECP      H0       H01     AOSYM     SMH    MOLCAS    OPER

              2       4        4.02       700     1000      520     2202
                                         GEOM     BASIS   MCVARS     RHF

 PROGRAMS   *        TOTAL       RHF       INT
 CPU TIMES  *        93.87      9.09     84.50
 REAL TIME  *       108.69 SEC
 DISK USED  *         9.21 GB
 SF USED    *         0.24 MB
 GA USED    *         0.00 MB       (max)       0.00 MB       (current)
 **********************************************************************************************************************************
   -->
   <time start="07:48:24" end="07:50:12" cpu="93.87" system="14.1" real="108.69"/>
   <storage units="megabyte" memory="8001.84" sf="0.24" df="339.45" eaf="8871.8" ga="0.0"/>
  </jobstep><!--
  --><jobstep command="RHF-SCF" commandset="SCFPRO">
   <!--


 PROGRAM * RHF-SCF (OPEN SHELL)       Authors: W. Meyer, H.-J. Werner


 NUMBER OF ELECTRONS:       9+    8-    SPACE SYMMETRY=1    SPIN SYMMETRY: Doublet
 CONVERGENCE THRESHOLDS:    1.00E-05 (Density)    1.00E-07 (Energy)
 MAX. NUMBER OF ITERATIONS:      200
 INTERPOLATION TYPE:            DIIS
 INTERPOLATION STEPS:              2 (START)      1 (STEP)
 LEVEL SHIFTS:                 -0.60 (CLOSED) -0.30 (OPEN)

 Number of closed-shell orbitals:    8 (   4   2   2   0 )
 Number of open-shell orbitals:      1 (   1   0   0   0 )


 Molecular orbitals read from record     2202.2  Type=RHF/CANONICAL (state 1.1)

 Molecular orbital dump at record        3202.2

 ITERATION    DDIFF          GRAD             ENERGY        2-EL.EN.            DIPOLE MOMENTS         DIIS   ORB.
    1      0.000D+00      0.000D+00       -55.79349412    106.859790    0.00000    0.00000   -3.18047    0    start
    2      0.000D+00      0.251D-02       -55.80501742    105.761133    0.00000    0.00000   -3.03138    1    diag,B
    3      0.151D-02      0.122D-02       -55.80871875    105.751368    0.00000    0.00000   -3.12389    2    diag,B
    4      0.711D-03      0.715D-03       -55.81335087    105.438604    0.00000    0.00000   -3.05023    3    diag,B
    5      0.906D-03      0.527D-03       -55.81770051    105.228630    0.00000    0.00000   -2.89737    4    diag,B
    6      0.103D-02      0.505D-03       -55.81869948    105.188683    0.00000    0.00000   -2.84993    5    diag,B
    7      0.225D-03      0.520D-03       -55.81061749    105.525566    0.00000    0.00000   -3.36952    6    diag,B
    8      0.117D-02      0.468D-03       -55.81008569    105.578080    0.00000    0.00000   -3.44891    7    orth
    9      0.412D-03      0.410D-03       -55.80881924    105.748058    0.00000    0.00000   -3.76465    8    diag,B
   10      0.215D-02      0.254D-03       -55.80854070    105.846593    0.00000    0.00000   -3.92304    9    diag,B
   11      0.944D-03      0.222D-03       -55.80833897    105.880300    0.00000    0.00000   -4.01183    9    diag,B
   12      0.103D-02      0.273D-03       -55.80860579    105.856121    0.00000    0.00000   -3.94017    9    diag,B
   13      0.582D-03      0.177D-03       -55.80887806    105.818936    0.00000    0.00000   -3.88164    9    diag,B
   14      0.127D-02      0.145D-03       -55.80909485    105.759679    0.00000    0.00000   -3.80423    9    diag,B
   15      0.364D-03      0.213D-03       -55.80922370    105.742828    0.00000    0.00000   -3.77806    9    diag,B
   16      0.183D-03      0.197D-03       -55.80917854    105.753673    0.00000    0.00000   -3.79242    9    diag,B
   17      0.668D-04      0.188D-03       -55.80905858    105.788448    0.00000    0.00000   -3.84115    9    diag,B
   18      0.120D-03      0.143D-03       -55.80890715    105.832421    0.00000    0.00000   -3.90996    9    orth
   19      0.666D-03      0.919D-04       -55.80875504    105.879729    0.00000    0.00000   -3.98486    9    diag,B
   20      0.591D-03      0.624D-04       -55.80859174    105.911768    0.00000    0.00000   -4.04943    9    diag,B
   21      0.332D-03      0.759D-04       -55.80897344    105.817935    0.00000    0.00000   -3.87840    9    diag,B
   22      0.593D-03      0.815D-04       -55.80868050    105.902840    0.00000    0.00000   -4.02564    9    diag,B
   23      0.478D-03      0.452D-04       -55.80797162    105.900324    0.00000    0.00000   -4.10633    9    diag,B
   24      0.629D-03      0.247D-03       -55.80839949    105.919051    0.00000    0.00000   -4.08914    9    diag,B
   25      0.283D-03      0.123D-03       -55.80752111    105.876344    0.00000    0.00000   -4.10376    9    diag,B
   26      0.565D-03      0.358D-03       -55.80768188    105.888095    0.00000    0.00000   -4.10806    9    diag,B
   27      0.111D-03      0.308D-03       -55.80811264    105.904848    0.00000    0.00000   -4.10309    9    diag,B
   28      0.236D-03      0.212D-03       -55.80807305    105.900946    0.00000    0.00000   -4.10271    9    orth
   29      0.556D-04      0.223D-03       -55.80840448    105.913963    0.00000    0.00000   -4.08636    9    diag,B
   30      0.545D-03      0.129D-03       -55.80856954    105.908882    0.00000    0.00000   -4.05923    9    diag,B
   31      0.206D-03      0.777D-04       -55.80873142    105.879108    0.00000    0.00000   -3.99509    9    diag,B
   32      0.259D-03      0.500D-04       -55.80878889    105.859668    0.00000    0.00000   -3.96088    9    diag,B
   33      0.111D-03      0.537D-04       -55.80878592    105.860506    0.00000    0.00000   -3.96247    9    diag,B
   34      0.560D-05      0.538D-04       -55.80864704    105.892287    0.00000    0.00000   -4.02782    9    diag,B
   35      0.275D-03      0.703D-04       -55.80873078    105.875146    0.00000    0.00000   -3.99134    9    diag,B
   36      0.170D-03      0.595D-04       -55.80889887    105.826396    0.00000    0.00000   -3.90526    9    diag,B
   37      0.289D-03      0.753D-04       -55.80880918    105.851368    0.00000    0.00000   -3.94913    9    diag,B
   38      0.165D-03      0.659D-04       -55.80880787    105.850799    0.00000    0.00000   -3.94838    9    orth
   39      0.107D-04      0.668D-04       -55.80884673    105.841845    0.00000    0.00000   -3.93008    9    diag,B
   40      0.188D-03      0.660D-04       -55.80854129    105.902137    0.00000    0.00000   -4.05655    9    diag,B
   41      0.561D-03      0.880D-04       -55.80880645    105.853569    0.00000    0.00000   -3.95257    9    diag,B
   42      0.454D-03      0.647D-04       -55.80875330    105.872164    0.00000    0.00000   -3.98296    9    diag,B
   43      0.155D-03      0.576D-04       -55.80834400    105.907670    0.00000    0.00000   -4.08564    9    diag,B
   44      0.552D-03      0.148D-03       -55.80882726    105.848592    0.00000    0.00000   -3.94253    9    diag,B
   45      0.666D-03      0.635D-04       -55.80878965    105.861197    0.00000    0.00000   -3.96340    9    diag,B
   46      0.106D-03      0.580D-04       -55.80847324    105.909364    0.00000    0.00000   -4.07218    9    diag,B
   47      0.507D-03      0.107D-03       -55.80877460    105.864184    0.00000    0.00000   -3.96973    9    diag,B
   48      0.568D-03      0.604D-04       -55.80886327    105.838206    0.00000    0.00000   -3.92461    9    orth
   49      0.217D-03      0.692D-04       -55.80855037    105.900007    0.00000    0.00000   -4.05159    9    diag,B
   50      0.669D-03      0.991D-04       -55.80861783    105.899469    0.00000    0.00000   -4.04058    9    diag,B
   51      0.645D-03      0.736D-04       -55.80898016    105.804073    0.00000    0.00000   -3.86913    9    diag,B
   52      0.584D-03      0.918D-04       -55.80873493    105.872758    0.00000    0.00000   -3.98789    9    diag,B
   53      0.488D-03      0.664D-04       -55.80851651    105.902743    0.00000    0.00000   -4.06082    9    diag,B
   54      0.357D-03      0.107D-03       -55.80893589    105.816516    0.00000    0.00000   -3.88807    9    diag,B
   55      0.642D-03      0.817D-04       -55.80869819    105.885281    0.00000    0.00000   -4.00953    9    diag,B
   56      0.419D-03      0.623D-04       -55.80865272    105.889542    0.00000    0.00000   -4.02299    9    diag,B
   57      0.148D-03      0.742D-04       -55.80891871    105.824068    0.00000    0.00000   -3.89856    9    fixocc
   58      0.502D-03      0.742D-04       -55.80862280    105.898403    0.00000    0.00000   -4.03970    9    orth
   59      0.503D-03      0.743D-04       -55.80870191    105.880980    0.00000    0.00000   -4.00339    9    diag,B
   60      0.265D-03      0.668D-04       -55.80888627    105.833305    0.00000    0.00000   -3.91306    9    diag,B
   61      0.478D-03      0.679D-04       -55.80859561    105.902499    0.00000    0.00000   -4.04929    9    diag,B
   62      0.482D-03      0.769D-04       -55.80873581    105.874502    0.00000    0.00000   -3.98922    9    diag,B
   63      0.414D-03      0.621D-04       -55.80891350    105.824240    0.00000    0.00000   -3.89839    9    diag,B
   64      0.361D-03      0.740D-04       -55.80857414    105.903141    0.00000    0.00000   -4.05374    9    diag,B
   65      0.551D-03      0.849D-04       -55.80870627    105.882134    0.00000    0.00000   -4.00436    9    diag,B
   66      0.304D-03      0.640D-04       -55.80887576    105.836410    0.00000    0.00000   -3.91821    9    diag,B
   67      0.298D-03      0.666D-04       -55.80861319    105.898807    0.00000    0.00000   -4.04161    9    diag,B
   68      0.603D-03      0.754D-04       -55.80872787    105.877682    0.00000    0.00000   -3.99510    9    orth
   69      0.671D-03      0.612D-04       -55.80889768    105.830727    0.00000    0.00000   -3.90895    9    diag,B
   70      0.306D-03      0.700D-04       -55.80851031    105.905169    0.00000    0.00000   -4.06511    9    diag,B
   71      0.803D-03      0.103D-03       -55.80868965    105.885221    0.00000    0.00000   -4.01127    9    diag,B
   72      0.546D-03      0.657D-04       -55.80878130    105.863671    0.00000    0.00000   -3.96741    9    diag,B
   73      0.358D-03      0.581D-04       -55.80884745    105.849025    0.00000    0.00000   -3.93766    9    diag,B
   74      0.706D-03      0.548D-04       -55.80862307    105.896897    0.00000    0.00000   -4.03794    9    diag,B
   75      0.586D-03      0.738D-04       -55.80867554    105.890915    0.00000    0.00000   -4.01843    9    diag,B
   76      0.157D-03      0.600D-04       -55.80869794    105.883842    0.00000    0.00000   -4.00838    9    diag,B
   77      0.263D-03      0.654D-04       -55.80863005    105.896288    0.00000    0.00000   -4.03498    9    diag,B
   78      0.437D-03      0.718D-04       -55.80874543    105.872823    0.00000    0.00000   -3.98505    9    orth
   79      0.389D-03      0.604D-04       -55.80868341    105.886719    0.00000    0.00000   -4.01546    9    diag,B
   80      0.415D-03      0.684D-04       -55.80838908    105.909844    0.00000    0.00000   -4.08244    9    diag,B
   81      0.118D-02      0.127D-03       -55.80874280    105.873146    0.00000    0.00000   -3.98673    9    diag,B
   82      0.842D-03      0.608D-04       -55.80871258    105.880893    0.00000    0.00000   -4.00196    9    diag,B
   83      0.198D-03      0.623D-04       -55.80848590    105.910303    0.00000    0.00000   -4.07030    9    diag,B
   84      0.949D-03      0.959D-04       -55.80872905    105.876269    0.00000    0.00000   -3.99350    9    diag,B
   85      0.782D-03      0.630D-04       -55.80868771    105.886169    0.00000    0.00000   -4.01333    9    diag,B
   86      0.355D-03      0.662D-04       -55.80853818    105.907666    0.00000    0.00000   -4.06028    9    diag,B
   87      0.102D-02      0.833D-04       -55.80873867    105.873470    0.00000    0.00000   -3.98852    9    diag,B
   88      0.676D-03      0.633D-04       -55.80865578    105.892312    0.00000    0.00000   -4.02671    9    orth
   89      0.613D-03      0.709D-04       -55.80854703    105.906855    0.00000    0.00000   -4.05841    9    diag,B
   90      0.118D-02      0.820D-04       -55.80874320    105.872227    0.00000    0.00000   -3.98625    9    diag,B
   91      0.679D-03      0.633D-04       -55.80864767    105.893880    0.00000    0.00000   -4.02976    9    diag,B
   92      0.614D-03      0.715D-04       -55.80853077    105.907673    0.00000    0.00000   -4.06215    9    diag,B
   93      0.117D-02      0.866D-04       -55.80874131    105.872829    0.00000    0.00000   -3.98726    9    diag,B
   94      0.699D-03      0.632D-04       -55.80866157    105.891656    0.00000    0.00000   -4.02426    9    diag,B
   95      0.484D-03      0.685D-04       -55.80847560    105.909984    0.00000    0.00000   -4.07253    9    diag,B
   96      0.104D-02      0.101D-03       -55.80873422    105.874826    0.00000    0.00000   -3.99091    9    diag,B
   97      0.695D-03      0.630D-04       -55.80869210    105.885613    0.00000    0.00000   -4.01124    9    diag,B
   98      0.303D-03      0.643D-04       -55.80837394    105.911552    0.00000    0.00000   -4.08587    9    orth
   99      0.835D-03      0.126D-03       -55.80871862    105.878922    0.00000    0.00000   -3.99872    9    diag,B
  100      0.642D-03      0.631D-04       -55.80871310    105.880674    0.00000    0.00000   -4.00145    9    diag,B
  101      0.139D-03      0.625D-04       -55.80839740    105.912609    0.00000    0.00000   -4.08391    9    diag,B
  102      0.571D-03      0.117D-03       -55.80871045    105.880687    0.00000    0.00000   -4.00253    9    diag,B
  103      0.491D-03      0.643D-04       -55.80871412    105.880172    0.00000    0.00000   -4.00080    9    diag,B
  104      0.114D-03      0.632D-04       -55.80844569    105.912451    0.00000    0.00000   -4.07794    9    diag,B
  105      0.452D-03      0.104D-03       -55.80870787    105.881124    0.00000    0.00000   -4.00366    9    diag,B
  106      0.413D-03      0.649D-04       -55.80871477    105.879870    0.00000    0.00000   -4.00035    9    diag,B
  107      0.127D-03      0.637D-04       -55.80844870    105.912330    0.00000    0.00000   -4.07738    9    diag,B
  108      0.429D-03      0.103D-03       -55.80870368    105.882007    0.00000    0.00000   -4.00566    9    orth
  109      0.400D-03      0.654D-04       -55.80872030    105.878505    0.00000    0.00000   -3.99763    9    diag,B
  110      0.134D-03      0.634D-04       -55.80843462    105.912648    0.00000    0.00000   -4.07928    9    diag,B
  111      0.438D-03      0.107D-03       -55.80869778    105.883316    0.00000    0.00000   -4.00843    9    diag,B
  112      0.405D-03      0.658D-04       -55.80872510    105.877328    0.00000    0.00000   -3.99526    9    diag,B
  113      0.131D-03      0.630D-04       -55.80844857    105.912575    0.00000    0.00000   -4.07737    9    diag,B
  114      0.425D-03      0.103D-03       -55.80868908    105.885141    0.00000    0.00000   -4.01236    9    diag,B
  115      0.387D-03      0.667D-04       -55.80873016    105.876017    0.00000    0.00000   -3.99268    9    diag,B
  116      0.149D-03      0.629D-04       -55.80848550    105.911740    0.00000    0.00000   -4.07158    9    diag,B
  117      0.396D-03      0.935D-04       -55.80866459    105.889770    0.00000    0.00000   -4.02280    9    diag,B
  118      0.358D-03      0.701D-04       -55.80873956    105.873501    0.00000    0.00000   -3.98782    9    orth
  119      0.219D-03      0.629D-04       -55.80854175    105.908908    0.00000    0.00000   -4.06047    9    diag,B
  120      0.352D-03      0.804D-04       -55.80859261    105.899717    0.00000    0.00000   -4.04770    9    diag,B
  121      0.352D-03      0.833D-04       -55.80875069    105.870471    0.00000    0.00000   -3.98196    9    diag,B
  122      0.362D-03      0.630D-04       -55.80865818    105.894694    0.00000    0.00000   -4.02518    9    diag,B
  123      0.215D-03      0.602D-04       -55.80809362    105.901927    0.00000    0.00000   -4.10251    9    diag,B
  124      0.668D-03      0.209D-03       -55.80871051    105.881588    0.00000    0.00000   -4.00273    9    diag,B
  125      0.672D-03      0.612D-04       -55.80870631    105.882719    0.00000    0.00000   -4.00461    9    diag,B
  126      0.148D-04      0.611D-04       -55.80857911    105.907167    0.00000    0.00000   -4.05290    9    diag,B
  127      0.269D-03      0.671D-04       -55.80861177    105.897443    0.00000    0.00000   -4.04232    9    diag,B
  128      0.327D-03      0.810D-04       -55.80869638    105.883761    0.00000    0.00000   -4.00828    9    orth
  129      0.250D-03      0.671D-04       -55.80860398    105.903098    0.00000    0.00000   -4.04453    9    diag,B
  130      0.212D-03      0.665D-04       -55.80859570    105.900127    0.00000    0.00000   -4.04778    9    diag,B
  131      0.271D-03      0.806D-04       -55.80872202    105.877833    0.00000    0.00000   -3.99606    9    diag,B
  132      0.304D-03      0.649D-04       -55.80862676    105.899484    0.00000    0.00000   -4.03647    9    diag,B
  133      0.210D-03      0.652D-04       -55.80839735    105.909516    0.00000    0.00000   -4.08554    9    diag,B
  134      0.455D-03      0.128D-03       -55.80872544    105.877421    0.00000    0.00000   -3.99485    9    diag,B
  135      0.530D-03      0.623D-04       -55.80871187    105.881854    0.00000    0.00000   -4.00130    9    diag,B
  136      0.621D-04      0.594D-04       -55.80829545    105.911252    0.00000    0.00000   -4.09446    9    diag,B
  137      0.546D-03      0.146D-03       -55.80871304    105.880240    0.00000    0.00000   -4.00080    9    diag,B
  138      0.533D-03      0.633D-04       -55.80871502    105.879849    0.00000    0.00000   -3.99999    9    orth
  139      0.827D-05      0.629D-04       -55.80856415    105.907241    0.00000    0.00000   -4.05531    9    diag,B
  140      0.319D-03      0.760D-04       -55.80863211    105.895553    0.00000    0.00000   -4.03620    9    diag,B
  141      0.384D-03      0.731D-04       -55.80872618    105.876608    0.00000    0.00000   -3.99405    9    diag,B
  142      0.280D-03      0.648D-04       -55.80856233    105.906970    0.00000    0.00000   -4.05526    9    diag,B
  143      0.303D-03      0.776D-04       -55.80859876    105.899541    0.00000    0.00000   -4.04679    9    diag,B
  144      0.354D-03      0.800D-04       -55.80874626    105.871520    0.00000    0.00000   -3.98392    9    diag,B
  145      0.356D-03      0.635D-04       -55.80861407    105.901211    0.00000    0.00000   -4.04046    9    diag,B
  146      0.257D-03      0.683D-04       -55.80841419    105.908747    0.00000    0.00000   -4.08297    9    diag,B
  147      0.466D-03      0.125D-03       -55.80873777    105.874204    0.00000    0.00000   -3.98858    9    diag,B
  148      0.535D-03      0.619D-04       -55.80872023    105.879835    0.00000    0.00000   -3.99728    9    orth
  149      0.700D-04      0.592D-04       -55.80811202    105.905468    0.00000    0.00000   -4.10285    9    diag,B
  150      0.669D-03      0.195D-03       -55.80870761    105.881945    0.00000    0.00000   -4.00371    9    diag,B
  151      0.624D-03      0.622D-04       -55.80870176    105.883132    0.00000    0.00000   -4.00650    9    diag,B
  152      0.186D-04      0.631D-04       -55.80859827    105.905981    0.00000    0.00000   -4.04789    9    diag,B
  153      0.237D-03      0.605D-04       -55.80865860    105.891456    0.00000    0.00000   -4.02597    9    diag,B
  154      0.197D-03      0.699D-04       -55.80862851    105.895523    0.00000    0.00000   -4.03446    9    diag,B
  155      0.109D-03      0.788D-04       -55.80865877    105.894523    0.00000    0.00000   -4.02561    9    diag,B
  156      0.112D-03      0.591D-04       -55.80860732    105.899752    0.00000    0.00000   -4.04489    9    diag,B
  157      0.213D-03      0.747D-04       -55.80865547    105.892424    0.00000    0.00000   -4.02498    9    diag,B
  158      0.254D-03      0.709D-04       -55.80868082    105.889490    0.00000    0.00000   -4.01573    9    orth
  159      0.137D-03      0.599D-04       -55.80836504    105.910430    0.00000    0.00000   -4.08940    9    diag,B
  160      0.511D-03      0.132D-03       -55.80871159    105.880968    0.00000    0.00000   -4.00139    9    diag,B
  161      0.546D-03      0.628D-04       -55.80871784    105.879956    0.00000    0.00000   -3.99845    9    diag,B
  162      0.284D-04      0.606D-04       -55.80827669    105.910872    0.00000    0.00000   -4.09667    9    diag,B
  163      0.602D-03      0.150D-03       -55.80870326    105.882813    0.00000    0.00000   -4.00546    9    diag,B
  164      0.563D-03      0.634D-04       -55.80870846    105.881720    0.00000    0.00000   -4.00308    9    diag,B
  165      0.110D-04      0.626D-04       -55.80841106    105.911949    0.00000    0.00000   -4.08480    9    diag,B
  166      0.454D-03      0.116D-03       -55.80872298    105.878079    0.00000    0.00000   -3.99573    9    diag,B
  167      0.487D-03      0.623D-04       -55.80871005    105.881121    0.00000    0.00000   -4.00205    9    diag,B
  168      0.263D-04      0.634D-04       -55.80862503    105.901068    0.00000    0.00000   -4.03935    9    orth
  169      0.186D-03      0.588D-04       -55.80853565    105.905604    0.00000    0.00000   -4.06260    9    diag,B
  170      0.138D-03      0.946D-04       -55.80871340    105.880167    0.00000    0.00000   -3.99976    9    diag,B
  171      0.322D-03      0.641D-04       -55.80871589    105.880695    0.00000    0.00000   -3.99939    9    diag,B
  172      0.580D-04      0.586D-04       -55.80809566    105.904766    0.00000    0.00000   -4.10483    9    diag,B
  173      0.701D-03      0.200D-03       -55.80869883    105.884092    0.00000    0.00000   -4.00777    9    diag,B
  174      0.664D-03      0.624D-04       -55.80868925    105.886034    0.00000    0.00000   -4.01182    9    diag,B
  175      0.182D-04      0.637D-04       -55.80867098    105.893611    0.00000    0.00000   -4.02268    9    diag,B
  176      0.136D-03      0.536D-04       -55.80856747    105.904785    0.00000    0.00000   -4.05604    9    diag,B
  177      0.225D-03      0.817D-04       -55.80858746    105.900213    0.00000    0.00000   -4.04651    9    diag,B
  178      0.177D-03      0.872D-04       -55.80877754    105.863832    0.00000    0.00000   -3.96989    9    orth
  179      0.335D-03      0.616D-04       -55.80867478    105.891234    0.00000    0.00000   -4.02198    9    diag,B
  180      0.255D-03      0.585D-04       -55.80815756    105.901138    0.00000    0.00000   -4.09261    9    diag,B
  181      0.576D-03      0.206D-03       -55.80873548    105.875737    0.00000    0.00000   -3.99208    9    diag,B
  182      0.686D-03      0.600D-04       -55.80873712    105.875817    0.00000    0.00000   -3.99216    9    diag,B
  183      0.534D-04      0.580D-04       -55.80843382    105.911074    0.00000    0.00000   -4.07598    9    diag,B
  184      0.599D-03      0.114D-03       -55.80871883    105.878797    0.00000    0.00000   -3.99858    9    diag,B
  185      0.512D-03      0.645D-04       -55.80873606    105.875832    0.00000    0.00000   -3.99390    9    diag,B
  186      0.176D-03      0.599D-04       -55.80848849    105.911041    0.00000    0.00000   -4.07067    9    diag,B
  187      0.477D-03      0.953D-04       -55.80870511    105.881356    0.00000    0.00000   -4.00348    9    diag,B
  188      0.353D-03      0.668D-04       -55.80874808    105.871887    0.00000    0.00000   -3.98706    9    orth
  189      0.237D-03      0.618D-04       -55.80844994    105.913627    0.00000    0.00000   -4.07959    9    diag,B
  190      0.480D-03      0.102D-03       -55.80869662    105.883165    0.00000    0.00000   -4.00666    9    diag,B
  191      0.378D-03      0.674D-04       -55.80875187    105.870432    0.00000    0.00000   -3.98414    9    diag,B
  192      0.196D-03      0.626D-04       -55.80855404    105.909243    0.00000    0.00000   -4.06260    9    diag,B
  193      0.347D-03      0.754D-04       -55.80864001    105.893353    0.00000    0.00000   -4.02744    9    diag,B
  194      0.311D-03      0.761D-04       -55.80876359    105.866932    0.00000    0.00000   -3.97830    9    diag,B
  195      0.324D-03      0.636D-04       -55.80862767    105.900773    0.00000    0.00000   -4.04223    9    diag,B
  196      0.275D-03      0.622D-04       -55.80849117    105.907219    0.00000    0.00000   -4.06449    9    diag,B
  197      0.421D-03      0.108D-03       -55.80875975    105.868020    0.00000    0.00000   -3.97984    9    diag,B
  198      0.501D-03      0.631D-04       -55.80870914    105.883251    0.00000    0.00000   -4.00675    9    orth
  199      0.127D-03      0.581D-04       -55.80830984    105.916031    0.00000    0.00000   -4.09227    9    orth
  200      0.586D-03      0.138D-03       -55.80837953    105.945527    0.00000    0.00000   -4.10059    0    orth

 Final alpha occupancy:   5   2   2   0
 Final beta  occupancy:   4   2   2   0

 !RHF STATE 1.1 Energy                -55.808379530792
   --><property name="Energy" method="RHF" principal="true" stateSymmetry="1" stateNumber="1"
     value="-55.8083795307917"/><!--
 Nuclear energy                        15.18508518
 One-electron energy                 -123.96622838
 Two-electron energy                   52.97276366
 Virial quotient                       -2.23397776
 !RHF STATE 1.1 Dipole moment           0.00000000     0.00000000    -4.10058684
 Dipole moment /Debye                   0.00000000     0.00000000   -10.42196949
   --><property name="Dipole moment" method="RHF" principal="true" stateSymmetry="1"
     stateNumber="1" value="0.0 0.0 -4.100586836041"/><!--

 ELECTRON ORBITALS
 =================


   Orb  Occ    Energy  Couls-En    Coefficients

                                   1 1s      1 1s      1 1s      1 1s      1 1s      1 1s      1 1s      1 1s      1 1s      1 1s
                                   1 1s      1 1s      1 1s      1 1s      1 1s      1 1s      1 1s      1 1s      1 1s      1 1s
                                   1 1s      1 1s      1 1s      1 1s      1 1s      1 1s      1 1s      1 1s      1 1s      1 1s
                                   1 1s      1 2pz     1 2pz     1 2pz     1 2pz     1 2pz     1 2pz     1 2pz     1 2pz     1 2pz
                                   1 2pz     1 2pz     1 2pz     1 2pz     1 2pz     1 2pz     1 2pz     1 2pz     1 2pz     1 2pz
                                   1 2pz     1 2pz     1 2pz     1 2pz     1 2pz     1 2pz     1 2pz     1 2pz     1 3d0     1 3d2+
                                   1 3d0     1 3d2+    1 3d0     1 3d2+    1 3d0     1 3d2+    1 3d0     1 3d2+    1 3d0     1 3d2+
                                   1 3d0     1 3d2+    1 3d0     1 3d2+    1 3d0     1 3d2+    1 3d0     1 3d2+    1 3d0     1 3d2+
                                   1 3d0     1 3d2+    1 3d0     1 3d2+    1 3d0     1 3d2+    1 3d0     1 3d2+    1 3d0     1 3d2+
                                   1 3d0     1 3d2+    1 3d0     1 3d2+    1 4f0     1 4f2+    1 4f0     1 4f2+    1 4f0     1 4f2+
                                   1 4f0     1 4f2+    1 4f0     1 4f2+    1 4f0     1 4f2+    1 4f0     1 4f2+    1 4f0     1 4f2+
                                   1 4f0     1 4f2+    1 4f0     1 4f2+    1 4f0     1 4f2+    1 4f0     1 4f2+    1 4f0     1 4f2+
                                   1 5g0     1 5g4+    1 5g2+    1 5g0     1 5g4+    1 5g2+    1 5g0     1 5g4+    1 5g2+    1 5g0
                                   1 5g4+    1 5g2+    1 5g0     1 5g4+    1 5g2+    1 5g0     1 5g4+    1 5g2+    1 6h2+    1 6h4+
                                   1 6h0     1 6h2+    1 6h4+    1 6h0     1 6h2+    1 6h4+    1 6h0     2 1s      2 1s      2 1s
                                   2 1s      2 1s      2 1s      2 1s      2 1s      2 1s      2 1s      2 1s      2 1s      2 1s
                                   2 2pz     2 2pz     2 2pz     2 2pz     2 2pz     2 2pz     2 2pz     2 2pz     2 3d0     2 3d2+
                                   2 3d0     2 3d2+    2 3d0     2 3d2+    2 3d0     2 3d2+    2 4f0     2 4f2+    2 4f0     2 4f2+


   1.1   2    -2.6361  -12.0785 -0.000000  0.000000 -0.000000  0.000000 -0.000000  0.000000 -0.000000  0.000001 -0.000003  0.000008
                                -0.000019  0.000046 -0.000106  0.000238 -0.000509  0.001038 -0.001911  0.002858 -0.002623 -0.020657
                                 0.262938 -0.485237 -0.204415  0.192566  0.734828  0.329727  0.024024 -0.004112  0.007168 -0.004783
                                 0.001677 -0.000000  0.000000 -0.000000  0.000000 -0.000000  0.000000 -0.000000  0.000000 -0.000000
                                 0.000001 -0.000002  0.000004 -0.000012  0.000033 -0.000097  0.000584 -0.001680  0.002337  0.000084
                                -0.000353 -0.003504 -0.004687 -0.009777 -0.003487 -0.002996  0.001099  0.003232  0.000000  0.000000
                                -0.000000 -0.000000  0.000000  0.000000 -0.000000 -0.000000  0.000000  0.000000 -0.000000 -0.000000
                                 0.000001  0.000000 -0.000003 -0.000000  0.000013  0.000000 -0.000057 -0.000000  0.000271 -0.000000
                                 0.000488 -0.000000 -0.004458  0.000002 -0.004664  0.000001  0.000182 -0.000001 -0.000545  0.000001
                                 0.001309 -0.000002 -0.000544  0.000000  0.000000 -0.000000 -0.000000  0.000000  0.000000 -0.000000
                                -0.000001  0.000000  0.000006  0.000000 -0.000012 -0.000000 -0.000093 -0.000000 -0.000231 -0.000000
                                -0.000968 -0.000002 -0.000424 -0.000000  0.000133  0.000001  0.000229 -0.000000 -0.000051  0.000000
                                 0.000000  0.000000  0.000000 -0.000000 -0.000000 -0.000000 -0.000015 -0.000000  0.000000  0.000088
                                -0.000000  0.000001  0.000085  0.000000 -0.000000  0.000001 -0.000000  0.000000  0.000000  0.000000
                                 0.000002 -0.000000  0.000000 -0.000016  0.000000  0.000000  0.000058 -0.000000  0.000000 -0.000000
                                 0.000001 -0.000007  0.000227 -0.000319  0.000731  0.001502  0.001869 -0.000399 -0.000280 -0.000372
                                -0.000030 -0.000253 -0.000719 -0.001268 -0.001599  0.000139 -0.000002  0.000008  0.000072  0.000000
                                 0.000454  0.000000  0.000624  0.000000  0.000009  0.000000 -0.000025 -0.000000 -0.000277 -0.000000

   2.1   2    -1.4095   -9.5435 -0.000000  0.000000 -0.000000  0.000000 -0.000000  0.000000 -0.000000  0.000000 -0.000000  0.000000
                                -0.000001  0.000002 -0.000004  0.000010 -0.000020  0.000042 -0.000077  0.000118 -0.000115 -0.000397
                                 0.006512 -0.012286 -0.007065  0.007125  0.033111 -0.002849 -0.018196  0.003378 -0.023149 -0.007389
                                 0.005174  0.000000 -0.000000  0.000000 -0.000000  0.000000 -0.000000  0.000000 -0.000001  0.000004
                                -0.000014  0.000041 -0.000112  0.000304 -0.000874  0.002228 -0.013478  0.076269 -0.148180 -0.052315
                                 0.200408  0.478759  0.019634  0.371108 -0.007147  0.071629 -0.020932  0.008425  0.000000  0.000000
                                -0.000000 -0.000000  0.000000  0.000000 -0.000000 -0.000000  0.000001  0.000000 -0.000004 -0.000000
                                 0.000011  0.000000 -0.000028 -0.000000  0.000069  0.000000 -0.000205 -0.000000  0.000765  0.000001
                                 0.001029 -0.000000 -0.009699 -0.000006 -0.018070 -0.000006 -0.006143  0.000003 -0.003750 -0.000001
                                -0.006468  0.000003  0.004161 -0.000001 -0.000000 -0.000000  0.000000  0.000000 -0.000001 -0.000000
                                 0.000001  0.000000  0.000007 -0.000000 -0.000006  0.000000 -0.000482  0.000000 -0.000922  0.000001
                                -0.003543  0.000003 -0.003234  0.000006 -0.001179  0.000003 -0.002693 -0.000000  0.000942  0.000000
                                -0.000007 -0.000000 -0.000000  0.000038  0.000000  0.000000 -0.000141 -0.000000 -0.000000 -0.000345
                                -0.000000  0.000000 -0.000921 -0.000000  0.000001  0.000295 -0.000000 -0.000000 -0.000000 -0.000000
                                 0.000003 -0.000000  0.000000 -0.000104  0.000000  0.000000  0.000231 -0.000000  0.000000 -0.000002
                                 0.000014 -0.000125  0.004888 -0.009903  0.016509  0.047928  0.037252  0.028986 -0.004247 -0.007837
[...]
                                 0.000005  0.000000  0.000000 -0.000041 -0.000001 -0.000000  0.000217 -0.000000  0.000000 -0.000003
                                 0.000018 -0.000110  0.001520  0.007735  0.005991 -0.015423  0.026417 -0.411188 -0.007852 -0.003324
                                -0.000563 -0.004801 -0.016576 -0.025157 -0.037650  0.048821 -0.000442  0.000147  0.000069  0.000001
                                -0.003956  0.000006  0.009311  0.000012 -0.000058  0.000000 -0.000049 -0.000000  0.001788 -0.000004

                                   1 2px     1 2px     1 2px     1 2px     1 2px     1 2px     1 2px     1 2px     1 2px     1 2px
                                   1 2px     1 2px     1 2px     1 2px     1 2px     1 2px     1 2px     1 2px     1 2px     1 2px
                                   1 2px     1 2px     1 2px     1 2px     1 2px     1 2px     1 2px     1 3d1+    1 3d1+    1 3d1+
                                   1 3d1+    1 3d1+    1 3d1+    1 3d1+    1 3d1+    1 3d1+    1 3d1+    1 3d1+    1 3d1+    1 3d1+
                                   1 3d1+    1 3d1+    1 3d1+    1 3d1+    1 3d1+    1 4f1+    1 4f3+    1 4f1+    1 4f3+    1 4f1+
                                   1 4f3+    1 4f1+    1 4f3+    1 4f1+    1 4f3+    1 4f1+    1 4f3+    1 4f1+    1 4f3+    1 4f1+
                                   1 4f3+    1 4f1+    1 4f3+    1 4f1+    1 4f3+    1 4f1+    1 4f3+    1 4f1+    1 4f3+    1 4f1+
                                   1 4f3+    1 5g1+    1 5g3+    1 5g1+    1 5g3+    1 5g1+    1 5g3+    1 5g1+    1 5g3+    1 5g1+
                                   1 5g3+    1 5g1+    1 5g3+    1 6h1+    1 6h3+    1 6h5+    1 6h1+    1 6h3+    1 6h5+    1 6h1+
                                   1 6h3+    1 6h5+    2 2px     2 2px     2 2px     2 2px     2 2px     2 2px     2 2px     2 2px
                                   2 3d1+    2 3d1+    2 3d1+    2 3d1+    2 4f1+    2 4f3+    2 4f1+    2 4f3+

   1.2   2    -1.4219   -9.4708  0.000000 -0.000000  0.000000 -0.000000  0.000000 -0.000000  0.000000 -0.000001  0.000005 -0.000015
                                 0.000043 -0.000119  0.000323 -0.000925  0.002381 -0.014371  0.078250 -0.150317 -0.051945  0.199895
                                 0.482756  0.018859  0.382266  0.073774  0.072429 -0.006857 -0.070837  0.000000 -0.000000  0.000000
                                -0.000000  0.000001 -0.000004  0.000011 -0.000027  0.000062 -0.000158  0.000471  0.000705 -0.005064
                                -0.013364 -0.005005  0.002756 -0.003423  0.000788 -0.000000  0.000000  0.000000 -0.000000 -0.000002
                                 0.000000  0.000005 -0.000000 -0.000002  0.000000  0.000016 -0.000000 -0.000555 -0.000000 -0.000926
                                -0.000000 -0.003613  0.000000 -0.003687 -0.000001 -0.000090 -0.000001 -0.000285  0.000000 -0.000089
                                -0.000000 -0.000008 -0.000000  0.000038  0.000000 -0.000199 -0.000000 -0.000612 -0.000001  0.000151
                                 0.000001 -0.000226 -0.000000 -0.000001 -0.000000 -0.000000 -0.000058 -0.000000  0.000000  0.000025
                                 0.000000 -0.000000  0.000088  0.000763  0.002312  0.003829  0.003320  0.001084  0.000017 -0.000024
                                -0.000144 -0.000907 -0.001037 -0.000017  0.000074  0.000000  0.000513  0.000000

   2.2   2    -0.3003   -6.5393 -0.000000  0.000000 -0.000000  0.000000 -0.000000  0.000000 -0.000000  0.000000 -0.000000  0.000001
                                -0.000003  0.000007 -0.000020  0.000057 -0.000143  0.000812 -0.004956  0.010025  0.003400 -0.014300
                                -0.037859 -0.000262 -0.037543 -0.097966  0.031185  0.070840  0.098876 -0.000000  0.000000 -0.000003
                                 0.000011 -0.000037  0.000109 -0.000287  0.000679 -0.001461  0.003247 -0.008586  0.000451  0.051411
                                 0.089543  0.101441 -0.004682  0.053714 -0.022548 -0.000000 -0.000000  0.000001  0.000000 -0.000005
                                -0.000000  0.000020  0.000000 -0.000085 -0.000000  0.000179  0.000000  0.000934  0.000000  0.003462
                                 0.000000  0.003560 -0.000000  0.015376  0.000000  0.011606  0.000002  0.008023  0.000001 -0.004146
                                 0.000001  0.000006  0.000000 -0.000019 -0.000000  0.000486  0.000000  0.005166  0.000001 -0.001294
                                 0.000001  0.001412  0.000001  0.000066 -0.000000 -0.000000 -0.000481  0.000000 -0.000000  0.001919
                                -0.000000 -0.000000  0.008897  0.076351  0.251496  0.393969  0.347962  0.098058  0.005073 -0.002341
                                -0.002583 -0.011062 -0.020238 -0.000270  0.000426  0.000004  0.005053  0.000002

   3.2   0    -0.0194   -3.0759  0.000000 -0.000000  0.000000 -0.000000  0.000000 -0.000000  0.000000 -0.000000  0.000001 -0.000002
                                 0.000006 -0.000016  0.000040 -0.000107  0.000426 -0.002426 -0.005701  0.022017  0.014794 -0.049659
                                -0.073514 -0.069227 -0.057420 -9.044691  0.021776  0.509762  9.482088  0.000000 -0.000001  0.000003
                                -0.000013  0.000043 -0.000130  0.000341 -0.000807  0.001734 -0.003844  0.010130 -0.000828 -0.059728
                                -0.100570 -0.118454 -0.456829  0.627839 -0.569682  0.000000  0.000000 -0.000000 -0.000000  0.000001
                                 0.000000 -0.000002 -0.000000 -0.000002  0.000000 -0.000002 -0.000000  0.000299 -0.000001  0.000492
                                -0.000002  0.001479 -0.000003  0.003340 -0.000010  0.006748 -0.000019 -0.006435 -0.000003  0.011609
                                -0.000007  0.000010  0.000000 -0.000043 -0.000000  0.000427  0.000000  0.005039  0.000003  0.003674
                                 0.000001 -0.000116 -0.000001  0.000005  0.000000 -0.000000 -0.000037 -0.000000  0.000000  0.000212
                                 0.000000 -0.000000 -0.000108 -0.000932 -0.002977 -0.004783 -0.002602  0.023683 -0.000043  0.000029
                                 0.000092  0.001374 -0.001201  0.000025 -0.000047 -0.000000 -0.000900  0.000000

   4.2   0     0.0507   -2.1089 -0.000000  0.000000 -0.000000  0.000000 -0.000000  0.000000 -0.000001  0.000004 -0.000014  0.000043
                                -0.000126  0.000343 -0.000911  0.002542 -0.007796  0.044408 -0.085818  0.079003 -0.040847  0.060947
                                -0.453778  0.733254 -0.666565 68.612135  0.518542 -0.879048-68.205373  0.000000 -0.000000  0.000002
                                -0.000010  0.000033 -0.000099  0.000263 -0.000632  0.001397 -0.003311  0.009698  0.002431 -0.076309
                                -0.100288 -0.235731  0.760244 -1.644614  1.063363 -0.000000  0.000000  0.000001 -0.000000 -0.000003
                                 0.000000  0.000012 -0.000000 -0.000048  0.000000  0.000101 -0.000000  0.000501 -0.000000  0.001818
                                -0.000001  0.001959 -0.000002  0.010565 -0.000005  0.016064 -0.000013  0.051340  0.000006  0.149670
                                -0.000025  0.000012  0.000000 -0.000050 -0.000000  0.000524  0.000000  0.005816  0.000002  0.006416
                                -0.000002  0.049509  0.000010  0.000006  0.000000 -0.000000 -0.000052 -0.000000  0.000000  0.000330
                                 0.000000 -0.000000  0.000766  0.006331  0.025097  0.034227  0.049920 -0.228850  0.001198 -0.000191
                                 0.000280  0.000145  0.003933 -0.000005 -0.000116  0.000000 -0.000511  0.000000

                                   1 2py     1 2py     1 2py     1 2py     1 2py     1 2py     1 2py     1 2py     1 2py     1 2py
                                   1 2py     1 2py     1 2py     1 2py     1 2py     1 2py     1 2py     1 2py     1 2py     1 2py
                                   1 2py     1 2py     1 2py     1 2py     1 2py     1 2py     1 2py     1 3d1-    1 3d1-    1 3d1-
                                   1 3d1-    1 3d1-    1 3d1-    1 3d1-    1 3d1-    1 3d1-    1 3d1-    1 3d1-    1 3d1-    1 3d1-
                                   1 3d1-    1 3d1-    1 3d1-    1 3d1-    1 3d1-    1 4f1-    1 4f3-    1 4f1-    1 4f3-    1 4f1-
                                   1 4f3-    1 4f1-    1 4f3-    1 4f1-    1 4f3-    1 4f1-    1 4f3-    1 4f1-    1 4f3-    1 4f1-
                                   1 4f3-    1 4f1-    1 4f3-    1 4f1-    1 4f3-    1 4f1-    1 4f3-    1 4f1-    1 4f3-    1 4f1-
                                   1 4f3-    1 5g1-    1 5g3-    1 5g1-    1 5g3-    1 5g1-    1 5g3-    1 5g1-    1 5g3-    1 5g1-
                                   1 5g3-    1 5g1-    1 5g3-    1 6h1-    1 6h3-    1 6h5-    1 6h1-    1 6h3-    1 6h5-    1 6h1-
                                   1 6h3-    1 6h5-    2 2py     2 2py     2 2py     2 2py     2 2py     2 2py     2 2py     2 2py
                                   2 3d1-    2 3d1-    2 3d1-    2 3d1-    2 4f1-    2 4f3-    2 4f1-    2 4f3-

   1.3   2    -1.4219   -9.4708  0.000000 -0.000000  0.000000 -0.000000  0.000000 -0.000000  0.000000 -0.000001  0.000005 -0.000015
                                 0.000043 -0.000119  0.000323 -0.000925  0.002381 -0.014371  0.078250 -0.150316 -0.051945  0.199895
                                 0.482755  0.018857  0.382265  0.073772  0.072435 -0.006853 -0.070835  0.000000 -0.000000  0.000000
                                -0.000000  0.000001 -0.000004  0.000011 -0.000027  0.000062 -0.000158  0.000470  0.000705 -0.005055
                                -0.013356 -0.005013  0.002762 -0.003430  0.000791 -0.000000  0.000000  0.000000 -0.000000 -0.000002
                                 0.000000  0.000005 -0.000000 -0.000002  0.000000  0.000016 -0.000000 -0.000556 -0.000000 -0.000929
                                -0.000000 -0.003616  0.000000 -0.003695 -0.000000 -0.000095 -0.000001 -0.000283  0.000000 -0.000089
                                -0.000000 -0.000008 -0.000000  0.000038  0.000000 -0.000199 -0.000000 -0.000614 -0.000001  0.000152
                                 0.000001 -0.000226 -0.000000 -0.000001 -0.000000 -0.000000 -0.000058 -0.000000  0.000000  0.000024
                                 0.000000 -0.000000  0.000088  0.000762  0.002309  0.003824  0.003317  0.001083  0.000017 -0.000024
                                -0.000143 -0.000906 -0.001036 -0.000017  0.000074  0.000000  0.000512  0.000000

   2.3   2    -0.3006   -6.5407 -0.000000  0.000000 -0.000000  0.000000 -0.000000  0.000000 -0.000000  0.000000 -0.000000  0.000001
                                -0.000003  0.000007 -0.000020  0.000057 -0.000143  0.000810 -0.004948  0.010009  0.003396 -0.014278
                                -0.037789 -0.000278 -0.037467 -0.098334  0.031125  0.070578  0.099104 -0.000000  0.000000 -0.000003
                                 0.000010 -0.000036  0.000109 -0.000286  0.000677 -0.001456  0.003237 -0.008558  0.000451  0.051233
                                 0.089242  0.101109 -0.004775  0.053649 -0.022604 -0.000000 -0.000000  0.000001  0.000000 -0.000005
                                -0.000000  0.000020  0.000000 -0.000085 -0.000000  0.000179  0.000000  0.000933  0.000000  0.003460
                                 0.000000  0.003556 -0.000000  0.015374  0.000000  0.011596  0.000002  0.008013  0.000001 -0.004155
                                 0.000001  0.000007  0.000000 -0.000019 -0.000000  0.000487  0.000000  0.005173  0.000001 -0.001296
                                 0.000001  0.001412  0.000001  0.000066 -0.000000 -0.000000 -0.000481  0.000000 -0.000000  0.001919
                                -0.000000 -0.000000  0.008903  0.076402  0.251663  0.394207  0.348110  0.098039  0.005076 -0.002342
                                -0.002581 -0.011049 -0.020231 -0.000270  0.000428  0.000004  0.005052  0.000002

   3.3   0    -0.0195   -3.0763  0.000000 -0.000000  0.000000 -0.000000  0.000000 -0.000000  0.000000 -0.000000  0.000001 -0.000002
                                 0.000006 -0.000016  0.000040 -0.000106  0.000424 -0.002418 -0.005718  0.022037  0.014790 -0.049662
                                -0.073616 -0.069116 -0.057555 -9.035826  0.021906  0.509795  9.473170  0.000000 -0.000001  0.000003
                                -0.000013  0.000043 -0.000129  0.000341 -0.000807  0.001733 -0.003843  0.010128 -0.000828 -0.059714
                                -0.100541 -0.118482 -0.456611  0.627348 -0.569309  0.000000  0.000000 -0.000000 -0.000000  0.000001
                                 0.000000 -0.000002 -0.000000 -0.000002  0.000000 -0.000002 -0.000000  0.000298 -0.000001  0.000490
                                -0.000002  0.001476 -0.000003  0.003328 -0.000010  0.006721 -0.000019 -0.006433 -0.000003  0.011590
                                -0.000007  0.000010  0.000000 -0.000043 -0.000000  0.000427  0.000000  0.005041  0.000003  0.003673
                                 0.000001 -0.000115 -0.000001  0.000005  0.000000 -0.000000 -0.000037 -0.000000  0.000000  0.000213
                                 0.000000 -0.000000 -0.000108 -0.000936 -0.002989 -0.004801 -0.002615  0.023663 -0.000043  0.000029
                                 0.000092  0.001373 -0.001202  0.000025 -0.000047 -0.000000 -0.000900  0.000000

   4.3   0     0.0507   -2.1086 -0.000000  0.000000 -0.000000  0.000000 -0.000000  0.000000 -0.000001  0.000004 -0.000014  0.000043
                                -0.000126  0.000343 -0.000911  0.002541 -0.007795  0.044407 -0.085815  0.078997 -0.040847  0.060952
                                -0.453756  0.733240 -0.666537 68.610883  0.518544 -0.879038-68.204310  0.000000 -0.000000  0.000002
                                -0.000010  0.000033 -0.000099  0.000263 -0.000632  0.001397 -0.003311  0.009697  0.002431 -0.076296
                                -0.100273 -0.235720  0.760138 -1.644404  1.063249 -0.000000  0.000000  0.000001 -0.000000 -0.000003
                                 0.000000  0.000012 -0.000000 -0.000048  0.000000  0.000101 -0.000000  0.000500 -0.000000  0.001816
                                -0.000001  0.001955 -0.000002  0.010553 -0.000005  0.016039 -0.000013  0.051343  0.000006  0.149627
                                -0.000025  0.000012  0.000000 -0.000050 -0.000000  0.000524  0.000000  0.005815  0.000002  0.006411
                                -0.000002  0.049516  0.000010  0.000006  0.000000 -0.000000 -0.000052 -0.000000  0.000000  0.000329
                                 0.000000 -0.000000  0.000764  0.006313  0.025036  0.034128  0.049829 -0.228875  0.001196 -0.000191
                                 0.000281  0.000147  0.003932 -0.000005 -0.000116  0.000000 -0.000511  0.000000

                                   1 3d2-    1 3d2-    1 3d2-    1 3d2-    1 3d2-    1 3d2-    1 3d2-    1 3d2-    1 3d2-    1 3d2-
                                   1 3d2-    1 3d2-    1 3d2-    1 3d2-    1 3d2-    1 3d2-    1 3d2-    1 3d2-    1 4f2-    1 4f2-
                                   1 4f2-    1 4f2-    1 4f2-    1 4f2-    1 4f2-    1 4f2-    1 4f2-    1 4f2-    1 4f2-    1 4f2-
                                   1 4f2-    1 5g2-    1 5g4-    1 5g2-    1 5g4-    1 5g2-    1 5g4-    1 5g2-    1 5g4-    1 5g2-
                                   1 5g4-    1 5g2-    1 5g4-    1 6h4-    1 6h2-    1 6h4-    1 6h2-    1 6h4-    1 6h2-    2 3d2-
                                   2 3d2-    2 3d2-    2 3d2-    2 4f2-    2 4f2-

   1.4   0     0.0303   -3.6657 -0.000000  0.000001 -0.000007  0.000031 -0.000108  0.000322 -0.000848  0.002005 -0.004300  0.009488
                                -0.024824  0.002920  0.141525  0.264210  0.207450  1.184374 -2.064937  1.633018 -0.000000  0.000000
                                -0.000001  0.000002  0.000013 -0.000013 -0.000909 -0.001809 -0.003447 -0.011348 -0.063005  0.019026
                                -0.154593 -0.000014 -0.000000  0.000059  0.000000 -0.000628 -0.000000 -0.007688 -0.000004 -0.008196
                                -0.000003 -0.001884  0.000001 -0.000000 -0.000001  0.000000  0.000024 -0.000001 -0.000203  0.000433
                                 0.002029  0.002981  0.000038 -0.000086 -0.001038

   2.4   0     0.0783   -2.6456  0.000000 -0.000000  0.000003 -0.000011  0.000038 -0.000114  0.000308 -0.000762  0.001763 -0.004604
                                 0.015285  0.009463 -0.152453 -0.167628 -0.601903  3.526999 -7.291245  4.613326 -0.000001  0.000006
                                -0.000025  0.000087 -0.000257  0.000609 -0.000691  0.004106 -0.004179  0.026985 -0.051179  0.223655
                                -0.392597  0.000012  0.000000 -0.000050 -0.000000  0.000556  0.000000  0.007531  0.000003  0.003399
                                -0.000000  0.011449  0.000007  0.000000  0.000003 -0.000000 -0.000038  0.000001  0.000256 -0.000380
                                -0.000780 -0.003732 -0.000016  0.000320 -0.000488

 HOMO      5.1    -0.291349 =      -7.9280eV
 LUMO      3.3    -0.019478 =      -0.5300eV
 LUMO-HOMO         0.271871 =       7.3980eV

 No convergence



 **********************************************************************************************************************************
 DATASETS  * FILE   NREC   LENGTH (MB)   RECORD NAMES
              1      19       22.47       500      610      700      900      950      970     1000      129      960     1100
                                          VAR    BASINP    GEOM    SYMINP    ZMAT    AOBASIS   BASIS     P2S    ABASIS      S
                                         1400     1410     1420     1200     1210     1080     1600     1650     1700
                                           T        V       ECP      H0       H01     AOSYM     SMH    MOLCAS    OPER

              2       5        9.36       700     1000      520     2202     3202
                                         GEOM     BASIS   MCVARS     RHF      RHF

 PROGRAMS   *        TOTAL       RHF       RHF       INT
 CPU TIMES  *       198.91    105.03      9.09     84.50
 REAL TIME  *       220.84 SEC
 DISK USED  *         9.32 GB
 SF USED    *         0.24 MB
 GA USED    *         0.00 MB       (max)       0.00 MB       (current)
 **********************************************************************************************************************************
   -->
   <time start="07:50:12" end="07:52:04" cpu="105.04" system="7.01" real="112.15"/>
   <storage units="megabyte" memory="8001.84" sf="0.24" df="445.09" eaf="8871.8" ga="0.0"/>
  </jobstep><!--
 SETTING SCF            =       -55.80837953  AU
 SETTING _CC_NORM_MAX   =         2.00000000
  --><jobstep command="RCCSD(T)" commandset="CCSD">
   <!--


 PROGRAM * CCSD (Restricted open-shell coupled cluster)     Authors: C. Hampel, H.-J. Werner, 1991, M. Deegan, P.J. Knowles, 1992


 Convergence thresholds:  THRVAR = 1.00D-08  THRDEN = 1.00D-06

 CCSD(T)     terms to be evaluated (factor= 1.000)


 Number of closed-shell orbitals:   8 (   4   2   2   0 )
 Number of active  orbitals:        1 (   1   0   0   0 )
 Number of external orbitals:     442 ( 175 106 106  55 )

 Memory could be reduced to 357.68 Mwords without degradation in triples

 Number of N-1 electron functions:              17
 Number of N-2 electron functions:             136
 Number of singly external CSFs:              2432
 Number of doubly external CSFs:           5288016
 Total number of CSFs:                     5290448

 Molecular orbitals read from record     3202.2  Type=RHF/CANONICAL (state 1.1)

 ?Error: RHF not converged. This error exit can be avoided using the IGNORE_ERROR option on the ORBITAL directive
   --><error/><!--
  --></jobstep><!--
  -->
  <input>
  <!--
 --></job><!--
--></molpro>
