
 Primary working directories    : /global/cscratch1/sd/haihan
 Secondary working directories  : /global/cscratch1/sd/haihan
 Wavefunction directory         : /global/homes/h/haihan/Research/ECP/f_group_element_ecps/Zr/Molpro/molecule/ZrO/AE/wfu/
 Main file repository           : /global/cscratch1/sd/haihan/

 SHA1      : 19cd028119e0e09f93f0674bd8af7968d9b3eff6
 NAME      : 2015.1.36
 ARCHNAME  : linux/x86_64
 FC        : /opt/cray/pe/craype/2.5.14/bin/ftn
 BLASLIB   : -L/opt/intel/compilers_and_libraries_2018.1.163/linux/mkl/lib/intel64 -Wl,-_start-group -lmkl_intel_ilp64 -lmkl_intel_thread -lmkl_core -Wl,-_end-group -liomp5
 id        : lbl

 Nodes     nprocs
 nid01844    11
 Number of processes for MPI-2 version of Molpro:   nprocs(total)=   12   nprocs(compute)=   11   nprocs(helper)=    1

 Using customized tuning parameters: mindgm=7; mindgv=16; mindgc=1; mindgr=1; noblas=0; minvec=7
 default implementation of scratch files=sf  

 ***,Calculation for all-electron YH molecule, SCF and CCSD(T)
 memory,1,g
 gthresh,twoint=1.0E-15
 gthresh,throvl=1.0E-15
 
 set,dkroll=1,dkho=10,dkhp=4
 basis={
 Including file /global/u2/h/haihan/Research/ECP/f_group_element_ecps/Zr/Molpro/molecule/ZrO/AE/r_1.60/../generate/Zr-aug-cc-pwCVTZ.basis
 Including file /global/u2/h/haihan/Research/ECP/f_group_element_ecps/Zr/Molpro/molecule/ZrO/AE/r_1.60/../generate/O-aug-cc-pwCVTZ.basis
 }
 
 Zr_ccsd=-3597.393660
 O_ccsd= -75.09173839
 
                                                                                 !These are the wf cards parameters
 ne = 48
 symm = 1
 ss= 0
 
                                                                                 !There are irrep cards paramters
 A1=13
 B1=5
 B2=5
 A2=1
 
 
 geometry={
     2
     ZrO molecule
     Zr 0.0 0.0 0.0
     O 0.0 0.0 1.60
 }
 {rhf,nitord=20;
  maxit,200;
  wf,ne,symm,ss
  occ,A1,B1,B2,A2
  closed,A1,B1,B2,A2
  print,orbitals=2
 }
 scf=energy
 _CC_NORM_MAX=2.0
 {rccsd(t),shifts=0.5,shiftp=0.5,thrdis=1.0;diis,1,1,15,1;maxit,200;core}
 ccsd=energy
 bind=ccsd-Zr_ccsd-O_ccsd
 
 
 table,1.60,scf,ccsd,bind
 save
 type,csv
 

 Variables initialized (889), CPU time= 0.00 sec
 Commands  initialized (702), CPU time= 0.01 sec, 572 directives.
 Default parameters read. Elapsed time= 0.11 sec

 Checking input...
 Passed
1


                                         ***  PROGRAM SYSTEM MOLPRO  ***
                                       Copyright, TTI GmbH Stuttgart, 2015
                                    Version 2015.1 linked Dec 29 2018 15:55:43


 **********************************************************************************************************************************
 LABEL *   Calculation for all-electron YH molecule, SCF and CCSD(T)                     
  64 bit mpp version                                                                     DATE: 24-Sep-22          TIME: 19:16:24  
 **********************************************************************************************************************************

 SHA1:             19cd028119e0e09f93f0674bd8af7968d9b3eff6
 **********************************************************************************************************************************

 THRESHOLDS:

 ZERO    =  1.00D-12  ONEINT  =  1.00D-12  TWOINT  =  1.00D-15  PREFAC  =  1.00D-14  LOCALI  =  1.00D-09  EORDER  =  1.00D-04
 ENERGY  =  0.00D+00  ETEST   =  0.00D+00  EDENS   =  0.00D+00  THRDEDEF=  1.00D-06  GRADIENT=  1.00D-02  STEP    =  1.00D-03
 ORBITAL =  1.00D-05  CIVEC   =  1.00D-05  COEFF   =  1.00D-04  PRINTCI =  5.00D-02  PUNCHCI =  9.90D+01  OPTGRAD =  3.00D-04
 OPTENERG=  1.00D-06  OPTSTEP =  3.00D-04  THRGRAD =  1.00D-10  COMPRESS=  1.00D-11  VARMIN  =  1.00D-07  VARMAX  =  1.00D-03
 THRDOUB =  0.00D+00  THRDIV  =  1.00D-05  THRRED  =  1.00D-07  THRPSP  =  1.00D+00  THRDC   =  1.00D-10  THRCS   =  1.00D-10
 THRNRM  =  1.00D-08  THREQ   =  0.00D+00  THRDE   =  1.00D+00  THRREF  =  1.00D-05  SPARFAC =  1.00D+00  THRDLP  =  1.00D-07
 THRDIA  =  1.00D-10  THRDLS  =  1.00D-07  THRGPS  =  0.00D+00  THRKEX  =  0.00D+00  THRDIS  =  2.00D-01  THRVAR  =  1.00D-10
 THRLOC  =  1.00D-06  THRGAP  =  1.00D-06  THRLOCT = -1.00D+00  THRGAPT = -1.00D+00  THRORB  =  1.00D-06  THRMLTP =  0.00D+00
 THRCPQCI=  1.00D-10  KEXTA   =  0.00D+00  THRCOARS=  0.00D+00  SYMTOL  =  1.00D-06  GRADTOL =  1.00D-06  THROVL  =  1.00D-08
 THRORTH =  1.00D-08  GRID    =  1.00D-06  GRIDMAX =  1.00D-03  DTMAX   =  0.00D+00  THROCCDE=  1.00D-01  THROCCDE=  1.00D-01



 THRESHOLDS:

 ZERO    =  1.00D-12  ONEINT  =  1.00D-12  TWOINT  =  1.00D-15  PREFAC  =  1.00D-14  LOCALI  =  1.00D-09  EORDER  =  1.00D-04
 ENERGY  =  0.00D+00  ETEST   =  0.00D+00  EDENS   =  0.00D+00  THRDEDEF=  1.00D-06  GRADIENT=  1.00D-02  STEP    =  1.00D-03
 ORBITAL =  1.00D-05  CIVEC   =  1.00D-05  COEFF   =  1.00D-04  PRINTCI =  5.00D-02  PUNCHCI =  9.90D+01  OPTGRAD =  3.00D-04
 OPTENERG=  1.00D-06  OPTSTEP =  3.00D-04  THRGRAD =  1.00D-10  COMPRESS=  1.00D-11  VARMIN  =  1.00D-07  VARMAX  =  1.00D-03
 THRDOUB =  0.00D+00  THRDIV  =  1.00D-05  THRRED  =  1.00D-07  THRPSP  =  1.00D+00  THRDC   =  1.00D-10  THRCS   =  1.00D-10
 THRNRM  =  1.00D-08  THREQ   =  0.00D+00  THRDE   =  1.00D+00  THRREF  =  1.00D-05  SPARFAC =  1.00D+00  THRDLP  =  1.00D-07
 THRDIA  =  1.00D-10  THRDLS  =  1.00D-07  THRGPS  =  0.00D+00  THRKEX  =  0.00D+00  THRDIS  =  2.00D-01  THRVAR  =  1.00D-10
 THRLOC  =  1.00D-06  THRGAP  =  1.00D-06  THRLOCT = -1.00D+00  THRGAPT = -1.00D+00  THRORB  =  1.00D-06  THRMLTP =  0.00D+00
 THRCPQCI=  1.00D-10  KEXTA   =  0.00D+00  THRCOARS=  0.00D+00  SYMTOL  =  1.00D-06  GRADTOL =  1.00D-06  THROVL  =  1.00D-15
 THRORTH =  1.00D-08  GRID    =  1.00D-06  GRIDMAX =  1.00D-03  DTMAX   =  0.00D+00  THROCCDE=  1.00D-01  THROCCDE=  1.00D-01


 SETTING DKROLL         =         1.00000000                                  
 SETTING DKHO           =        10.00000000                                  
 SETTING DKHP           =         4.00000000                                  

 Variable memory set to 1000000000 words,  buffer space   230000 words

 SETTING BASIS          =    USERDEF
 SETTING ZR_CCSD        =     -3597.39366000                                  
 SETTING O_CCSD         =       -75.09173839                                  
 SETTING NE             =        48.00000000                                  
 SETTING SYMM           =         1.00000000                                  
 SETTING SS             =     0.00000000D+00                                  
 SETTING A1             =        13.00000000                                  
 SETTING B1             =         5.00000000                                  
 SETTING B2             =         5.00000000                                  
 SETTING A2             =         1.00000000                                  

Geometry recognized as XYZ



 Recomputing integrals since basis changed


 Using spherical harmonics



 PROGRAM * SEWARD (Integral evaluation for generally contracted gaussian basis sets)     Author: Roland Lindh, 1990

 Geometry written to block  1 of record 700


 Point group  C2v 



 ATOMIC COORDINATES

 NR  ATOM    CHARGE       X              Y              Z

   1  ZR     40.00    0.000000000    0.000000000    0.000000000
   2  O       8.00    0.000000000    0.000000000    3.023561799

 Bond lengths in Bohr (Angstrom)

 1-2  3.023561799
     ( 1.600000000)

 NUCLEAR CHARGE:                   48
 NUMBER OF PRIMITIVE AOS:         401
 NUMBER OF SYMMETRY AOS:          341
 NUMBER OF CONTRACTIONS:          341   ( 149A1  +  78B1  +  78B2  +  36A2  )
 NUMBER OF CORE ORBITALS:          19   (  10A1  +   4B1  +   4B2  +   1A2  )
 NUMBER OF VALENCE ORBITALS:       10   (   5A1  +   2B1  +   2B2  +   1A2  )


 NUCLEAR REPULSION ENERGY  105.83544218

 One-electron integrals computed with SEWARD

 10nd-order Douglas-Kroll-Hess method activated. McWeeny DKH parametrization is used.

 Computing Douglas-Kroll / X2C integrals

 AO integral compression algorithm  1   Integral accuracy      1.0D-15

     2022.441 MB (compressed) written to integral file ( 47.6%)

     Node minimum: 125.567 MB, node maximum: 335.282 MB


 NUMBER OF SORTED TWO-ELECTRON INTEGRALS:   39965826.     BUFFER LENGTH:  32768
 NUMBER OF SEGMENTS:   2  SEGMENT LENGTH:   31981512      RECORD LENGTH: 524288

 Memory used in sort:      32.54 MW

 SORT1 READ   530794036. AND WROTE    19811836. INTEGRALS IN     58 RECORDS. CPU TIME:     9.34 SEC, REAL TIME:    11.31 SEC
 SORT2 READ   216449044. AND WROTE   439765440. INTEGRALS IN   5269 RECORDS. CPU TIME:     1.25 SEC, REAL TIME:     3.64 SEC

 Node minimum:    39935592.  Node maximum:    40095769. integrals

 OPERATOR DM      FOR CENTER  0  COORDINATES:    0.000000    0.000000    0.000000

 EXTRA SYMMETRY OF AOS IN SYMMETRY 1:   1 1 1 1 1 1 1 1 1 1   1 1 1 1 1 1 1 1 1 1   1 1 1 1 1 1 1 1 1 1   1 1 1 1 1 1 1 1 1 1
                                        1 1 1 1 1 1 1 1 1 1   1 1 1 1 1 1 1 1 1 1   2 1 2 1 2 1 2 1 2 1   2 1 2 1 2 1 2 1 2 1
                                        2 1 2 1 2 1 2 1 2 1   2 1 2 1 2 1 2 1 2 1   2 1 2 1 2 1 2 1 3 2   1 3 2 1 3 2 1 1 1 1
                                        1 1 1 1 1 1 1 1 1 1   1 1 1 1 1 1 1 1 2 1   2 1 2 1 2 1 2 1 2
 EXTRA SYMMETRY OF AOS IN SYMMETRY 2:   1 1 1 1 1 1 1 1 1 1   1 1 1 1 1 1 1 1 1 1   1 1 1 1 1 1 1 1 1 1   1 1 1 1 1 1 1 1 1 1
                                        1 1 1 1 1 1 1 1 1 2   1 2 1 2 1 2 1 2 1 2   1 2 1 1 1 1 1 1 1 1   1 1 1 1 1 2 1 2
 EXTRA SYMMETRY OF AOS IN SYMMETRY 3:   1 1 1 1 1 1 1 1 1 1   1 1 1 1 1 1 1 1 1 1   1 1 1 1 1 1 1 1 1 1   1 1 1 1 1 1 1 1 1 1
                                        1 1 1 1 1 1 1 1 1 2   1 2 1 2 1 2 1 2 1 2   1 2 1 1 1 1 1 1 1 1   1 1 1 1 1 2 1 2
 EXTRA SYMMETRY OF AOS IN SYMMETRY 4:   1 1 1 1 1 1 1 1 1 1   1 1 1 1 1 1 1 1 1 1   1 1 1 1 1 2 1 2 1 2   1 1 1 1 1 1

 Eigenvalues of metric

         1 0.118E-07 0.823E-07 0.978E-07 0.114E-06 0.506E-06 0.101E-05 0.316E-05 0.711E-05
         2 0.122E-07 0.952E-07 0.117E-06 0.104E-05 0.806E-05 0.106E-04 0.358E-04 0.402E-04
         3 0.122E-07 0.952E-07 0.117E-06 0.104E-05 0.806E-05 0.106E-04 0.358E-04 0.402E-04
         4 0.978E-07 0.108E-04 0.404E-04 0.434E-03 0.212E-02 0.597E-02 0.165E-01 0.364E-01


 **********************************************************************************************************************************
 DATASETS  * FILE   NREC   LENGTH (MB)   RECORD NAMES
              1      22       22.36       500      610      700      900      950      970     1000      129      960     1700   
                                          VAR    BASINP    GEOM    SYMINP    ZMAT    AOBASIS   BASIS     P2S    ABASIS    OPER   
                                         1101     1401     1411     1412     1650     1100     1400     1410     1200     1210   
                                          SR      EKINR    POTR     PVPR    MOLCAS      S      EKIN      POT      H0       H01  
                                         1080     1600   
                                         AOSYM     SMH  

 PROGRAMS   *        TOTAL       INT
 CPU TIMES  *        66.32     65.93
 REAL TIME  *        72.22 SEC
 DISK USED  *         4.61 GB      
 GA USED    *         0.00 MB       (max)       0.00 MB       (current)
 **********************************************************************************************************************************


 PROGRAM * RHF-SCF (CLOSED SHELL)       Authors: W. Meyer, H.-J. Werner


 NUMBER OF ELECTRONS:      24+   24-    SPACE SYMMETRY=1    SPIN SYMMETRY: Singlet 
 CONVERGENCE THRESHOLDS:    1.00E-05 (Density)    1.00E-07 (Energy)
 MAX. NUMBER OF ITERATIONS:      200
 INTERPOLATION TYPE:            DIIS
 INTERPOLATION STEPS:              2 (START)      1 (STEP)
 LEVEL SHIFTS:                  0.00 (CLOSED)  0.00 (OPEN) 

 Number of closed-shell orbitals:   24 (  13   5   5   1 )


 Orbital guess generated from atomic densities. Full valence occupancy:   15   6   6   2

 Molecular orbital dump at record        2100.2

 ITERATION    DDIFF          GRAD             ENERGY        2-EL.EN.            DIPOLE MOMENTS         DIIS   ORB.
    1      0.000D+00      0.000D+00     -3670.82548572   2970.256707    0.00000    0.00000   -3.29289    0    start
    2      0.000D+00      0.118D-01     -3670.50974823   3026.695206    0.00000    0.00000    3.73568    1    diag
    3      0.773D-01      0.198D-01     -3671.22756780   3003.344937    0.00000    0.00000   -0.70423    2    diag
    4      0.449D-01      0.105D-02     -3671.23231076   3000.847516    0.00000    0.00000   -0.63052    3    diag
    5      0.394D-02      0.584D-03     -3671.23314749   3001.729948    0.00000    0.00000   -0.70014    4    diag
    6      0.126D-02      0.126D-03     -3671.23332005   3001.904680    0.00000    0.00000   -0.69826    5    diag
    7      0.568D-03      0.423D-04     -3671.23334577   3001.970074    0.00000    0.00000   -0.69532    6    diag
    8      0.255D-03      0.139D-04     -3671.23334778   3001.975143    0.00000    0.00000   -0.69281    7    diag
    9      0.800D-04      0.400D-05     -3671.23334791   3001.973617    0.00000    0.00000   -0.69173    8    diag
   10      0.260D-04      0.132D-05     -3671.23334793   3001.971740    0.00000    0.00000   -0.69124    9    orth
   11      0.100D-04      0.457D-06     -3671.23334793   3001.971773    0.00000    0.00000   -0.69099    9    diag
   12      0.328D-05      0.101D-06     -3671.23334793   3001.971795    0.00000    0.00000   -0.69100    0    orth

 Final occupancy:  13   5   5   1

 !RHF STATE 1.1 Energy              -3671.233347930348
 Nuclear energy                       105.83544218
 One-electron energy                -5278.05468779
 Two-electron energy                 1500.98589767
 Virial quotient                       -0.91293805
 !RHF STATE 1.1 Dipole moment           0.00000000     0.00000000    -0.69099715
 Dipole moment /Debye                   0.00000000     0.00000000    -1.75622454

 ELECTRON ORBITALS
 =================


   Orb  Occ    Energy  Couls-En    Coefficients

                                   1 1s      1 1s      1 1s      1 1s      1 1s      1 1s      1 1s      1 1s      1 1s      1 1s   
                                   1 1s      1 1s      1 1s      1 1s      1 1s      1 1s      1 1s      1 1s      1 1s      1 1s   
                                   1 1s      1 1s      1 1s      1 1s      1 1s      1 1s      1 1s      1 1s      1 1s      1 1s   
                                   1 1s      1 2pz     1 2pz     1 2pz     1 2pz     1 2pz     1 2pz     1 2pz     1 2pz     1 2pz  
                                   1 2pz     1 2pz     1 2pz     1 2pz     1 2pz     1 2pz     1 2pz     1 2pz     1 2pz     1 2pz  
                                   1 2pz     1 2pz     1 2pz     1 2pz     1 2pz     1 2pz     1 2pz     1 2pz     1 2pz     1 3d0  
                                   1 3d2+    1 3d0     1 3d2+    1 3d0     1 3d2+    1 3d0     1 3d2+    1 3d0     1 3d2+    1 3d0  
                                   1 3d2+    1 3d0     1 3d2+    1 3d0     1 3d2+    1 3d0     1 3d2+    1 3d0     1 3d2+    1 3d0  
                                   1 3d2+    1 3d0     1 3d2+    1 3d0     1 3d2+    1 3d0     1 3d2+    1 3d0     1 3d2+    1 3d0  
                                   1 3d2+    1 3d0     1 3d2+    1 3d0     1 3d2+    1 3d0     1 3d2+    1 3d0     1 3d2+    1 4f0  
                                   1 4f2+    1 4f0     1 4f2+    1 4f0     1 4f2+    1 4f0     1 4f2+    1 5g0     1 5g4+    1 5g2+ 
                                   1 5g0     1 5g4+    1 5g2+    1 5g0     1 5g4+    1 5g2+    2 1s      2 1s      2 1s      2 1s   
                                   2 1s      2 1s      2 1s      2 1s      2 1s      2 1s      2 1s      2 1s      2 1s      2 2pz  
                                   2 2pz     2 2pz     2 2pz     2 2pz     2 2pz     2 2pz     2 2pz     2 3d0     2 3d2+    2 3d0  
                                   2 3d2+    2 3d0     2 3d2+    2 3d0     2 3d2+    2 4f0     2 4f2+    2 4f0     2 4f2+ 

   1.1   2  -665.1470-1485.4125  0.000042  0.000111  0.000306  0.000707  0.001535  0.003175  0.006516  0.013482  0.028412  0.060272
                                 0.123434  0.225418  0.318989  0.279036 -0.004786  0.105662  0.006281  0.002712 -0.003377  0.004445
                                -0.004762  0.003877 -0.005178  0.003959 -0.000342  0.000152 -0.000102  0.000036 -0.000049  0.000008
                                -0.000002  0.000000  0.000000  0.000000  0.000000  0.000000  0.000000  0.000000 -0.000000  0.000001
                                 0.000002  0.000001 -0.000011  0.000018 -0.000034  0.000085 -0.000153  0.000164 -0.000141  0.000298
                                -0.000385  0.000215 -0.000078  0.000086 -0.000075 -0.000006 -0.000018  0.000001 -0.000000 -0.000000
                                 0.000000 -0.000000  0.000000 -0.000001  0.000000 -0.000000 -0.000000  0.000000  0.000000 -0.000002
                                -0.000000  0.000002  0.000000 -0.000001 -0.000000  0.000001  0.000000 -0.000008  0.000000  0.000049
                                -0.000000 -0.000137  0.000000  0.000393 -0.000000 -0.000363  0.000000  0.000070 -0.000000 -0.000017
                                 0.000000  0.000003 -0.000000 -0.000007  0.000000 -0.000001 -0.000000  0.000000  0.000000 -0.000000
                                -0.000000  0.000000 -0.000000 -0.000004  0.000000 -0.000001  0.000000  0.000000 -0.000000  0.000000
                                -0.000000  0.000000 -0.000000 -0.000001 -0.000000  0.000000 -0.000000  0.000000 -0.000000  0.000000
                                -0.000000  0.000004  0.000009  0.000005 -0.000005  0.000023  0.000035 -0.000008 -0.000007  0.000000
                                -0.000000  0.000000  0.000000 -0.000013 -0.000005  0.000000 -0.000000  0.000000  0.000000 -0.000001
                                -0.000000  0.000002 -0.000000 -0.000000 -0.000000 -0.000000 -0.000000  0.000001  0.000000

   2.1   2   -94.8740 -300.7842 -0.000014 -0.000036 -0.000101 -0.000234 -0.000508 -0.001055 -0.002177 -0.004544 -0.009722 -0.021200
                                -0.045701 -0.092288 -0.158110 -0.186363  0.004620 -0.034328  0.361001  0.542749  0.231053  0.018521
                                 0.011038  0.001418 -0.004787  0.004296 -0.000635  0.000257 -0.000203  0.000072 -0.000100  0.000015
                                -0.000003  0.000000  0.000000  0.000000  0.000001  0.000003  0.000011  0.000033  0.000090  0.000199
                                 0.000330  0.000421  0.000302 -0.000012 -0.000000  0.000160 -0.000298  0.000324 -0.000270  0.000565
                                -0.000726  0.000407 -0.000146  0.000177 -0.000159 -0.000010 -0.000036  0.000002 -0.000000 -0.000000
                                 0.000000 -0.000000 -0.000000 -0.000000  0.000000 -0.000004 -0.000000 -0.000014  0.000000 -0.000012
                                -0.000000  0.000004  0.000000 -0.000001 -0.000000  0.000001  0.000000 -0.000013 -0.000000  0.000080
                                 0.000000 -0.000231 -0.000000  0.000687  0.000000 -0.000641 -0.000000  0.000128  0.000000 -0.000036
                                -0.000000  0.000007  0.000000 -0.000014 -0.000000 -0.000001  0.000000  0.000000 -0.000000  0.000004
                                 0.000000 -0.000001 -0.000000 -0.000007  0.000000 -0.000002 -0.000000 -0.000001 -0.000000 -0.000000
                                -0.000001  0.000000  0.000000 -0.000001 -0.000000 -0.000000 -0.000000  0.000000 -0.000000  0.000000
                                -0.000000  0.000005  0.000012  0.000007 -0.000008  0.000049  0.000072 -0.000012 -0.000009 -0.000000
                                -0.000001  0.000001 -0.000001 -0.000029 -0.000011  0.000001  0.000000 -0.000000 -0.000000 -0.000001
                                -0.000000  0.000006  0.000000 -0.000000  0.000000 -0.000001  0.000000  0.000001  0.000000

   3.1   2   -84.4032 -286.5776  0.000000  0.000000  0.000000  0.000000  0.000001  0.000001  0.000003  0.000005  0.000012  0.000026
                                 0.000055  0.000112  0.000192  0.000228 -0.000005  0.000034 -0.000474 -0.000608 -0.000253 -0.000041
                                -0.000066  0.000057 -0.000156  0.000158 -0.000015  0.000025 -0.000049 -0.000008 -0.000027 -0.000003
                                 0.000001  0.000014  0.000054  0.000210  0.000776  0.002803  0.009566  0.029702  0.080894  0.181361
                                 0.307740  0.343377  0.167429  0.035822 -0.004777  0.086746 -0.113564  0.095327 -0.052859  0.063065
                                -0.061773  0.023541 -0.004771  0.002013 -0.001421  0.000133 -0.000047  0.000009 -0.000002  0.000000
                                 0.000000  0.000001 -0.000000  0.000004  0.000000  0.000020  0.000000  0.000073  0.000000  0.000081
                                 0.000000 -0.000017 -0.000000  0.000007  0.000000  0.000009 -0.000000 -0.000036  0.000000  0.000233
                                -0.000000 -0.000586  0.000000  0.001467 -0.000000 -0.001269  0.000000  0.000203 -0.000000 -0.000033
                                 0.000000  0.000012 -0.000000 -0.000003  0.000000 -0.000003 -0.000000  0.000001  0.000000 -0.000007
                                -0.000000 -0.000001 -0.000000 -0.000002 -0.000000 -0.000000  0.000000 -0.000000 -0.000000  0.000000
                                 0.000001  0.000000  0.000000 -0.000000  0.000000  0.000000  0.000000  0.000000  0.000000  0.000000
                                 0.000000  0.000001  0.000003  0.000007 -0.000016  0.000032  0.000047 -0.000006 -0.000001 -0.000000
                                 0.000000  0.000000  0.000010 -0.000035 -0.000008  0.000001  0.000000  0.000000  0.000000 -0.000001
                                -0.000000  0.000012  0.000000  0.000000 -0.000000  0.000001  0.000000 -0.000003  0.000000

   4.1   2   -20.5814  -65.7610  0.000000  0.000000  0.000000  0.000000  0.000000  0.000000 -0.000000  0.000000 -0.000000  0.000001
                                -0.000001  0.000006 -0.000017  0.000117 -0.000381  0.000421 -0.000350  0.000656 -0.002209  0.005337
                                -0.010430  0.014604 -0.041030  0.038424 -0.009455  0.010962 -0.009719 -0.013339 -0.002250 -0.000931
                                 0.000262  0.000000 -0.000000  0.000000 -0.000000  0.000000 -0.000000  0.000000 -0.000000  0.000002
                                -0.000006  0.000031 -0.000601  0.000982 -0.001782  0.004622 -0.009156  0.011426 -0.013310  0.042019
                                -0.062974  0.040766 -0.017753  0.025682 -0.023174 -0.010667 -0.002915 -0.000118  0.000064 -0.000000
                                 0.000000  0.000000 -0.000000 -0.000001  0.000000  0.000001  0.000000 -0.000017 -0.000000  0.000212
                                 0.000000 -0.000279 -0.000000  0.000129  0.000000 -0.000242 -0.000000  0.000926  0.000000 -0.002404
                                -0.000000  0.000877  0.000000  0.011963 -0.000000 -0.015662 -0.000000  0.005484  0.000000 -0.000637
                                -0.000000 -0.007181  0.000000 -0.001045  0.000000 -0.000264 -0.000000  0.000065  0.000000 -0.000038
                                -0.000000  0.000543 -0.000000 -0.002823  0.000000 -0.000268  0.000000  0.000150  0.000000 -0.000000
                                 0.000073  0.000000  0.000000 -0.000628 -0.000000 -0.000000  0.000743  0.004237  0.020736  0.079667
                                 0.231771  0.426005  0.338322  0.044524 -0.014307  0.023882  0.008327  0.006329  0.011409 -0.000029
                                 0.000046 -0.000664  0.000847 -0.009649 -0.001226 -0.000409 -0.000018  0.000174 -0.000000 -0.000351
                                -0.000000  0.001779  0.000000 -0.000003  0.000000  0.000036 -0.000000  0.000161 -0.000000

   5.1   2   -16.7619 -102.3495  0.000006  0.000015  0.000042  0.000097  0.000212  0.000440  0.000908  0.001900  0.004070  0.008916
                                 0.019333  0.039669  0.069689  0.087577 -0.006105  0.020249 -0.235530 -0.479472 -0.253269  0.245872
                                 0.404339  0.490476  0.249911 -0.024471  0.015000 -0.002481  0.001560 -0.000759  0.000816 -0.000137
                                 0.000031 -0.000000 -0.000000 -0.000001 -0.000002 -0.000008 -0.000026 -0.000081 -0.000228 -0.000528
                                -0.000940 -0.001106 -0.000301  0.000219  0.001770  0.000202  0.002805  0.000094  0.002444 -0.001414
                                 0.002366 -0.001620  0.000837 -0.001197  0.000680  0.000079  0.000293 -0.000008  0.000001 -0.000000
                                -0.000000 -0.000001  0.000000 -0.000005  0.000000 -0.000017  0.000000 -0.000049  0.000000 -0.000103
                                -0.000000 -0.000035  0.000000 -0.000204 -0.000000 -0.000244  0.000000 -0.000153 -0.000000 -0.000549
                                 0.000000  0.001656 -0.000000 -0.005857  0.000000  0.005939 -0.000000 -0.001449  0.000000  0.000114
                                -0.000000  0.000014  0.000000  0.000132 -0.000000  0.000017  0.000000 -0.000002  0.000000  0.000079
                                 0.000000 -0.000155 -0.000000  0.000079  0.000000  0.000034 -0.000000 -0.000001 -0.000000 -0.000000
                                -0.000023  0.000000  0.000000  0.000034  0.000000 -0.000000 -0.000000 -0.000000 -0.000000 -0.000002
                                -0.000002 -0.000047 -0.000142 -0.000148  0.000150 -0.000117 -0.000445  0.000154  0.000078 -0.000003
                                -0.000030  0.000020 -0.000157 -0.000046  0.000029  0.000020  0.000001  0.000006 -0.000000  0.000097
                                -0.000000  0.000035  0.000000  0.000000  0.000000 -0.000006  0.000000 -0.000024 -0.000000

   6.1   2   -13.2402  -95.8295 -0.000000 -0.000000 -0.000000 -0.000001 -0.000001 -0.000003 -0.000006 -0.000012 -0.000027 -0.000058
                                -0.000126 -0.000259 -0.000455 -0.000577  0.000049 -0.000140  0.001593  0.003107  0.001611 -0.001493
                                -0.003081 -0.003398  0.000170 -0.000857 -0.000236 -0.000833  0.001701 -0.000154  0.000299 -0.000039
                                -0.000000 -0.000006 -0.000023 -0.000090 -0.000333 -0.001207 -0.004152 -0.013042 -0.036490 -0.084896
                                -0.152487 -0.171721 -0.013906  0.012057  0.285330  0.032423  0.434320  0.027447  0.293401 -0.059322
                                 0.131398 -0.042221  0.012880 -0.006392  0.005816 -0.000503  0.000131 -0.000047  0.000007  0.000000
                                 0.000000  0.000002 -0.000000  0.000015 -0.000000  0.000055 -0.000000  0.000140 -0.000000  0.000301
                                -0.000000  0.000106  0.000000  0.000738 -0.000000  0.001126 -0.000000  0.001328  0.000000 -0.001362
                                -0.000000  0.002464  0.000000 -0.004415 -0.000000  0.003268  0.000000 -0.000315 -0.000000  0.000712
                                 0.000000 -0.000328 -0.000000 -0.000033  0.000000 -0.000009 -0.000000 -0.000005 -0.000000 -0.000342
                                -0.000000  0.000351  0.000000 -0.000036 -0.000000 -0.000042  0.000000  0.000034 -0.000000 -0.000000
                                 0.000056 -0.000000 -0.000000 -0.000046  0.000000 -0.000000 -0.000000 -0.000000 -0.000001 -0.000004
                                -0.000013 -0.000011  0.000027  0.000073  0.000013 -0.000647 -0.000431 -0.000062 -0.000029  0.000002
                                 0.000029 -0.000084  0.000107  0.000707  0.000169 -0.000033 -0.000002  0.000009  0.000000 -0.000059
                                -0.000000 -0.000227  0.000000  0.000001 -0.000000 -0.000010 -0.000000  0.000003  0.000000

   7.1   2    -7.4657  -85.4776  0.000000  0.000000  0.000000  0.000000  0.000000  0.000000  0.000001  0.000002  0.000003  0.000007
                                 0.000017  0.000033  0.000062  0.000055  0.000059 -0.000054 -0.000140 -0.000531  0.000160 -0.000937
                                 0.002680 -0.002860  0.013524 -0.012954  0.001975  0.000667 -0.005198  0.000317 -0.001280  0.000181
                                -0.000006  0.000000  0.000000  0.000000  0.000001  0.000004  0.000015  0.000047  0.000132  0.000312
                                 0.000556  0.000659 -0.000821  0.001230 -0.003690  0.006128 -0.014120  0.013869 -0.013469  0.030965
                                -0.038587  0.019589 -0.004440  0.003456 -0.006383  0.000042 -0.000275  0.000074  0.000005  0.000165
                                 0.000000  0.001479  0.000000  0.008698  0.000000  0.034323  0.000000  0.100479  0.000000  0.221163
                                 0.000000 -0.003570 -0.000000  0.327740  0.000000  0.332247  0.000000  0.202910  0.000000 -0.034640
                                -0.000000  0.106121  0.000000 -0.100768 -0.000000  0.075492  0.000000 -0.007010 -0.000000 -0.001267
                                 0.000000  0.000527 -0.000000  0.000166  0.000000  0.000020 -0.000000  0.000023  0.000000  0.001005
                                 0.000000 -0.001388 -0.000000  0.000185  0.000000  0.000151 -0.000000 -0.000300  0.000000 -0.000000
                                -0.000229  0.000000  0.000000  0.000189 -0.000000  0.000000 -0.000000 -0.000001 -0.000003 -0.000014
                                -0.000036 -0.000173 -0.000465 -0.000629  0.000757  0.002680  0.001850  0.000492  0.000179 -0.000023
                                -0.000239  0.000122 -0.001453 -0.002784 -0.000682  0.000138  0.000005  0.000073 -0.000000  0.000840
                                 0.000000  0.000797 -0.000000 -0.000002  0.000000 -0.000152 -0.000000 -0.000134 -0.000000

   8.1   2    -7.4651  -85.3869 -0.000000 -0.000000 -0.000000 -0.000000 -0.000000 -0.000000 -0.000000 -0.000000 -0.000000 -0.000000
                                -0.000000 -0.000000 -0.000000 -0.000000 -0.000000  0.000000  0.000000  0.000000 -0.000000  0.000000
                                -0.000000  0.000000 -0.000000  0.000000 -0.000000 -0.000000  0.000000 -0.000000  0.000000 -0.000000
                                -0.000000 -0.000000 -0.000000 -0.000000 -0.000000 -0.000000 -0.000000 -0.000000 -0.000000 -0.000000
                                -0.000000 -0.000000  0.000000 -0.000000  0.000000 -0.000000  0.000000 -0.000000  0.000000 -0.000000
                                 0.000000 -0.000000  0.000000 -0.000000  0.000000 -0.000000  0.000000 -0.000000 -0.000000 -0.000000
                                 0.000165 -0.000000  0.001477 -0.000000  0.008684 -0.000000  0.034266 -0.000000  0.100307 -0.000000
                                 0.220794  0.000000 -0.003557 -0.000000  0.327293 -0.000000  0.332077 -0.000000  0.203847  0.000000
                                -0.036154 -0.000000  0.111467  0.000000 -0.107836 -0.000000  0.077952  0.000000 -0.004839  0.000000
                                 0.000468 -0.000000 -0.000198 -0.000000  0.000034 -0.000000 -0.000011 -0.000000  0.000002 -0.000000
                                 0.000504  0.000000 -0.000331 -0.000000  0.000115 -0.000000 -0.000029  0.000000  0.000000 -0.000183
                                 0.000000  0.000000  0.000009 -0.000000 -0.000000  0.000008  0.000000  0.000000  0.000000  0.000000
                                 0.000000  0.000000  0.000000  0.000000 -0.000000 -0.000000 -0.000000 -0.000000 -0.000000  0.000000
                                 0.000000 -0.000000  0.000000  0.000000  0.000000 -0.000000 -0.000000 -0.000000 -0.000002 -0.000000
                                 0.000021 -0.000000 -0.000039  0.000000  0.000001  0.000000 -0.000005  0.000000 -0.000023

   9.1   2    -2.5894  -40.5326 -0.000002 -0.000006 -0.000016 -0.000037 -0.000080 -0.000166 -0.000342 -0.000716 -0.001532 -0.003366
                                -0.007285 -0.015049 -0.026366 -0.034469  0.005272 -0.011092  0.098588  0.202394  0.130251 -0.166980
                                -0.163838 -0.579433 -0.048441 -0.098301  0.795300  0.537327 -0.032409  0.024174 -0.044062  0.006261
                                -0.001184  0.000000  0.000000  0.000001  0.000002  0.000007  0.000025  0.000081  0.000221  0.000539
                                 0.000905  0.001328 -0.004854  0.007986 -0.018064  0.041231 -0.083820  0.091337 -0.087872  0.182740
                                -0.219790  0.112990 -0.019800  0.007364 -0.017563 -0.012575 -0.015712  0.000448  0.000093  0.000000
                                -0.000000  0.000001 -0.000000  0.000010 -0.000000  0.000028 -0.000000  0.000120 -0.000000 -0.000195
                                 0.000000  0.000535 -0.000000  0.000039  0.000000  0.000836 -0.000000 -0.003695  0.000000  0.021994
                                -0.000000 -0.053643  0.000000  0.095204 -0.000000 -0.064682  0.000000 -0.002650 -0.000000 -0.003544
                                 0.000000 -0.004623 -0.000000 -0.004821  0.000000 -0.001016 -0.000000  0.000338  0.000000  0.000298
                                -0.000000 -0.001677 -0.000000 -0.002209  0.000000 -0.000722  0.000000  0.000655 -0.000000  0.000000
                                 0.000254  0.000000  0.000000 -0.000188 -0.000000  0.000000 -0.000012 -0.000067 -0.000330 -0.001290
                                -0.004096 -0.008206 -0.008627  0.009360  0.032175  0.036881  0.036976 -0.002492 -0.001950 -0.000532
                                -0.003815 -0.011904 -0.023313 -0.021619 -0.006403 -0.000398 -0.000104  0.002112  0.000000  0.007835
                                 0.000000  0.004019 -0.000000  0.000106 -0.000000 -0.001587 -0.000000 -0.001572 -0.000000

  10.1   2    -1.6836  -33.4690  0.000000  0.000001  0.000001  0.000003  0.000007  0.000015  0.000031  0.000064  0.000138  0.000300
                                 0.000656  0.001337  0.002398  0.002860  0.000289  0.000146 -0.008158 -0.019648 -0.006735  0.002184
                                 0.042108  0.014493  0.124334 -0.103483 -0.054810 -0.064144 -0.044618 -0.035565 -0.031542 -0.001346
                                 0.000852  0.000002  0.000007  0.000027  0.000099  0.000358  0.001232  0.003875  0.010890  0.025476
                                 0.046250  0.052055 -0.000181 -0.007689 -0.105699 -0.027949 -0.152370 -0.059544 -0.080105 -0.047256
                                 0.276511 -0.043068  0.490535  0.225436  0.017366 -0.005346 -0.019204  0.000295  0.000294 -0.000003
                                 0.000000 -0.000024  0.000000 -0.000141  0.000000 -0.000570  0.000000 -0.001619  0.000000 -0.004264
                                -0.000000  0.000807  0.000000 -0.005814  0.000000 -0.004277  0.000000 -0.007331 -0.000000  0.032361
                                 0.000000 -0.049199 -0.000000  0.022075  0.000000  0.042455 -0.000000 -0.025111  0.000000  0.012653
                                -0.000000 -0.020971  0.000000 -0.002304 -0.000000 -0.002106  0.000000  0.000693 -0.000000  0.004483
                                 0.000000  0.003755  0.000000 -0.001003  0.000000 -0.000229 -0.000000  0.002074 -0.000000  0.000000
                                 0.000130 -0.000000  0.000000  0.000809  0.000000  0.000000 -0.000068 -0.000390 -0.001935 -0.007588
                                -0.024053 -0.050013 -0.056525  0.062994  0.215134  0.168897  0.061217 -0.011412 -0.009166 -0.002023
                                -0.014615 -0.047486 -0.086330 -0.070568 -0.011958 -0.001582 -0.000398  0.005239  0.000000  0.021608
                                 0.000000  0.012626  0.000000  0.000301 -0.000000 -0.003221 -0.000000 -0.004560 -0.000000

  11.1   2    -1.1568  -24.6721  0.000000  0.000001  0.000002  0.000005  0.000011  0.000022  0.000046  0.000097  0.000207  0.000456
                                 0.000983  0.002044  0.003542  0.004845 -0.001292  0.002146 -0.013968 -0.026712 -0.021627  0.032583
                                 0.004107  0.114575 -0.079197  0.097235 -0.174800 -0.059181 -0.018970 -0.053363  0.024068 -0.010147
                                 0.002458 -0.000001 -0.000004 -0.000016 -0.000060 -0.000215 -0.000743 -0.002334 -0.006577 -0.015345
                                -0.028015 -0.030944 -0.009894  0.021602  0.031900  0.103530 -0.073514  0.229071 -0.130198  0.417509
                                -0.671559  0.275428 -0.392384 -0.051262 -0.121599 -0.056973  0.007379 -0.003877  0.001058 -0.000008
                                 0.000000 -0.000074  0.000000 -0.000434  0.000000 -0.001732  0.000000 -0.005064  0.000000 -0.011951
                                -0.000000  0.001075  0.000000 -0.016690 -0.000000 -0.014137  0.000000 -0.006952 -0.000000  0.051800
                                 0.000000 -0.121361 -0.000000  0.480212  0.000000 -0.459501 -0.000000  0.170845  0.000000  0.038431
                                -0.000000 -0.026404  0.000000  0.008989 -0.000000 -0.002053  0.000000  0.000402  0.000000  0.008680
                                -0.000000  0.015918 -0.000000 -0.002927 -0.000000  0.000946  0.000000  0.001893 -0.000000  0.000000
                                 0.001866 -0.000000  0.000000 -0.000515  0.000000  0.000000 -0.000148 -0.000846 -0.004196 -0.016455
                                -0.052311 -0.108705 -0.122770  0.153025  0.495967  0.440755  0.034588 -0.028467 -0.021276  0.000313
                                 0.001879  0.012879  0.005483 -0.054628 -0.003854  0.001290  0.000120 -0.000683  0.000000  0.003736
                                 0.000000  0.013215  0.000000 -0.000023 -0.000000 -0.000211 -0.000000  0.000138 -0.000000

  12.1   2    -0.5285  -22.3907 -0.000000 -0.000001 -0.000002 -0.000004 -0.000009 -0.000018 -0.000038 -0.000079 -0.000170 -0.000370
                                -0.000812 -0.001645 -0.002989 -0.003381 -0.000875  0.000393  0.009650  0.025554  0.005227  0.005149
                                -0.070683  0.002570 -0.231639  0.198650  0.096070  0.110787  0.031625 -0.022497 -0.034242 -0.003494
                                -0.000468  0.000000  0.000002  0.000007  0.000025  0.000090  0.000313  0.000979  0.002769  0.006432
                                 0.011851  0.012667  0.011731 -0.022066  0.012764 -0.118002  0.181284 -0.278032  0.226225 -0.499531
                                 0.627985 -0.205888  0.138101  0.134637 -0.009801  0.018694 -0.039724 -0.001206 -0.000796  0.000022
                                 0.000000  0.000202  0.000000  0.001179  0.000000  0.004727  0.000000  0.013725  0.000000  0.033627
                                 0.000000 -0.004284  0.000000  0.046284  0.000000  0.036592  0.000000  0.029298  0.000000 -0.202174
                                -0.000000  0.419283  0.000000 -1.302607 -0.000000  1.135676  0.000000 -0.396382 -0.000000 -0.143470
                                -0.000000 -0.039093  0.000000 -0.052885 -0.000000  0.000496  0.000000 -0.001946  0.000000 -0.017465
                                 0.000000 -0.024828  0.000000 -0.030490  0.000000 -0.008403  0.000000 -0.003232 -0.000000 -0.000000
                                -0.001663 -0.000000 -0.000000 -0.009673  0.000000 -0.000000 -0.000016 -0.000091 -0.000456 -0.001753
                                -0.005803 -0.009696 -0.004861  0.033163  0.045482  0.158584  0.095507 -0.014324 -0.006980  0.010185
                                 0.074943  0.255201  0.414565  0.288817  0.033219  0.008503  0.002017 -0.006731 -0.000000 -0.031000
                                 0.000000 -0.021536  0.000000 -0.000359 -0.000000  0.004298  0.000000  0.007463  0.000000

  13.1   2    -0.2360  -14.5602  0.000001  0.000002  0.000004  0.000010  0.000022  0.000046  0.000094  0.000197  0.000422  0.000927
                                 0.002005  0.004146  0.007263  0.009537 -0.001541  0.003160 -0.027527 -0.056718 -0.037275  0.048855
                                 0.047168  0.186589  0.007796  0.035137 -0.329350 -0.391819  0.017396  0.303103  0.591263  0.234290
                                -0.003711  0.000000  0.000000  0.000002  0.000007  0.000024  0.000082  0.000259  0.000729  0.001703
                                 0.003105  0.003452  0.000496 -0.001465 -0.005555 -0.006077 -0.003509 -0.011486 -0.000037 -0.007340
                                 0.020245  0.004233  0.034523  0.061927 -0.018826 -0.074736 -0.160459 -0.045019  0.001499  0.000008
                                 0.000000  0.000069  0.000000  0.000404  0.000000  0.001622  0.000000  0.004716  0.000000  0.011462
                                 0.000000 -0.001362 -0.000000  0.015793  0.000000  0.012752  0.000000  0.007691  0.000000 -0.062481
                                -0.000000  0.142923  0.000000 -0.537058 -0.000000  0.513344  0.000000 -0.182290 -0.000000 -0.053038
                                -0.000000 -0.058605 -0.000000 -0.057990 -0.000000 -0.010735 -0.000000 -0.001345 -0.000000 -0.000112
                                 0.000000  0.002533  0.000000  0.005682  0.000000  0.002214 -0.000000  0.000444  0.000000  0.000000
                                 0.001229  0.000000  0.000000  0.001978 -0.000000 -0.000000  0.000010  0.000057  0.000282  0.001103
                                 0.003545  0.007100  0.007433 -0.012646 -0.039007 -0.040368 -0.012047  0.003241  0.002056 -0.001095
                                -0.008086 -0.027731 -0.043318 -0.049659 -0.017879 -0.000896 -0.000215 -0.001838 -0.000000 -0.006390
                                -0.000000 -0.000050  0.000000 -0.000124 -0.000000  0.001108  0.000000  0.001059  0.000000

  14.1   0     0.0182   -4.9894  0.000000  0.000000  0.000001  0.000002  0.000005  0.000010  0.000021  0.000045  0.000093  0.000213
                                 0.000436  0.000976  0.001479  0.003110 -0.003545  0.004263 -0.009172 -0.006859 -0.029099  0.063962
                                -0.101532  0.212921 -0.541853  0.530883 -0.215746  0.100290 -0.372781  0.886933 -0.426367  1.610252
                                -1.475025 -0.000000 -0.000000 -0.000002 -0.000006 -0.000022 -0.000069 -0.000244 -0.000599 -0.001665
                                -0.002197 -0.005871  0.057974 -0.095734  0.190487 -0.482912  0.940445 -1.064919  1.008052 -2.318783
                                 3.094599 -1.818117  0.675529 -0.986647  0.933188 -0.197282  0.641499 -0.501622  1.029471  0.000003
                                 0.000000  0.000027  0.000000  0.000156  0.000000  0.000637  0.000000  0.001795  0.000000  0.005095
                                 0.000000 -0.001348 -0.000000  0.006590  0.000000  0.004071  0.000000  0.009675  0.000000 -0.072535
                                -0.000000  0.204454  0.000000 -0.686017 -0.000000  0.657852  0.000000 -0.169943 -0.000000  0.017759
                                -0.000000 -0.013587 -0.000000  0.034986 -0.000000 -0.002215 -0.000000 -0.164847 -0.000000  0.000870
                                -0.000000  0.002309  0.000000  0.024270  0.000000  0.011688  0.000000  0.000103  0.000000  0.000000
                                 0.002725  0.000000  0.000000  0.006467 -0.000000 -0.000000  0.000002  0.000013  0.000069  0.000244
                                 0.000929  0.000187 -0.003912 -0.008942  0.000331 -0.110504 -0.608037  0.007345  0.003589 -0.000864
                                -0.006369 -0.022284 -0.034501  0.024547  0.115641 -0.000710 -0.000169 -0.001186 -0.000000 -0.002588
                                -0.000000 -0.009541 -0.000000 -0.000050 -0.000000  0.001210  0.000000 -0.001593  0.000000

  15.1   0     0.0235   -4.5534 -0.000000 -0.000000 -0.000000 -0.000001 -0.000002 -0.000004 -0.000008 -0.000019 -0.000036 -0.000095
                                -0.000162 -0.000462 -0.000413 -0.002547  0.005632 -0.006390  0.007687 -0.004847  0.039070 -0.095672
                                 0.188930 -0.312604  0.945956 -0.916383  0.280435 -0.304066  0.658100 -1.488614  2.712062 -2.770845
                                 2.179902 -0.000000 -0.000000 -0.000001 -0.000004 -0.000015 -0.000050 -0.000166 -0.000434 -0.001113
                                -0.001720 -0.003176  0.021130 -0.034665  0.071172 -0.173623  0.340873 -0.379183  0.359438 -0.822711
                                 1.101530 -0.666668  0.258089 -0.481875  0.471874 -0.321993  0.765912 -0.554468  0.788857 -0.000001
                                -0.000000 -0.000010 -0.000000 -0.000058 -0.000000 -0.000238 -0.000000 -0.000672 -0.000000 -0.001900
                                 0.000000  0.000498 -0.000000 -0.002453 -0.000000 -0.001522 -0.000000 -0.003016  0.000000  0.018680
                                -0.000000 -0.034384  0.000000  0.036364 -0.000000  0.009356  0.000000 -0.023101  0.000000  0.074949
                                 0.000000 -0.156420  0.000000  0.129641  0.000000 -0.050697 -0.000000 -0.204766  0.000000  0.000812
                                 0.000000 -0.002792 -0.000000 -0.029443 -0.000000 -0.010108 -0.000000 -0.000056 -0.000000 -0.000000
                                -0.001786 -0.000000 -0.000000 -0.011823  0.000000 -0.000000  0.000003  0.000018  0.000078  0.000383
                                 0.000796  0.006652  0.019128  0.014537 -0.052547  0.213538 -0.779770 -0.018681 -0.008679 -0.000458
                                -0.003567 -0.010231 -0.017702 -0.103612  0.323242 -0.000037 -0.000070 -0.000121  0.000000  0.004981
                                 0.000000  0.010171  0.000000  0.000021  0.000000 -0.000609 -0.000000 -0.002647 -0.000000

                                   1 2px     1 2px     1 2px     1 2px     1 2px     1 2px     1 2px     1 2px     1 2px     1 2px  
                                   1 2px     1 2px     1 2px     1 2px     1 2px     1 2px     1 2px     1 2px     1 2px     1 2px  
                                   1 2px     1 2px     1 2px     1 2px     1 2px     1 2px     1 2px     1 2px     1 3d1+    1 3d1+ 
                                   1 3d1+    1 3d1+    1 3d1+    1 3d1+    1 3d1+    1 3d1+    1 3d1+    1 3d1+    1 3d1+    1 3d1+ 
                                   1 3d1+    1 3d1+    1 3d1+    1 3d1+    1 3d1+    1 3d1+    1 3d1+    1 3d1+    1 4f1+    1 4f3+ 
                                   1 4f1+    1 4f3+    1 4f1+    1 4f3+    1 4f1+    1 4f3+    1 5g1+    1 5g3+    1 5g1+    1 5g3+ 
                                   1 5g1+    1 5g3+    2 2px     2 2px     2 2px     2 2px     2 2px     2 2px     2 2px     2 2px  
                                   2 3d1+    2 3d1+    2 3d1+    2 3d1+    2 4f1+    2 4f3+    2 4f1+    2 4f3+ 

   1.2   2   -84.4052 -286.5753  0.000014  0.000054  0.000210  0.000776  0.002803  0.009566  0.029701  0.080893  0.181358  0.307738
                                 0.343379  0.167512  0.035695 -0.004566  0.086217 -0.112623  0.094320 -0.052025  0.061471 -0.059840
                                 0.022572 -0.004476  0.001798 -0.001233  0.000125 -0.000033  0.000008 -0.000002  0.000000  0.000000
                                 0.000002  0.000011  0.000048  0.000066 -0.000013  0.000018  0.000000 -0.000004  0.000019 -0.000058
                                 0.000159 -0.000143  0.000025 -0.000002 -0.000000 -0.000002 -0.000002  0.000000  0.000001 -0.000000
                                 0.000001  0.000000 -0.000001 -0.000000 -0.000002  0.000000  0.000001  0.000000  0.000000 -0.000000
                                -0.000001  0.000000 -0.000000 -0.000001 -0.000001 -0.000002  0.000001  0.000006  0.000000  0.000000
                                -0.000000  0.000001 -0.000001  0.000000  0.000000  0.000000 -0.000001 -0.000000

   2.2   2   -13.2482  -95.7880 -0.000006 -0.000023 -0.000090 -0.000333 -0.001207 -0.004151 -0.013038 -0.036480 -0.084872 -0.152446
                                -0.171674 -0.014161  0.012435  0.284555  0.034142  0.430898  0.031002  0.290227 -0.052109  0.122624
                                -0.037330  0.011259 -0.004059  0.002964 -0.000354  0.000111 -0.000015  0.000005  0.000000  0.000003
                                 0.000018  0.000066  0.000181  0.000418  0.000056  0.000822  0.000958  0.000673 -0.000112 -0.000095
                                 0.001172 -0.001278  0.000308  0.000030 -0.000008  0.000019  0.000020 -0.000002 -0.000225  0.000000
                                 0.000101  0.000000 -0.000028 -0.000000  0.000021  0.000000  0.000005  0.000000  0.000004 -0.000000
                                -0.000007  0.000000 -0.000000 -0.000005  0.000030  0.000011 -0.000021 -0.000059  0.000009  0.000001
                                -0.000009  0.000029  0.000041  0.000001  0.000003 -0.000000 -0.000035  0.000000

   3.2   2    -7.4619  -85.4333  0.000000  0.000000  0.000000  0.000001  0.000003  0.000011  0.000034  0.000096  0.000225  0.000408
                                 0.000446  0.000086 -0.000167 -0.000527 -0.000879  0.000160 -0.001864  0.000950 -0.003312  0.004980
                                -0.003180  0.001340 -0.000838  0.000197 -0.000063 -0.000142 -0.000039  0.000007  0.000165  0.001478
                                 0.008689  0.034288  0.100371  0.220971 -0.003613  0.327491  0.332130  0.203931 -0.038172  0.116619
                                -0.124840  0.094098 -0.008249  0.000432 -0.000274 -0.000039 -0.000074  0.000006  0.000776  0.000000
                                -0.000800 -0.000000  0.000103  0.000000 -0.000082  0.000000 -0.000255  0.000000 -0.000088  0.000000
                                 0.000036 -0.000000  0.000007  0.000073 -0.000036  0.000182  0.000283  0.000213 -0.000048 -0.000002
                                 0.000019 -0.000303 -0.000242 -0.000005  0.000044  0.000000  0.000240 -0.000000

   4.2   2    -1.5645  -35.8741  0.000002  0.000008  0.000031  0.000116  0.000421  0.001453  0.004566  0.012849  0.030014  0.054642
                                 0.060902  0.010176 -0.026489 -0.091352 -0.122323 -0.007875 -0.268424  0.086033 -0.420754  0.757569
                                -0.230013  0.610502  0.290258  0.031748  0.034145 -0.002350  0.000842 -0.000248 -0.000000 -0.000002
                                -0.000013 -0.000048 -0.000155 -0.000126 -0.000278 -0.000419 -0.000868  0.001738 -0.012869  0.045469
                                -0.141016  0.135066 -0.028719  0.000433 -0.007488 -0.002173 -0.000296 -0.000037 -0.002273  0.000000
                                -0.003984  0.000000 -0.004490 -0.000000 -0.000769 -0.000000  0.000454 -0.000000 -0.000526 -0.000000
                                -0.001073  0.000000  0.000567  0.004097  0.013962  0.023100  0.017464  0.002068  0.000516  0.000115
                                -0.001834 -0.006477 -0.003929 -0.000105  0.001416  0.000000  0.001498  0.000000

   5.2   2    -0.5418  -20.5685 -0.000000 -0.000001 -0.000004 -0.000016 -0.000057 -0.000195 -0.000615 -0.001729 -0.004045 -0.007355
                                -0.008265 -0.000083  0.001574  0.016674  0.005496  0.024465  0.008721  0.018500 -0.030127  0.019807
                                -0.051995 -0.065648 -0.069966  0.017103 -0.037758 -0.004663 -0.012902  0.002754 -0.000014 -0.000127
                                -0.000751 -0.002977 -0.008785 -0.019656  0.000605 -0.028168 -0.025661 -0.002211  0.021581  0.010442
                                 0.152031 -0.162694  0.177529  0.133749 -0.047692  0.021796 -0.016796  0.001373  0.011806 -0.000000
                                 0.031144 -0.000000 -0.006288  0.000000 -0.010185  0.000000  0.003994  0.000000  0.004939  0.000000
                                -0.009354  0.000000  0.009894  0.072707  0.247508  0.399216  0.376116  0.064263  0.008100  0.001948
                                -0.006229 -0.033963 -0.053760 -0.000482  0.003523  0.000000  0.011066  0.000000

   6.2   0     0.0078   -7.6466 -0.000000 -0.000001 -0.000004 -0.000014 -0.000053 -0.000180 -0.000578 -0.001589 -0.003830 -0.006614
                                -0.008867  0.024315 -0.038980  0.092634 -0.196795  0.408336 -0.430611  0.422141 -0.934604  1.211116
                                -0.728857  0.194489 -0.453728  0.378245 -0.065950  0.347017 -0.005119  0.754632  0.000006  0.000057
                                 0.000337  0.001341  0.003943  0.009006 -0.000473  0.012793  0.011282  0.002503 -0.024737  0.040782
                                -0.221390  0.218711 -0.109148 -0.047666 -0.043436 -0.090974 -0.049413 -0.108519 -0.000162 -0.000000
                                -0.000324 -0.000000 -0.008062  0.000000 -0.018398  0.000000  0.000163 -0.000000  0.001059 -0.000000
                                -0.002582 -0.000000  0.000127  0.000903  0.003494  0.004745  0.023877  0.039250  0.000174  0.000029
                                 0.001094  0.003607 -0.005364  0.000069 -0.000733 -0.000000 -0.000193  0.000000

   7.2   0     0.0382   -6.4745  0.000000  0.000001  0.000004  0.000015  0.000049  0.000185  0.000528  0.001660  0.003356  0.007764
                                 0.001922  0.116147 -0.194197  0.353411 -0.974992  1.839568 -2.142524  1.980970 -4.566497  6.122299
                                -3.521336  1.445788 -1.731897  1.752263 -0.713721  0.320284 -1.660426  1.539224 -0.000007 -0.000062
                                -0.000372 -0.001461 -0.004368 -0.009078 -0.000497 -0.013480 -0.013409  0.004380 -0.020428  0.095637
                                -0.192323  0.176988  0.027829  0.102580 -0.051855  0.087119 -0.105673  0.285477 -0.000172  0.000000
                                -0.003486  0.000000 -0.022908 -0.000000 -0.051707 -0.000000 -0.000309  0.000000 -0.003904  0.000000
                                -0.016763  0.000000 -0.000593 -0.004715 -0.012160 -0.025824  0.034531  0.189471  0.000229 -0.000074
                                -0.001295 -0.001371 -0.035515 -0.000034  0.000334  0.000000  0.004035 -0.000000

                                   1 2py     1 2py     1 2py     1 2py     1 2py     1 2py     1 2py     1 2py     1 2py     1 2py  
                                   1 2py     1 2py     1 2py     1 2py     1 2py     1 2py     1 2py     1 2py     1 2py     1 2py  
                                   1 2py     1 2py     1 2py     1 2py     1 2py     1 2py     1 2py     1 2py     1 3d1-    1 3d1- 
                                   1 3d1-    1 3d1-    1 3d1-    1 3d1-    1 3d1-    1 3d1-    1 3d1-    1 3d1-    1 3d1-    1 3d1- 
                                   1 3d1-    1 3d1-    1 3d1-    1 3d1-    1 3d1-    1 3d1-    1 3d1-    1 3d1-    1 4f1-    1 4f3- 
                                   1 4f1-    1 4f3-    1 4f1-    1 4f3-    1 4f1-    1 4f3-    1 5g1-    1 5g3-    1 5g1-    1 5g3- 
                                   1 5g1-    1 5g3-    2 2py     2 2py     2 2py     2 2py     2 2py     2 2py     2 2py     2 2py  
                                   2 3d1-    2 3d1-    2 3d1-    2 3d1-    2 4f1-    2 4f3-    2 4f1-    2 4f3- 

   1.3   2   -84.4052 -286.5753  0.000014  0.000054  0.000210  0.000776  0.002803  0.009566  0.029701  0.080893  0.181358  0.307738
                                 0.343379  0.167512  0.035696 -0.004567  0.086218 -0.112624  0.094321 -0.052025  0.061472 -0.059841
                                 0.022572 -0.004476  0.001798 -0.001233  0.000125 -0.000033  0.000008 -0.000002  0.000000  0.000000
                                 0.000002  0.000011  0.000048  0.000066 -0.000013  0.000018  0.000000 -0.000004  0.000019 -0.000058
                                 0.000159 -0.000143  0.000025 -0.000002 -0.000000 -0.000002 -0.000002  0.000000  0.000001 -0.000000
                                 0.000001  0.000000 -0.000001 -0.000000 -0.000002  0.000000  0.000001  0.000000  0.000000 -0.000000
                                -0.000001  0.000000 -0.000000 -0.000001 -0.000001 -0.000002  0.000001  0.000006  0.000000  0.000000
                                -0.000000  0.000001 -0.000001  0.000000  0.000000 -0.000000 -0.000001  0.000000

   2.3   2   -13.2482  -95.7880 -0.000006 -0.000023 -0.000090 -0.000333 -0.001207 -0.004151 -0.013038 -0.036480 -0.084872 -0.152446
                                -0.171674 -0.014161  0.012435  0.284556  0.034141  0.430900  0.030999  0.290229 -0.052111  0.122627
                                -0.037332  0.011259 -0.004059  0.002964 -0.000354  0.000111 -0.000015  0.000005  0.000000  0.000003
                                 0.000018  0.000066  0.000181  0.000418  0.000056  0.000822  0.000958  0.000673 -0.000112 -0.000095
                                 0.001172 -0.001278  0.000308  0.000030 -0.000008  0.000019  0.000020 -0.000002 -0.000225  0.000000
                                 0.000101  0.000000 -0.000028 -0.000000  0.000021  0.000000  0.000005  0.000000  0.000004 -0.000000
                                -0.000007  0.000000 -0.000000 -0.000005  0.000030  0.000011 -0.000021 -0.000059  0.000009  0.000001
                                -0.000009  0.000029  0.000041  0.000001  0.000003 -0.000000 -0.000035  0.000000

   3.3   2    -7.4619  -85.4333  0.000000  0.000000  0.000000  0.000001  0.000003  0.000011  0.000034  0.000096  0.000225  0.000408
                                 0.000446  0.000086 -0.000167 -0.000527 -0.000879  0.000160 -0.001864  0.000950 -0.003312  0.004980
                                -0.003180  0.001340 -0.000838  0.000197 -0.000063 -0.000142 -0.000039  0.000007  0.000165  0.001478
                                 0.008689  0.034288  0.100371  0.220971 -0.003613  0.327491  0.332130  0.203931 -0.038172  0.116619
                                -0.124839  0.094098 -0.008249  0.000432 -0.000274 -0.000039 -0.000074  0.000006  0.000776  0.000000
                                -0.000800 -0.000000  0.000103  0.000000 -0.000082  0.000000 -0.000255  0.000000 -0.000088  0.000000
                                 0.000036 -0.000000  0.000007  0.000073 -0.000036  0.000182  0.000283  0.000213 -0.000048 -0.000002
                                 0.000019 -0.000303 -0.000242 -0.000005  0.000044  0.000000  0.000240 -0.000000

   4.3   2    -1.5645  -35.8741  0.000002  0.000008  0.000031  0.000116  0.000421  0.001453  0.004566  0.012849  0.030014  0.054642
                                 0.060902  0.010176 -0.026489 -0.091352 -0.122322 -0.007876 -0.268422  0.086032 -0.420752  0.757567
                                -0.230012  0.610502  0.290258  0.031747  0.034145 -0.002350  0.000842 -0.000248 -0.000000 -0.000002
                                -0.000013 -0.000048 -0.000155 -0.000126 -0.000278 -0.000419 -0.000868  0.001738 -0.012869  0.045469
                                -0.141016  0.135066 -0.028719  0.000433 -0.007488 -0.002173 -0.000296 -0.000037 -0.002273  0.000000
                                -0.003984  0.000000 -0.004490 -0.000000 -0.000769 -0.000000  0.000454 -0.000000 -0.000526 -0.000000
                                -0.001073  0.000000  0.000567  0.004097  0.013962  0.023100  0.017464  0.002068  0.000516  0.000115
                                -0.001834 -0.006477 -0.003929 -0.000105  0.001416  0.000000  0.001498  0.000000

   5.3   2    -0.5418  -20.5685 -0.000000 -0.000001 -0.000004 -0.000016 -0.000057 -0.000195 -0.000615 -0.001729 -0.004045 -0.007355
                                -0.008265 -0.000083  0.001574  0.016674  0.005496  0.024465  0.008721  0.018500 -0.030127  0.019808
                                -0.051996 -0.065648 -0.069966  0.017103 -0.037758 -0.004663 -0.012902  0.002754 -0.000014 -0.000127
                                -0.000751 -0.002977 -0.008785 -0.019656  0.000605 -0.028168 -0.025661 -0.002211  0.021581  0.010442
                                 0.152031 -0.162694  0.177529  0.133749 -0.047692  0.021796 -0.016796  0.001373  0.011806 -0.000000
                                 0.031144 -0.000000 -0.006288  0.000000 -0.010185  0.000000  0.003994  0.000000  0.004939  0.000000
                                -0.009354  0.000000  0.009894  0.072707  0.247508  0.399216  0.376116  0.064263  0.008100  0.001948
                                -0.006229 -0.033963 -0.053760 -0.000482  0.003523  0.000000  0.011066  0.000000

   6.3   0     0.0078   -7.6466 -0.000000 -0.000001 -0.000004 -0.000014 -0.000053 -0.000180 -0.000578 -0.001589 -0.003830 -0.006614
                                -0.008867  0.024315 -0.038980  0.092634 -0.196795  0.408336 -0.430611  0.422141 -0.934604  1.211116
                                -0.728857  0.194488 -0.453728  0.378245 -0.065950  0.347017 -0.005119  0.754632  0.000006  0.000057
                                 0.000337  0.001341  0.003943  0.009006 -0.000473  0.012793  0.011282  0.002503 -0.024737  0.040782
                                -0.221390  0.218711 -0.109148 -0.047666 -0.043436 -0.090974 -0.049413 -0.108519 -0.000162 -0.000000
                                -0.000324 -0.000000 -0.008062 -0.000000 -0.018398  0.000000  0.000163 -0.000000  0.001059 -0.000000
                                -0.002582 -0.000000  0.000127  0.000903  0.003494  0.004745  0.023877  0.039250  0.000174  0.000029
                                 0.001094  0.003607 -0.005364  0.000069 -0.000733 -0.000000 -0.000193  0.000000

   7.3   0     0.0382   -6.4745  0.000000  0.000001  0.000004  0.000015  0.000049  0.000185  0.000528  0.001660  0.003356  0.007764
                                 0.001922  0.116147 -0.194197  0.353411 -0.974991  1.839567 -2.142523  1.980969 -4.566495  6.122296
                                -3.521335  1.445788 -1.731897  1.752263 -0.713721  0.320284 -1.660426  1.539224 -0.000007 -0.000062
                                -0.000372 -0.001461 -0.004368 -0.009078 -0.000497 -0.013480 -0.013409  0.004380 -0.020428  0.095637
                                -0.192323  0.176988  0.027829  0.102580 -0.051855  0.087119 -0.105673  0.285477 -0.000172  0.000000
                                -0.003486  0.000000 -0.022908 -0.000000 -0.051707 -0.000000 -0.000309  0.000000 -0.003904  0.000000
                                -0.016763  0.000000 -0.000593 -0.004715 -0.012160 -0.025824  0.034531  0.189471  0.000229 -0.000074
                                -0.001295 -0.001371 -0.035515 -0.000034  0.000334  0.000000  0.004035 -0.000000

                                   1 3d2-    1 3d2-    1 3d2-    1 3d2-    1 3d2-    1 3d2-    1 3d2-    1 3d2-    1 3d2-    1 3d2- 
                                   1 3d2-    1 3d2-    1 3d2-    1 3d2-    1 3d2-    1 3d2-    1 3d2-    1 3d2-    1 3d2-    1 3d2- 
                                   1 4f2-    1 4f2-    1 4f2-    1 4f2-    1 5g2-    1 5g4-    1 5g2-    1 5g4-    1 5g2-    1 5g4- 
                                   2 3d2-    2 3d2-    2 3d2-    2 3d2-    2 4f2-    2 4f2- 

   1.4   2    -7.4651  -85.3869  0.000165  0.001477  0.008684  0.034266  0.100307  0.220794 -0.003557  0.327293  0.332077  0.203847
                                -0.036154  0.111467 -0.107836  0.077952 -0.004839  0.000468 -0.000198  0.000034 -0.000011  0.000002
                                 0.000504 -0.000331  0.000115 -0.000029 -0.000183  0.000000  0.000009  0.000000  0.000008 -0.000000
                                -0.000002  0.000021 -0.000039  0.000001 -0.000005 -0.000023

   2.4   0     0.0328  -13.1532 -0.000023 -0.000203 -0.001207 -0.004738 -0.014200 -0.029091 -0.002076 -0.043484 -0.043950  0.016143
                                -0.076843  0.325973 -0.627535  0.557117  0.108693  0.332382 -0.053976  0.354435 -0.105682  0.666693
                                 0.000636 -0.001447 -0.007959 -0.019055 -0.000746  0.000000 -0.002325  0.000000 -0.004982  0.000000
                                 0.001827  0.007293  0.004095  0.000131 -0.001032 -0.001027

   3.4   0     0.0525  -10.3702  0.000020  0.000191  0.001049  0.004482  0.011850  0.043846 -0.020493  0.051262  0.016932  0.136198
                                -0.922814  2.573573 -8.059403  7.625861 -1.804554  0.447475 -0.745121  0.305691 -0.805715  1.145094
                                -0.000491  0.000984  0.009350  0.006077  0.000615 -0.000000  0.002543 -0.000000  0.003591 -0.000000
                                -0.001584 -0.005760 -0.004781 -0.000102  0.000809  0.001536

 HOMO     13.1    -0.236043 =      -6.4231eV
 LUMO      6.2     0.007770 =       0.2114eV
 LUMO-HOMO         0.243813 =       6.6345eV


 **********************************************************************************************************************************
 DATASETS  * FILE   NREC   LENGTH (MB)   RECORD NAMES
              1      22       22.36       500      610      700      900      950      970     1000      129      960     1700   
                                          VAR    BASINP    GEOM    SYMINP    ZMAT    AOBASIS   BASIS     P2S    ABASIS    OPER   
                                         1101     1401     1411     1412     1650     1100     1400     1410     1200     1210   
                                          SR      EKINR    POTR     PVPR    MOLCAS      S      EKIN      POT      H0       H01  
                                         1080     1600   
                                         AOSYM     SMH  

              2       4        3.53       700     1000      520     2100   
                                         GEOM     BASIS   MCVARS     RHF  

 PROGRAMS   *        TOTAL       RHF       INT
 CPU TIMES  *        69.66      3.32     65.93
 REAL TIME  *        77.49 SEC
 DISK USED  *         4.92 GB      
 SF USED    *         0.14 MB      
 GA USED    *         0.00 MB       (max)       0.00 MB       (current)
 **********************************************************************************************************************************
 SETTING SCF            =     -3671.23334793  AU                              
 SETTING _CC_NORM_MAX   =         2.00000000                                  


 PROGRAM * CCSD (Restricted open-shell coupled cluster)     Authors: C. Hampel, H.-J. Werner, 1991, M. Deegan, P.J. Knowles, 1992


 Convergence thresholds:  THRVAR = 1.00D-08  THRDEN = 1.00D-06

 CCSD(T)     terms to be evaluated (factor= 1.000)


 Number of closed-shell orbitals:  24 (  13   5   5   1 )
 Number of external orbitals:     317 ( 136  73  73  35 )

 Memory could be reduced to 335.21 Mwords without degradation in triples

 Number of N-1 electron functions:              48
 Number of N-2 electron functions:            1128
 Number of singly external CSFs:              5066
 Number of doubly external CSFs:          22415468
 Total number of CSFs:                    22420534

 Molecular orbitals read from record     2100.2  Type=RHF/CANONICAL (state 1.1)

 Integral transformation finished. Total CPU:  10.88 sec, npass=  1  Memory used:  36.83 MW

 Starting RMP2 calculation

 Wavefunction is spin-projected

 ITER.      SQ.NORM     CORR.ENERGY   TOTAL ENERGY   ENERGY CHANGE        DEN1      VAR(S)    VAR(P)  DIIS     TIME
   1      1.20396507    -1.52941535 -3672.76276329    -1.52941535    -0.01171246  0.10D-11  0.53D-02  1  1    13.85
   2      1.22056469    -1.54302769 -3672.77637562    -0.01361233    -0.00035025  0.12D-12  0.28D-03  2  2    19.15
   3      1.22487198    -1.54477306 -3672.77812099    -0.00174537    -0.00002040  0.12D-13  0.19D-04  3  3    22.37
   4      1.22586968    -1.54498507 -3672.77833300    -0.00021201    -0.00000051  0.11D-14  0.41D-06  4  4    27.64
   5      1.22595534    -1.54499960 -3672.77834753    -0.00001453    -0.00000001  0.21D-15  0.12D-07  5  5    31.56
   6      1.22595847    -1.54499969 -3672.77834762    -0.00000009    -0.00000000  0.46D-16  0.43D-09  6  6    35.80

 Norm of t1 vector:      0.00000432      S-energy:    -0.00000000      T1 diagnostic:  0.00000044
 Norm of t2 vector:      0.47535089      P-energy:    -1.54499969
                                         Alpha-Beta:  -1.07904184
                                         Alpha-Alpha: -0.23297893
                                         Beta-Beta:   -0.23297893

 Spin contamination <S**2-Sz**2-Sz>     0.00000000
  Reference energy                  -3671.233347930353
  RHF-RMP2 correlation energy          -1.544999691483
 !RHF-RMP2 energy                   -3672.778347621836
 (NB above energy spin projected)

 Starting RCCSD calculation

 ITER.      SQ.NORM     CORR.ENERGY   TOTAL ENERGY   ENERGY CHANGE        DEN1      VAR(S)    VAR(P)  DIIS     TIME
   1      1.17609237    -1.45219069 -3672.68553862    -1.45219069    -0.02735780  0.47D-02  0.44D-02  0  0    69.77
   2      1.19835900    -1.47571346 -3672.70906139    -0.02352277    -0.00325922  0.64D-03  0.13D-02  1  1   103.64
   3      1.21155961    -1.47884670 -3672.71219463    -0.00313324    -0.00110591  0.44D-03  0.44D-03  2  2   136.95
   4      1.23051371    -1.48386209 -3672.71721002    -0.00501539    -0.00021114  0.82D-04  0.93D-04  3  3   170.48
   5      1.23891471    -1.48465673 -3672.71800466    -0.00079464    -0.00005689  0.31D-04  0.22D-04  4  4   204.95
   6      1.24496090    -1.48528254 -3672.71863047    -0.00062581    -0.00001477  0.97D-05  0.44D-05  5  5   239.85
   7      1.24731570    -1.48546032 -3672.71880825    -0.00017778    -0.00000387  0.26D-05  0.12D-05  6  6   275.15
   8      1.24824756    -1.48551408 -3672.71886201    -0.00005376    -0.00000124  0.72D-06  0.49D-06  7  7   307.90
   9      1.24858567    -1.48552555 -3672.71887348    -0.00001147    -0.00000044  0.19D-06  0.21D-06  8  8   347.96
  10      1.24869729    -1.48552552 -3672.71887345     0.00000003    -0.00000013  0.47D-07  0.72D-07  9  9   381.80
  11      1.24871666    -1.48552346 -3672.71887139     0.00000206    -0.00000005  0.17D-07  0.29D-07 10 10   417.36
  12      1.24871684    -1.48552117 -3672.71886910     0.00000229    -0.00000002  0.58D-08  0.97D-08 11 11   452.54
  13      1.24871625    -1.48552039 -3672.71886832     0.00000078    -0.00000001  0.35D-08  0.56D-08 12 12   486.34

 Norm of t1 vector:      0.16551764      S-energy:    -0.00000000      T1 diagnostic:  0.01689307
                                                                       D1 diagnostic:  0.08126042
 Norm of t2 vector:      0.47044676      P-energy:    -1.48552039
                                         Alpha-Beta:  -1.06777376
                                         Alpha-Alpha: -0.20887331
                                         Beta-Beta:   -0.20887331

 Doubles amplitudes (print threshold =  0.500E-01):

         I         J         SYM. A    SYM. B    A         B      T(IJ, AB) [Alpha-Beta]

        13        13         2         2         1         1     -0.06146583
        13        13         3         3         1         1     -0.06146583

 Spin contamination <S**2-Sz**2-Sz>     0.00000000

 Memory could be reduced to 364.60 Mwords without degradation in triples
 

  Correlated core orbitals:             1.1       2.1       3.1       4.1       5.1       6.1       7.1       8.1       9.1      10.1
                                        1.2       2.2       3.2       4.2       1.3       2.3       3.3       4.3       1.4
  Orbital energies:                  -665.1470  -94.8740  -84.4032  -20.5814  -16.7619  -13.2402   -7.4657   -7.4651   -2.5894   -1.6836
                                      -84.4052  -13.2482   -7.4619   -1.5645  -84.4052  -13.2482   -7.4619   -1.5645   -7.4651
 
  RCCSD core-core energy               -0.972450890638
  RCCSD core-valence energy            -0.179883444824
  RCCSD valence correlation energy     -0.333186055071
 

 RESULTS
 =======

  Reference energy                  -3671.233347930353
  RCCSD singles energy                 -0.000000004195
  RCCSD pair energy                    -1.485520386338
  RCCSD correlation energy             -1.485520390533
  Triples (T) contribution             -0.042706906211
  Total correlation energy             -1.528227296744
 
  RHF-RCCSD energy                  -3672.718868320886
  RHF-RCCSD[T] energy               -3672.766343306749
  RHF-RCCSD-T energy                -3672.760497467067
 !RHF-RCCSD(T) energy               -3672.761575227097

 Program statistics:

 Available memory in ccsd:               999995052
 Min. memory needed in ccsd:              61657478
 Max. memory used in ccsd:                90567652
 Max. memory used in cckext:              72588948 (13 integral passes)
 Max. memory used in cckint:              36832520 ( 1 integral passes)



 **********************************************************************************************************************************
 DATASETS  * FILE   NREC   LENGTH (MB)   RECORD NAMES
              1      22       22.36       500      610      700      900      950      970     1000      129      960     1700   
                                          VAR    BASINP    GEOM    SYMINP    ZMAT    AOBASIS   BASIS     P2S    ABASIS    OPER   
                                         1101     1401     1411     1412     1650     1100     1400     1410     1200     1210   
                                          SR      EKINR    POTR     PVPR    MOLCAS      S      EKIN      POT      H0       H01  
                                         1080     1600   
                                         AOSYM     SMH  

              2       4        3.53       700     1000      520     2100   
                                         GEOM     BASIS   MCVARS     RHF  

 PROGRAMS   *        TOTAL  RCCSD(T)       RHF       INT
 CPU TIMES  *      1301.76   1232.03      3.32     65.93
 REAL TIME  *      2202.10 SEC
 DISK USED  *        67.60 GB      
 SF USED    *         7.10 GB      
 GA USED    *         0.00 MB       (max)       0.00 MB       (current)
 **********************************************************************************************************************************
 SETTING CCSD           =     -3672.76157523  AU                              
 SETTING BIND           =        -0.27617684  AU                              
 Output type csv         
                                                                                                                                                                                                                                                                

  1.60,SCF,CCSD,BIND
   1.6,   -3671.233348,   -3672.761575,   -0.27617684
                                                  

 RCCSD(T)/USERDEF energy=  -3672.761575227097

        RCCSD(T)        RHF-SCF 
  -3672.76157523  -3671.23334793
 **********************************************************************************************************************************
 Molpro calculation terminated
 Variable memory released
