<?xml version="1.0"?>
<molpro xmlns="http://www.molpro.net/schema/molpro-output"
  xmlns:xsd="http://www.w3.org/1999/XMLSchema"
  xmlns:cml="http://www.xml-cml.org/schema"
  xmlns:stm="http://www.xml-cml.org/schema"
  xmlns:xhtml="http://www.w3.org/1999/xhtml">
 <!--

 Nodes     nprocs
 nid12860    11
 Number of processes for MPI-2 version of Molpro:   nprocs(total)=   12   nprocs(compute)=   11   nprocs(helper)=    1

 Using customized tuning parameters: mindgm=7; mindgv=16; mindgc=1; mindgr=1; noblas=0; minvec=7
 default implementation of scratch files=sf

 --><job>
  <!--

 Variables initialized (889), CPU time= 0.01 sec
 Commands  initialized (702), CPU time= 0.01 sec, 572 directives.
 Default parameters read. Elapsed time= 0.11 sec

 Checking input...
 Passed
1


                                         ***  PROGRAM SYSTEM MOLPRO  ***
                                       Copyright, TTI GmbH Stuttgart, 2015
                                    Version 2015.1 linked Dec 29 2018 15:55:43


 **********************************************************************************************************************************
 LABEL *   Calculation for Lu atom, singlet and triplet
  64 bit mpp version                                                                     DATE: 17-Apr-23          TIME: 12:16:14
 **********************************************************************************************************************************

 SHA1:             19cd028119e0e09f93f0674bd8af7968d9b3eff6
 **********************************************************************************************************************************
  -->
  <!--

 THRESHOLDS:

 ZERO    =  1.00D-12  ONEINT  =  1.00D-12  TWOINT  =  1.00D-15  PREFAC  =  1.00D-14  LOCALI  =  1.00D-09  EORDER  =  1.00D-04
 ENERGY  =  0.00D+00  ETEST   =  0.00D+00  EDENS   =  0.00D+00  THRDEDEF=  1.00D-06  GRADIENT=  1.00D-02  STEP    =  1.00D-03
 ORBITAL =  1.00D-05  CIVEC   =  1.00D-05  COEFF   =  1.00D-04  PRINTCI =  5.00D-02  PUNCHCI =  9.90D+01  OPTGRAD =  3.00D-04
 OPTENERG=  1.00D-06  OPTSTEP =  3.00D-04  THRGRAD =  1.00D-10  COMPRESS=  1.00D-11  VARMIN  =  1.00D-07  VARMAX  =  1.00D-03
 THRDOUB =  0.00D+00  THRDIV  =  1.00D-05  THRRED  =  1.00D-07  THRPSP  =  1.00D+00  THRDC   =  1.00D-10  THRCS   =  1.00D-10
 THRNRM  =  1.00D-08  THREQ   =  0.00D+00  THRDE   =  1.00D+00  THRREF  =  1.00D-05  SPARFAC =  1.00D+00  THRDLP  =  1.00D-07
 THRDIA  =  1.00D-10  THRDLS  =  1.00D-07  THRGPS  =  0.00D+00  THRKEX  =  0.00D+00  THRDIS  =  2.00D-01  THRVAR  =  1.00D-10
 THRLOC  =  1.00D-06  THRGAP  =  1.00D-06  THRLOCT = -1.00D+00  THRGAPT = -1.00D+00  THRORB  =  1.00D-06  THRMLTP =  0.00D+00
 THRCPQCI=  1.00D-10  KEXTA   =  0.00D+00  THRCOARS=  0.00D+00  SYMTOL  =  1.00D-06  GRADTOL =  1.00D-06  THROVL  =  1.00D-08
 THRORTH =  1.00D-08  GRID    =  1.00D-06  GRIDMAX =  1.00D-03  DTMAX   =  0.00D+00  THROCCDE=  1.00D-01  THROCCDE=  1.00D-01



 THRESHOLDS:

 ZERO    =  1.00D-12  ONEINT  =  1.00D-15  TWOINT  =  1.00D-15  PREFAC  =  1.00D-14  LOCALI  =  1.00D-09  EORDER  =  1.00D-04
 ENERGY  =  0.00D+00  ETEST   =  0.00D+00  EDENS   =  0.00D+00  THRDEDEF=  1.00D-06  GRADIENT=  1.00D-02  STEP    =  1.00D-03
 ORBITAL =  1.00D-05  CIVEC   =  1.00D-05  COEFF   =  1.00D-04  PRINTCI =  5.00D-02  PUNCHCI =  9.90D+01  OPTGRAD =  3.00D-04
 OPTENERG=  1.00D-06  OPTSTEP =  3.00D-04  THRGRAD =  1.00D-10  COMPRESS=  1.00D-11  VARMIN  =  1.00D-07  VARMAX  =  1.00D-03
 THRDOUB =  0.00D+00  THRDIV  =  1.00D-05  THRRED  =  1.00D-07  THRPSP  =  1.00D+00  THRDC   =  1.00D-10  THRCS   =  1.00D-10
 THRNRM  =  1.00D-08  THREQ   =  0.00D+00  THRDE   =  1.00D+00  THRREF  =  1.00D-05  SPARFAC =  1.00D+00  THRDLP  =  1.00D-07
 THRDIA  =  1.00D-10  THRDLS  =  1.00D-07  THRGPS  =  0.00D+00  THRKEX  =  0.00D+00  THRDIS  =  2.00D-01  THRVAR  =  1.00D-10
 THRLOC  =  1.00D-06  THRGAP  =  1.00D-06  THRLOCT = -1.00D+00  THRGAPT = -1.00D+00  THRORB  =  1.00D-06  THRMLTP =  0.00D+00
 THRCPQCI=  1.00D-10  KEXTA   =  0.00D+00  THRCOARS=  0.00D+00  SYMTOL  =  1.00D-06  GRADTOL =  1.00D-06  THROVL  =  1.00D-08
 THRORTH =  1.00D-08  GRID    =  1.00D-06  GRIDMAX =  1.00D-03  DTMAX   =  0.00D+00  THROCCDE=  1.00D-01  THROCCDE=  1.00D-01



Geometry recognized as XYZ


 Variable memory set to 1000000000 words,  buffer space   230000 words

 SETTING BASIS          =    USERDEF

 DO I                   =        12.00000000

 Running procedure=VIIP5
  --><jobstep command="RHF-SCF" commandset="SCFPRO">
   <!--


 Recomputing integrals since basis changed


 Using spherical harmonics



 PROGRAM * SEWARD (Integral evaluation for generally contracted gaussian basis sets)     Author: Roland Lindh, 1990

 Geometry written to block  1 of record 700

 Orientation using atomic masses
 Molecule type: Atom
 Symmetry elements: X,Y,Z
 Rotational constants:       0.0000000      0.0000000      0.0000000 GHz  (calculated with average atomic masses)

 Point group  D2h


   --><cml:molecule>
    <cml:symmetry pointGroup="D2h"/>
    <cml:atomArray>
     <cml:atom id="a1" elementType="Lu" x3="0.0" y3="0.0" z3="0.0"/>
    </cml:atomArray>
    <cml:bondArray>
    </cml:bondArray>
   </cml:molecule><!--

 ATOMIC COORDINATES

 NR  ATOM    CHARGE       X              Y              Z

   1  LU     25.00    0.000000000    0.000000000    0.000000000

 NUCLEAR CHARGE:                   25
 NUMBER OF PRIMITIVE AOS:         503
 NUMBER OF SYMMETRY AOS:          380
 NUMBER OF CONTRACTIONS:          380   (  85Ag  +  62B3u +  62B2u +  30B1g +  62B1u +  30B2g +  30B3g +  19Au  )
 NUMBER OF CORE ORBITALS:           0   (   0Ag  +   0B3u +   0B2u +   0B1g +   0B1u +   0B2g +   0B3g +   0Au  )
 NUMBER OF VALENCE ORBITALS:       17   (   4Ag  +   3B3u +   3B2u +   1B1g +   3B1u +   1B2g +   1B3g +   1Au  )


 NUCLEAR REPULSION ENERGY    0.00000000

 EXTRA SYMMETRY OF AOS IN SYMMETRY 1:   1 1 1 1 1 1 1 1 1 1   1 1 1 1 1 1 1 1 1 1   1 1 1 1 1 1 1 1 1 1   1 2 3 2 3 2 3 2 3 2
                                        3 2 3 2 3 2 3 2 3 2   3 2 3 2 3 2 3 2 3 2   3 2 3 2 3 2 3 4 5 6   4 5 6 4 5 6 4 5 6 4
                                        5 6 4 5 6
 EXTRA SYMMETRY OF AOS IN SYMMETRY 2:   1 1 1 1 1 1 1 1 1 1   1 1 1 1 1 1 1 1 1 1   1 1 1 1 1 1 1 2 3 2   3 2 3 2 3 2 3 2 3 2
                                        3 2 3 2 3 2 3 2 3 2   3 2 3 4 5 6 4 5 6 4   5 6
 EXTRA SYMMETRY OF AOS IN SYMMETRY 3:   1 1 1 1 1 1 1 1 1 1   1 1 1 1 1 1 1 1 1 1   1 1 1 1 1 1 1 2 3 2   3 2 3 2 3 2 3 2 3 2
                                        3 2 3 2 3 2 3 2 3 2   3 2 3 4 5 6 4 5 6 4   5 6
 EXTRA SYMMETRY OF AOS IN SYMMETRY 4:   1 1 1 1 1 1 1 1 1 1   1 1 1 1 1 1 1 1 2 3   2 3 2 3 2 3 2 3 2 3
 EXTRA SYMMETRY OF AOS IN SYMMETRY 5:   1 1 1 1 1 1 1 1 1 1   1 1 1 1 1 1 1 1 1 1   1 1 1 1 1 1 1 2 3 2   3 2 3 2 3 2 3 2 3 2
                                        3 2 3 2 3 2 3 2 3 2   3 2 3 4 5 6 4 5 6 4   5 6
 EXTRA SYMMETRY OF AOS IN SYMMETRY 6:   1 1 1 1 1 1 1 1 1 1   1 1 1 1 1 1 1 1 2 3   2 3 2 3 2 3 2 3 2 3
 EXTRA SYMMETRY OF AOS IN SYMMETRY 7:   1 1 1 1 1 1 1 1 1 1   1 1 1 1 1 1 1 1 2 3   2 3 2 3 2 3 2 3 2 3
 EXTRA SYMMETRY OF AOS IN SYMMETRY 8:   1 1 1 1 1 1 1 1 1 1   1 1 1 2 3 2 3 2 3

 Eigenvalues of metric

         1 0.433E-04 0.526E-04 0.113E-03 0.205E-03 0.387E-03 0.579E-03 0.702E-03 0.702E-03
         2 0.122E-04 0.207E-04 0.110E-03 0.494E-03 0.158E-02 0.385E-02 0.728E-02 0.144E-01
         3 0.122E-04 0.207E-04 0.110E-03 0.494E-03 0.158E-02 0.385E-02 0.728E-02 0.144E-01
         4 0.702E-03 0.220E-02 0.838E-02 0.215E-01 0.345E-01 0.566E-01 0.104E+00 0.174E+00
         5 0.122E-04 0.207E-04 0.110E-03 0.494E-03 0.158E-02 0.385E-02 0.728E-02 0.144E-01
         6 0.702E-03 0.220E-02 0.838E-02 0.215E-01 0.345E-01 0.566E-01 0.104E+00 0.174E+00
         7 0.702E-03 0.220E-02 0.838E-02 0.215E-01 0.345E-01 0.566E-01 0.104E+00 0.174E+00
         8 0.144E-01 0.330E-01 0.524E-01 0.114E+00 0.217E+00 0.268E+00 0.268E+00 0.366E+00


 Contracted 2-electron integrals neglected if value below      1.0D-15
 AO integral compression algorithm  1   Integral accuracy      1.0D-15

     1958.478 MB (compressed) written to integral file ( 43.0%)

     Node minimum: 92.799 MB, node maximum: 238.551 MB


 NUMBER OF SORTED TWO-ELECTRON INTEGRALS:   30459995.     BUFFER LENGTH:  32768
 NUMBER OF SEGMENTS:   1  SEGMENT LENGTH:   30459995      RECORD LENGTH: 524288

 Memory used in sort:      31.02 MW

 SORT1 READ   568811974. AND WROTE    17265387. INTEGRALS IN     50 RECORDS. CPU TIME:    15.27 SEC, REAL TIME:    18.32 SEC
 SORT2 READ   190908661. AND WROTE   335703620. INTEGRALS IN   5192 RECORDS. CPU TIME:     1.94 SEC, REAL TIME:     2.52 SEC

 Node minimum:    30394465.  Node maximum:    30635607. integrals

 OPERATOR DM      FOR CENTER  0  COORDINATES:    0.000000    0.000000    0.000000


 **********************************************************************************************************************************
 DATASETS  * FILE   NREC   LENGTH (MB)   RECORD NAMES
              1      19       20.90       500      610      700      900      950      970     1000      129      960     1100
                                          VAR    BASINP    GEOM    SYMINP    ZMAT    AOBASIS   BASIS     P2S    ABASIS      S
                                         1400     1410     1420     1200     1210     1080     1600     1650     1700
                                           T        V       ECP      H0       H01     AOSYM     SMH    MOLCAS    OPER

 PROGRAMS   *        TOTAL       INT
 CPU TIMES  *        69.18     68.61
 REAL TIME  *        81.97 SEC
 DISK USED  *         4.27 GB
 GA USED    *         0.00 MB       (max)       0.00 MB       (current)
 **********************************************************************************************************************************


 PROGRAM * RHF-SCF (OPEN SHELL)       Authors: W. Meyer, H.-J. Werner


 NUMBER OF ELECTRONS:      11+   10-    SPACE SYMMETRY=5    SPIN SYMMETRY: Doublet
 CONVERGENCE THRESHOLDS:    1.00E-05 (Density)    1.00E-07 (Energy)
 MAX. NUMBER OF ITERATIONS:      150
 INTERPOLATION TYPE:            DIIS
 INTERPOLATION STEPS:              2 (START)      1 (STEP)
 LEVEL SHIFTS:                 -0.60 (CLOSED) -0.30 (OPEN)

 Number of closed-shell orbitals:   10 (   1   3   3   0   2   0   0   1 )
 Number of open-shell orbitals:      1 (   0   0   0   0   1   0   0   0 )



 Extra symmetries of mos in symmetry 2:   3   2   1
 Extra symmetries of mos in symmetry 3:   3   2   1
 Extra symmetries of mos in symmetry 5:   3   2   1
 Guess basis ATOMIC-GUESS,LU=ECP46_GUESS not found. No density guess!


 Molecular orbital dump at record        4202.2

 ITERATION    DDIFF          GRAD             ENERGY        2-EL.EN.            DIPOLE MOMENTS         DIIS   ORB.
    1      0.000D+00      0.000D+00      -172.33364329    459.295923    0.00000    0.00000    0.00000    0    start
    2      0.000D+00      0.429D+00      -140.45255089    110.911570    0.00000    0.00000    0.00000    0    diag,B
    3      0.151D+00      0.229D+00      -179.50422339    443.044041    0.00000    0.00000    0.00000    1    diag,B
    4      0.929D-01      0.387D+00      -194.59822438    401.528617    0.00000    0.00000    0.00000    2    diag,B
    5      0.459D-01      0.241D+00      -203.05578864    362.753115    0.00000    0.00000    0.00000    3    diag,B
    6      0.355D-01      0.126D+00      -203.88532563    294.205133    0.00000    0.00000    0.00000    4    diag,B
    7      0.247D-01      0.151D-01      -205.98120609    322.817513    0.00000    0.00000    0.00000    5    diag,B
    8      0.118D-01      0.285D-01      -206.11861004    322.727160    0.00000    0.00000    0.00000    6    diag,B
    9      0.209D-02      0.242D-01      -206.34434714    319.562657    0.00000    0.00000    0.00000    7    diag,B
   10      0.545D-02      0.952D-02      -206.36469606    319.381139    0.00000    0.00000    0.00000    8    orth
   11      0.910D-03      0.876D-02      -206.36434063    319.132307    0.00000    0.00000    0.00000    9    diag,B
   12      0.159D-03      0.806D-02      -206.37389040    317.380537    0.00000    0.00000    0.00000    9    diag,B
   13      0.715D-03      0.391D-02      -206.37253219    316.022428    0.00000    0.00000    0.00000    9    diag,B
   14      0.780D-03      0.227D-03      -206.37255157    315.993805    0.00000    0.00000    0.00000    9    diag,B
   15      0.437D-04      0.152D-03      -206.37254378    315.942348    0.00000    0.00000    0.00000    9    diag,B
   16      0.289D-04      0.104D-04      -206.37254386    315.944838    0.00000    0.00000    0.00000    9    diag,B
   17      0.391D-05      0.702D-05      -206.37254386    315.941340    0.00000    0.00000    0.00000    0    orth

 Final alpha occupancy:   1   3   3   0   3   0   0   1
 Final beta  occupancy:   1   3   3   0   2   0   0   1

 !RHF STATE 1.5 Energy               -206.372543862465
   --><property name="Energy" method="RHF" principal="true" stateSymmetry="5" stateNumber="1"
     value="-206.372543862465"/><!--
 Nuclear energy                         0.00000000
 One-electron energy                 -364.34321391
 Two-electron energy                  157.97067005
 Virial quotient                       -1.17559364
 !RHF STATE 1.5 Dipole moment           0.00000000     0.00000000     0.00000000
 Dipole moment /Debye                   0.00000000     0.00000000     0.00000000
   --><property name="Dipole moment" method="RHF" principal="true" stateSymmetry="5"
     stateNumber="1" value="0.0 0.0 0.0"/><!--

 ELECTRON ORBITALS
 =================


   Orb  Occ    Energy  Couls-En    Coefficients

                                   1 1s      1 1s      1 1s      1 1s      1 1s      1 1s      1 1s      1 1s      1 1s      1 1s
                                   1 1s      1 1s      1 1s      1 1s      1 1s      1 1s      1 1s      1 1s      1 1s      1 1s
                                   1 1s      1 1s      1 1s      1 1s      1 1s      1 1s      1 1s      1 1s      1 1s      1 1s
                                   1 1s      1 3d0     1 3d2+    1 3d0     1 3d2+    1 3d0     1 3d2+    1 3d0     1 3d2+    1 3d0
                                   1 3d2+    1 3d0     1 3d2+    1 3d0     1 3d2+    1 3d0     1 3d2+    1 3d0     1 3d2+    1 3d0
                                   1 3d2+    1 3d0     1 3d2+    1 3d0     1 3d2+    1 3d0     1 3d2+    1 3d0     1 3d2+    1 3d0
                                   1 3d2+    1 3d0     1 3d2+    1 3d0     1 3d2+    1 3d0     1 3d2+    1 5g0     1 5g4+    1 5g2+
                                   1 5g0     1 5g4+    1 5g2+    1 5g0     1 5g4+    1 5g2+    1 5g0     1 5g4+    1 5g2+    1 5g0
                                   1 5g4+    1 5g2+    1 5g0     1 5g4+    1 5g2+

   1.1   2    -4.2077  -22.2820 -0.000000  0.000000 -0.000000  0.000000 -0.000000  0.000000 -0.000000  0.000000 -0.000000  0.000001
                                -0.000002  0.000005 -0.000012  0.000026 -0.000053  0.000093 -0.000120  0.000021  0.000351 -0.007160
                                -0.021078  0.407701 -1.028528  0.031337  1.060374  0.317701  0.025150 -0.021197  0.019858 -0.016681
                                 0.005585 -0.000000  0.000000  0.000000 -0.000000 -0.000000  0.000000  0.000001 -0.000000 -0.000003
                                 0.000000  0.000010 -0.000000 -0.000027  0.000000  0.000062 -0.000000 -0.000128  0.000000  0.000250
                                -0.000000 -0.000399  0.000000  0.000605 -0.000000 -0.001674 -0.000000 -0.003188  0.000000  0.000820
                                -0.000000 -0.002023  0.000000  0.002277 -0.000000 -0.000743  0.000000 -0.000000 -0.000000  0.000000
                                 0.000004 -0.000000  0.000000 -0.000002  0.000000  0.000000 -0.000006  0.000000  0.000000  0.000003
                                 0.000000 -0.000000 -0.000002 -0.000000  0.000000

   2.1   0    -1.4006  -14.1534 -0.000000  0.000000 -0.000000  0.000000 -0.000000  0.000000 -0.000000  0.000000 -0.000000  0.000000
                                -0.000000  0.000001 -0.000002  0.000004 -0.000009  0.000018 -0.000034  0.000055 -0.000064  0.000304
                                -0.000495 -0.005561  0.021630 -0.018359 -0.016213  0.003877  0.019717  0.004535  0.001615 -0.001100
                                 0.000346 -0.000000 -0.000000  0.000001  0.000000 -0.000008 -0.000000  0.000032  0.000000 -0.000110
                                -0.000000  0.000328  0.000000 -0.000862 -0.000000  0.002016  0.000000 -0.004202 -0.000000  0.007334
                                 0.000000 -0.008260 -0.000000 -0.087092 -0.000000  0.465492  0.000002  0.590812  0.000002  0.139988
                                 0.000001 -0.057984 -0.000000  0.052043  0.000000 -0.013651 -0.000000  0.000212  0.000000 -0.000000
                                -0.000820 -0.000000  0.000000  0.008530  0.000000 -0.000000  0.010502  0.000000 -0.000000 -0.004254
                                -0.000000  0.000000  0.002222  0.000000 -0.000000

   3.1   0    -1.3373  -13.9690 -0.000000  0.000000 -0.000000 -0.000000  0.000000 -0.000000  0.000000 -0.000000  0.000000 -0.000000
                                 0.000000 -0.000000  0.000000 -0.000000  0.000000 -0.000000  0.000000 -0.000000  0.000000 -0.000000
                                 0.000000  0.000000 -0.000000  0.000000  0.000000  0.000000 -0.000000 -0.000000 -0.000000  0.000000
                                -0.000000  0.000000 -0.000000 -0.000000  0.000001  0.000000 -0.000008 -0.000000  0.000033  0.000000
                                -0.000114 -0.000000  0.000341  0.000000 -0.000896 -0.000000  0.002095  0.000000 -0.004362 -0.000000
                                 0.007668  0.000000 -0.009216  0.000000 -0.081644 -0.000002  0.444926 -0.000002  0.590942 -0.000001
                                 0.169629  0.000000 -0.088454 -0.000000  0.086591  0.000000 -0.024906 -0.000000 -0.000000  0.000135
                                 0.000000  0.000000 -0.000512 -0.000000 -0.000000  0.005432 -0.000000 -0.000000  0.007112  0.000000
                                 0.000000 -0.002780 -0.000000 -0.000000  0.001463

                                   1 2px     1 2px     1 2px     1 2px     1 2px     1 2px     1 2px     1 2px     1 2px     1 2px
                                   1 2px     1 2px     1 2px     1 2px     1 2px     1 2px     1 2px     1 2px     1 2px     1 2px
                                   1 2px     1 2px     1 2px     1 2px     1 2px     1 2px     1 2px     1 4f1+    1 4f3+    1 4f1+
                                   1 4f3+    1 4f1+    1 4f3+    1 4f1+    1 4f3+    1 4f1+    1 4f3+    1 4f1+    1 4f3+    1 4f1+
                                   1 4f3+    1 4f1+    1 4f3+    1 4f1+    1 4f3+    1 4f1+    1 4f3+    1 4f1+    1 4f3+    1 4f1+
                                   1 4f3+    1 4f1+    1 4f3+    1 6h1+    1 6h3+    1 6h5+    1 6h1+    1 6h3+    1 6h5+    1 6h1+
                                   1 6h3+    1 6h5+

   1.2   2    -1.7163  -19.3532 -0.000000  0.000000 -0.000000  0.000000 -0.000000  0.000000 -0.000000  0.000000 -0.000000  0.000000
                                -0.000000  0.000000 -0.000000  0.000000 -0.000000  0.000000 -0.000000  0.000000 -0.000000 -0.000000
                                 0.000000 -0.000000  0.000000  0.000000  0.000000 -0.000000 -0.000000 -0.000000  0.000028  0.000000
                                -0.000186 -0.000000  0.000851  0.000000 -0.002980 -0.000000  0.063527 -0.000001  0.238006 -0.000002
                                 0.262243 -0.000002  0.367674 -0.000002  0.307494 -0.000001  0.127320 -0.000000  0.003159 -0.000000
                                 0.002275  0.000000 -0.001017 -0.000000  0.000637 -0.000000 -0.000000  0.002067 -0.000000 -0.000000
                                 0.000799 -0.000000

   2.2   2    -1.7550  -19.4039  0.000000 -0.000000  0.000000 -0.000000  0.000000 -0.000000  0.000000 -0.000000  0.000000 -0.000001
                                 0.000003 -0.000007  0.000019 -0.000056  0.000186 -0.001245  0.002593 -0.002687  0.001703  0.003912
                                -0.006210  0.004428 -0.012282 -0.003201 -0.004366  0.000281  0.003068  0.000027  0.000000 -0.000185
                                -0.000000  0.000848  0.000000 -0.002968 -0.000000  0.063348  0.000000  0.237610  0.000001  0.262046
                                 0.000002  0.369469  0.000002  0.308212  0.000002  0.123593  0.000001  0.001926  0.000000  0.002690
                                 0.000000 -0.001127 -0.000000  0.001139 -0.000000 -0.000000  0.003709 -0.000000 -0.000000  0.001384
                                 0.000000 -0.000000

   3.2   2    -3.1017  -19.3280 -0.000000  0.000000 -0.000000  0.000000 -0.000000  0.000001 -0.000003  0.000010 -0.000033  0.000102
                                -0.000295  0.000810 -0.002172  0.006221 -0.020451  0.133207 -0.268738  0.291349 -0.400469  0.061760
                                 0.819843 -0.110661  0.411369 -0.080462  0.001051  0.006995  0.077264 -0.000000 -0.000000  0.000000
                                 0.000000  0.000000 -0.000000 -0.000001  0.000000  0.000511 -0.000000  0.002470 -0.000000  0.001906
                                -0.000000  0.005441 -0.000000  0.006039 -0.000000  0.000663 -0.000000  0.000033 -0.000000 -0.000035
                                 0.000000  0.000014 -0.000000  0.000012  0.000000  0.000000  0.000049 -0.000000  0.000000  0.000009
                                 0.000000  0.000000

   4.2   0    -0.8385   -8.3423 -0.000000  0.000000 -0.000000  0.000000 -0.000000  0.000000 -0.000001  0.000002 -0.000006  0.000020
                                -0.000058  0.000161 -0.000438  0.001289 -0.004475  0.032078 -0.069589  0.088367 -0.153566  0.019662
                                 0.496441 -0.240623  0.478295  1.823485 -0.776506 -0.592934 -1.745520 -0.000000 -0.000000  0.000001
                                 0.000000 -0.000003 -0.000000  0.000010  0.000000  0.000022 -0.000000  0.000359 -0.000000 -0.000143
                                -0.000000  0.002010 -0.000000  0.000751 -0.000000 -0.014715  0.000000 -0.013858  0.000000  0.003083
                                -0.000000 -0.001219  0.000000 -0.000001 -0.000000  0.000000  0.000014 -0.000000  0.000000 -0.000147
                                 0.000000 -0.000000

   5.2   0    -0.4905   -6.1483  0.000000 -0.000000  0.000000 -0.000000  0.000000 -0.000000  0.000000 -0.000000  0.000000 -0.000000
                                 0.000000 -0.000001  0.000004 -0.000014  0.000067 -0.000709  0.001878 -0.003253  0.007609 -0.000774
                                -0.035382  0.024106 -0.032309 -0.908171  0.096083 -0.032048  0.824577 -0.000008 -0.000000  0.000056
                                 0.000000 -0.000254 -0.000000  0.000887  0.000000 -0.013887 -0.000000 -0.046504 -0.000000 -0.057410
                                -0.000000 -0.062498 -0.000000 -0.042142 -0.000000  0.160228  0.000000  0.575891  0.000001  0.308247
                                 0.000001  0.107342  0.000000 -0.000181  0.000000  0.000000 -0.001195  0.000000  0.000000  0.003403
                                -0.000000 -0.000000

                                   1 2py     1 2py     1 2py     1 2py     1 2py     1 2py     1 2py     1 2py     1 2py     1 2py
                                   1 2py     1 2py     1 2py     1 2py     1 2py     1 2py     1 2py     1 2py     1 2py     1 2py
                                   1 2py     1 2py     1 2py     1 2py     1 2py     1 2py     1 2py     1 4f1-    1 4f3-    1 4f1-
                                   1 4f3-    1 4f1-    1 4f3-    1 4f1-    1 4f3-    1 4f1-    1 4f3-    1 4f1-    1 4f3-    1 4f1-
                                   1 4f3-    1 4f1-    1 4f3-    1 4f1-    1 4f3-    1 4f1-    1 4f3-    1 4f1-    1 4f3-    1 4f1-
                                   1 4f3-    1 4f1-    1 4f3-    1 6h1-    1 6h3-    1 6h5-    1 6h1-    1 6h3-    1 6h5-    1 6h1-
                                   1 6h3-    1 6h5-

   1.3   2    -1.7163  -19.3532 -0.000000  0.000000 -0.000000  0.000000 -0.000000  0.000000 -0.000000  0.000000 -0.000000  0.000000
                                -0.000000  0.000000 -0.000000  0.000000 -0.000000  0.000000 -0.000000  0.000000 -0.000000 -0.000000
                                 0.000000 -0.000000  0.000000  0.000000  0.000000 -0.000000 -0.000000 -0.000000  0.000028  0.000000
                                -0.000186 -0.000000  0.000851  0.000000 -0.002980 -0.000000  0.063527 -0.000001  0.238006 -0.000002
                                 0.262243 -0.000002  0.367674 -0.000002  0.307494 -0.000001  0.127320 -0.000000  0.003159 -0.000000
                                 0.002275  0.000000 -0.001017 -0.000000  0.000637 -0.000000 -0.000000  0.002067 -0.000000 -0.000000
                                 0.000799 -0.000000

   2.3   2    -1.7550  -19.4039  0.000000 -0.000000  0.000000 -0.000000  0.000000 -0.000000  0.000000 -0.000000  0.000000 -0.000001
                                 0.000003 -0.000007  0.000019 -0.000056  0.000186 -0.001245  0.002593 -0.002687  0.001703  0.003912
                                -0.006210  0.004428 -0.012282 -0.003201 -0.004366  0.000281  0.003068  0.000027  0.000000 -0.000185
                                -0.000000  0.000848  0.000000 -0.002968 -0.000000  0.063348  0.000000  0.237610  0.000001  0.262046
                                 0.000002  0.369469  0.000002  0.308212  0.000002  0.123593  0.000001  0.001926  0.000000  0.002690
                                 0.000000 -0.001127 -0.000000  0.001139 -0.000000 -0.000000  0.003709 -0.000000 -0.000000  0.001384
                                 0.000000  0.000000

   3.3   2    -3.1017  -19.3280 -0.000000  0.000000 -0.000000  0.000000 -0.000000  0.000001 -0.000003  0.000010 -0.000033  0.000102
                                -0.000295  0.000810 -0.002172  0.006221 -0.020451  0.133207 -0.268738  0.291349 -0.400469  0.061760
                                 0.819843 -0.110661  0.411369 -0.080462  0.001051  0.006995  0.077264 -0.000000 -0.000000  0.000000
                                 0.000000  0.000000 -0.000000 -0.000001  0.000000  0.000511 -0.000000  0.002470 -0.000000  0.001906
                                -0.000000  0.005441 -0.000000  0.006039 -0.000000  0.000663 -0.000000  0.000033 -0.000000 -0.000035
                                 0.000000  0.000014 -0.000000  0.000012  0.000000  0.000000  0.000049 -0.000000  0.000000  0.000009
                                 0.000000 -0.000000

   4.3   0    -0.8385   -8.3423 -0.000000  0.000000 -0.000000  0.000000 -0.000000  0.000000 -0.000001  0.000002 -0.000006  0.000020
                                -0.000058  0.000161 -0.000438  0.001289 -0.004475  0.032078 -0.069589  0.088367 -0.153566  0.019662
                                 0.496441 -0.240623  0.478295  1.823484 -0.776507 -0.592934 -1.745519 -0.000000 -0.000000  0.000001
                                 0.000000 -0.000003 -0.000000  0.000010  0.000000  0.000022 -0.000000  0.000359 -0.000000 -0.000143
                                -0.000000  0.002010 -0.000000  0.000751 -0.000000 -0.014715  0.000000 -0.013858  0.000000  0.003083
                                -0.000000 -0.001219  0.000000 -0.000001 -0.000000  0.000000  0.000014 -0.000000 -0.000000 -0.000147
                                 0.000000  0.000000

   5.3   0    -0.4905   -6.1483  0.000000 -0.000000  0.000000 -0.000000  0.000000 -0.000000  0.000000 -0.000000  0.000000 -0.000000
                                 0.000000 -0.000001  0.000004 -0.000014  0.000067 -0.000709  0.001878 -0.003253  0.007609 -0.000774
                                -0.035382  0.024106 -0.032309 -0.908172  0.096083 -0.032048  0.824577 -0.000008 -0.000000  0.000056
                                 0.000000 -0.000254 -0.000000  0.000887  0.000000 -0.013887 -0.000000 -0.046504 -0.000000 -0.057410
                                -0.000000 -0.062498 -0.000000 -0.042142 -0.000000  0.160229  0.000000  0.575891  0.000001  0.308247
                                 0.000001  0.107342  0.000000 -0.000181  0.000000 -0.000000 -0.001195  0.000000  0.000000  0.003403
                                -0.000000 -0.000000

                                   1 3d2-    1 3d2-    1 3d2-    1 3d2-    1 3d2-    1 3d2-    1 3d2-    1 3d2-    1 3d2-    1 3d2-
                                   1 3d2-    1 3d2-    1 3d2-    1 3d2-    1 3d2-    1 3d2-    1 3d2-    1 3d2-    1 5g2-    1 5g4-
                                   1 5g2-    1 5g4-    1 5g2-    1 5g4-    1 5g2-    1 5g4-    1 5g2-    1 5g4-    1 5g2-    1 5g4-


   1.4   0    -1.3373  -13.9690 -0.000000  0.000001 -0.000008  0.000033 -0.000114  0.000341 -0.000896  0.002095 -0.004362  0.007668
                                -0.009216 -0.081644  0.444926  0.590942  0.169629 -0.088454  0.086591 -0.024906  0.000135 -0.000000
                                -0.000512  0.000000  0.005432 -0.000000  0.007112 -0.000000 -0.002780  0.000000  0.001463 -0.000000

   2.4   0    -0.5770   -6.3497  0.000000 -0.000001  0.000004 -0.000016  0.000055 -0.000163  0.000430 -0.001007  0.002107 -0.003834
                                 0.005420  0.032856 -0.200836 -0.313587  0.344978  1.009444 -0.429261  0.204467 -0.000049  0.000000
                                 0.000175 -0.000000 -0.002199  0.000000  0.001538 -0.000000  0.006423 -0.000000 -0.001066  0.000000

                                   1 2pz     1 2pz     1 2pz     1 2pz     1 2pz     1 2pz     1 2pz     1 2pz     1 2pz     1 2pz
                                   1 2pz     1 2pz     1 2pz     1 2pz     1 2pz     1 2pz     1 2pz     1 2pz     1 2pz     1 2pz
                                   1 2pz     1 2pz     1 2pz     1 2pz     1 2pz     1 2pz     1 2pz     1 4f0     1 4f2+    1 4f0
                                   1 4f2+    1 4f0     1 4f2+    1 4f0     1 4f2+    1 4f0     1 4f2+    1 4f0     1 4f2+    1 4f0
                                   1 4f2+    1 4f0     1 4f2+    1 4f0     1 4f2+    1 4f0     1 4f2+    1 4f0     1 4f2+    1 4f0
                                   1 4f2+    1 4f0     1 4f2+    1 6h2+    1 6h4+    1 6h0     1 6h2+    1 6h4+    1 6h0     1 6h2+
                                   1 6h4+    1 6h0

   1.5   2    -1.7406  -19.3853  0.000000 -0.000000  0.000000 -0.000000  0.000000 -0.000000  0.000000 -0.000000  0.000000 -0.000000
                                 0.000000 -0.000000  0.000000 -0.000000  0.000000 -0.000000  0.000001 -0.000001  0.000001 -0.000000
                                -0.000002  0.000000 -0.000001  0.000000  0.000000 -0.000000 -0.000000 -0.000000  0.000027  0.000000
                                -0.000185 -0.000000  0.000849  0.000000 -0.002972 -0.000002  0.063416 -0.000007  0.237764 -0.000008
                                 0.262127 -0.000011  0.368800 -0.000010  0.308003 -0.000004  0.125027 -0.000000  0.002366 -0.000000
                                 0.002545  0.000000 -0.001089  0.000954 -0.000000 -0.000000  0.003102 -0.000000 -0.000000  0.001173
                                -0.000000 -0.000000

   2.5   2    -1.7603  -19.4116 -0.000000  0.000000 -0.000000  0.000000 -0.000000  0.000000 -0.000000  0.000000 -0.000000  0.000001
                                -0.000002  0.000007 -0.000018  0.000051 -0.000163  0.001021 -0.001958  0.002268 -0.005533  0.005985
                                 0.008076  0.003030 -0.007241 -0.005515 -0.005052  0.000502  0.005287  0.000027  0.000000 -0.000185
                                -0.000000  0.000847  0.000000 -0.002966 -0.000000  0.063328  0.000002  0.237583  0.000007  0.262028
                                 0.000008  0.369759  0.000011  0.308316  0.000009  0.123095  0.000004  0.001792  0.000000  0.002729
                                 0.000000 -0.001137 -0.000000  0.000000 -0.000000  0.001201  0.000000 -0.000000  0.003910  0.000000
                                 0.000000  0.001452

   3.5   +    -3.2095  -19.4740 -0.000000  0.000000 -0.000000  0.000000 -0.000000  0.000001 -0.000003  0.000010 -0.000034  0.000106
                                -0.000307  0.000842 -0.002259  0.006465 -0.021234  0.138076 -0.278088  0.299634 -0.406035  0.057785
                                 0.842908 -0.113849  0.398244 -0.090993 -0.003338  0.008139  0.087349 -0.000001  0.000000  0.000007
                                -0.000000 -0.000032  0.000000  0.000110 -0.000000 -0.001031  0.000000 -0.002371  0.000001 -0.004848
                                 0.000001  0.000836  0.000001  0.004251  0.000001 -0.002916  0.000000  0.000086  0.000000 -0.000235
                                 0.000000  0.000091 -0.000000 -0.000000  0.000000 -0.000018 -0.000000  0.000000  0.000009  0.000000
                                -0.000000 -0.000031

   4.5   0    -0.8583   -8.4623  0.000000 -0.000000  0.000000 -0.000000  0.000000 -0.000000  0.000001 -0.000002  0.000007 -0.000023
                                 0.000067 -0.000186  0.000504 -0.001476  0.005071 -0.035773  0.076727 -0.095203  0.161283 -0.023583
                                -0.503927  0.207643 -0.437151 -1.755155  0.809699  0.552252  1.678785  0.000000  0.000000 -0.000001
                                 0.000000  0.000004 -0.000000 -0.000015  0.000000 -0.000014  0.000000 -0.000437  0.000000  0.000244
                                 0.000000 -0.002588  0.000000 -0.000799  0.000000  0.018053 -0.000000  0.015940 -0.000000 -0.003721
                                 0.000000  0.001411 -0.000000  0.000000 -0.000000  0.000001  0.000000  0.000000 -0.000018 -0.000000
                                -0.000000  0.000186

   5.5   0    -0.4917   -6.1547  0.000000 -0.000000  0.000000 -0.000000  0.000000 -0.000000  0.000000 -0.000000  0.000000 -0.000000
                                 0.000001 -0.000003  0.000010 -0.000034  0.000149 -0.001411  0.003567 -0.005784  0.012766 -0.000966
                                -0.058634  0.038840 -0.052916 -1.447516  0.157243 -0.049566  1.315019 -0.000008 -0.000000  0.000056
                                 0.000000 -0.000254 -0.000000  0.000887  0.000000 -0.013891 -0.000000 -0.046541 -0.000001 -0.057417
                                -0.000001 -0.062747 -0.000001 -0.041890 -0.000001  0.162612  0.000002  0.575499  0.000007  0.301903
                                 0.000004  0.105517  0.000001  0.000000 -0.000000 -0.000191 -0.000000 -0.000000 -0.001256  0.000000
                                -0.000000  0.003602

                                   1 3d1+    1 3d1+    1 3d1+    1 3d1+    1 3d1+    1 3d1+    1 3d1+    1 3d1+    1 3d1+    1 3d1+
                                   1 3d1+    1 3d1+    1 3d1+    1 3d1+    1 3d1+    1 3d1+    1 3d1+    1 3d1+    1 5g1+    1 5g3+
                                   1 5g1+    1 5g3+    1 5g1+    1 5g3+    1 5g1+    1 5g3+    1 5g1+    1 5g3+    1 5g1+    1 5g3+


   1.6   0    -1.3838  -14.1078 -0.000000  0.000001 -0.000008  0.000032 -0.000111  0.000333 -0.000874  0.002044 -0.004259  0.007451
                                -0.008571 -0.085599  0.460404  0.590929  0.147522 -0.065986  0.061075 -0.016588  0.000193 -0.000000
                                -0.000742  0.000000  0.007764 -0.000000  0.009711 -0.000000 -0.003899  0.000000  0.002040 -0.000000

   2.6   0    -0.5857   -6.4130  0.000000 -0.000001  0.000004 -0.000015  0.000052 -0.000154  0.000406 -0.000953  0.002000 -0.003632
                                 0.004986  0.034714 -0.208977 -0.309233  0.386603  0.964308 -0.399655  0.184405 -0.000069  0.000000
                                 0.000248 -0.000000 -0.003112  0.000000  0.002576 -0.000000  0.008874 -0.000000 -0.001534  0.000000

                                   1 3d1-    1 3d1-    1 3d1-    1 3d1-    1 3d1-    1 3d1-    1 3d1-    1 3d1-    1 3d1-    1 3d1-
                                   1 3d1-    1 3d1-    1 3d1-    1 3d1-    1 3d1-    1 3d1-    1 3d1-    1 3d1-    1 5g1-    1 5g3-
                                   1 5g1-    1 5g3-    1 5g1-    1 5g3-    1 5g1-    1 5g3-    1 5g1-    1 5g3-    1 5g1-    1 5g3-


   1.7   0    -1.3838  -14.1079 -0.000000  0.000001 -0.000008  0.000032 -0.000111  0.000333 -0.000874  0.002044 -0.004259  0.007451
                                -0.008571 -0.085599  0.460405  0.590929  0.147522 -0.065986  0.061074 -0.016588  0.000193 -0.000000
                                -0.000742  0.000000  0.007764 -0.000000  0.009711 -0.000000 -0.003899  0.000000  0.002040 -0.000000

   2.7   0    -0.5857   -6.4130  0.000000 -0.000001  0.000004 -0.000015  0.000052 -0.000154  0.000406 -0.000953  0.002000 -0.003632
                                 0.004986  0.034714 -0.208977 -0.309233  0.386604  0.964307 -0.399654  0.184404 -0.000069  0.000000
                                 0.000248 -0.000000 -0.003112  0.000000  0.002576 -0.000000  0.008874 -0.000000 -0.001534  0.000000

                                   1 4f2-    1 4f2-    1 4f2-    1 4f2-    1 4f2-    1 4f2-    1 4f2-    1 4f2-    1 4f2-    1 4f2-
                                   1 4f2-    1 4f2-    1 4f2-    1 6h4-    1 6h2-    1 6h4-    1 6h2-    1 6h4-    1 6h2-

   1.8   2    -1.7406  -19.3853  0.000027 -0.000185  0.000849 -0.002972  0.063416  0.237764  0.262127  0.368800  0.308003  0.125027
                                 0.002366  0.002545 -0.001089 -0.000000  0.000954 -0.000000  0.003102 -0.000000  0.001173

   2.8   0    -0.4873   -6.1072 -0.000008  0.000056 -0.000252  0.000877 -0.013718 -0.045914 -0.056709 -0.061320 -0.042308  0.153074
                                 0.570042  0.320731  0.111059  0.000000 -0.000150  0.000000 -0.000996 -0.000000  0.002789

   3.8   0    -0.3112   -4.0197  0.000007 -0.000049  0.000219 -0.000764  0.011264  0.036709  0.046628  0.046938  0.032245 -0.164375
                                -0.563480  0.017344  1.024595 -0.000000  0.000119 -0.000000  0.000730  0.000000 -0.002469

 HOMO      1.8    -1.740592 =     -47.3639eV
 LUMO      2.1    -1.400586 =     -38.1119eV
 LUMO-HOMO         0.340006 =       9.2520eV


 **********************************************************************************************************************************
 DATASETS  * FILE   NREC   LENGTH (MB)   RECORD NAMES
              1      19       20.94       500      610      700      900      950      970     1000      129      960     1100
                                          VAR    BASINP    GEOM    SYMINP    ZMAT    AOBASIS   BASIS     P2S    ABASIS      S
                                         1400     1410     1420     1200     1210     1080     1600     1650     1700
                                           T        V       ECP      H0       H01     AOSYM     SMH    MOLCAS    OPER

              2       5        6.02       200      700     1000      520     4202
                                        OPTIONS   GEOM     BASIS   MCVARS     RHF

 PROGRAMS   *        TOTAL       RHF       INT
 CPU TIMES  *        71.28      2.06     68.61
 REAL TIME  *        84.88 SEC
 DISK USED  *         4.60 GB
 SF USED    *         0.09 MB
 GA USED    *         0.00 MB       (max)       0.00 MB       (current)
 **********************************************************************************************************************************
   -->
   <time start="12:16:22" end="12:17:39" cpu="71.28" system="8.35" real="84.88"/>
   <storage units="megabyte" memory="8001.84" sf="0.09" df="332.82" eaf="4267.27" ga="0.0"/>
  </jobstep><!--
  --><jobstep command="POP" commandset="POP">
   <!--


 PROGRAM * POP (Mulliken population analysis)


 Density matrix read from record         4202.2  Type=RHF/CHARGE (state 1.5)

 Population analysis by basis function type

 Unique atom        s        p        d        f        g    Total    Charge
   1  LU      1.99997  5.00030  0.00003 13.99942  0.00000 21.00000  + 4.00000


 **********************************************************************************************************************************
 DATASETS  * FILE   NREC   LENGTH (MB)   RECORD NAMES
              1      19       20.94       500      610      700      900      950      970     1000      129      960     1100
                                          VAR    BASINP    GEOM    SYMINP    ZMAT    AOBASIS   BASIS     P2S    ABASIS      S
                                         1400     1410     1420     1200     1210     1080     1600     1650     1700
                                           T        V       ECP      H0       H01     AOSYM     SMH    MOLCAS    OPER

              2       5        6.02       200      700     1000      520     4202
                                        OPTIONS   GEOM     BASIS   MCVARS     RHF

 PROGRAMS   *        TOTAL       POP       RHF       INT
 CPU TIMES  *        71.29      0.00      2.06     68.61
 REAL TIME  *        84.89 SEC
 DISK USED  *         4.60 GB
 SF USED    *         0.09 MB
 GA USED    *         0.00 MB       (max)       0.00 MB       (current)
 **********************************************************************************************************************************
   -->
   <time start="12:17:39" end="12:17:39" cpu="0.01" system="0.0" real="0.01"/>
   <storage units="megabyte" memory="8001.84" sf="0.09" df="332.82" eaf="4267.27" ga="0.0"/>
  </jobstep><!--
  --><jobstep command="MULTI" commandset="MULTI">
   <!--


 PROGRAM * MULTI (Direct Multiconfiguration SCF)       Authors: P.J. Knowles, H.-J. Werner (1984)     S.T. Elbert (1988)


 Number of closed-shell orbitals:   8 (   1   2   2   0   2   0   0   1 )
 Number of active  orbitals:        3 (   0   1   1   0   1   0   0   0 )
 Number of external orbitals:     369 (  84  59  59  30  59  30  30  18 )

 State symmetry 1

 Number of electrons:     5    Spin symmetry=Doublet   Space symmetry=5
 Number of states:        1
 Number of CSFs:          1   (1 determinants, 3 intermediate states)

 State symmetry 2

 Number of electrons:     5    Spin symmetry=Doublet   Space symmetry=3
 Number of states:        1
 Number of CSFs:          1   (1 determinants, 3 intermediate states)

 State symmetry 3

 Number of electrons:     5    Spin symmetry=Doublet   Space symmetry=2
 Number of states:        1
 Number of CSFs:          1   (1 determinants, 3 intermediate states)

 Molecular orbitals read from record     4202.2  Type=RHF/CANONICAL (state 1.5)
 *** IN SYMMETRY 1 ORBITAL  1 SYMMETRY CONTAMINATION OF 0.411D-02 HAS BEEN REMOVED

 EXTRA SYMMETRY OF MOS IN SYMMETRY 1:   1 2 3 1 2 3 1 2 3 1   4 6 5 2 3 1 4 6 5 2   3 1 4 6 5 1 3 1 4 6   5 1 2 3 1 4 6 5 2 3
                                        1 2 3 4 6 5 2 3 1 1   2 3 1 2 3 1 2 3 1 2   3 1 1 2 3 1 2 3 1 2   3 1 1 2 3 1 1 1 1 1
                                        1 1 1 1 2
 *** IN SYMMETRY 2 ORBITAL  1 SYMMETRY CONTAMINATION OF 0.254D-02 HAS BEEN REMOVED
 *** IN SYMMETRY 2 ORBITAL  2 SYMMETRY CONTAMINATION OF 0.368D-01 HAS BEEN REMOVED
 *** IN SYMMETRY 2 ORBITAL  3 SYMMETRY CONTAMINATION OF 0.634D-02 HAS BEEN REMOVED
 EXTRA SYMMETRY OF MOS IN SYMMETRY 2:   3 2 1 1 1 3 1 2 3 1   2 3 1 2 3 1 4 5 6 2   3 1 4 5 6 2 3 1 1 2   3 4 5 6 1 2 3 1 1 2
                                        3 1 1 2 3 1 2 3 1 1   2 3 1 1 1 1 1 1 1 1   1 2
 *** IN SYMMETRY 3 ORBITAL  1 SYMMETRY CONTAMINATION OF 0.254D-02 HAS BEEN REMOVED
 *** IN SYMMETRY 3 ORBITAL  2 SYMMETRY CONTAMINATION OF 0.368D-01 HAS BEEN REMOVED
 *** IN SYMMETRY 3 ORBITAL  3 SYMMETRY CONTAMINATION OF 0.634D-02 HAS BEEN REMOVED
 EXTRA SYMMETRY OF MOS IN SYMMETRY 3:   3 2 1 1 1 3 1 2 3 1   2 3 1 2 3 1 4 5 6 2   3 1 4 5 6 2 3 1 1 2   3 4 5 6 1 2 3 1 1 2
                                        3 1 1 2 3 1 2 3 1 1   2 3 1 1 1 1 1 1 1 1   1 2
 EXTRA SYMMETRY OF MOS IN SYMMETRY 4:   1 1 1 2 3 1 2 3 1 2   3 1 2 3 1 2 3 1 1 2   3 1 1 1 1 1 1 1 1 1
 *** IN SYMMETRY 5 ORBITAL  1 SYMMETRY CONTAMINATION OF 0.382D-02 HAS BEEN REMOVED
 *** IN SYMMETRY 5 ORBITAL  2 SYMMETRY CONTAMINATION OF 0.407D-01 HAS BEEN REMOVED
 *** IN SYMMETRY 5 ORBITAL  3 SYMMETRY CONTAMINATION OF 0.609D-02 HAS BEEN REMOVED
 EXTRA SYMMETRY OF MOS IN SYMMETRY 5:   3 2 1 1 1 3 1 2 3 1   2 3 1 2 3 1 6 4 5 2   3 1 6 4 5 2 3 1 1 2   3 6 4 5 1 2 3 1 1 2
                                        3 1 1 2 3 1 2 3 1 1   2 3 1 1 1 1 1 1 1 1   1 2
 EXTRA SYMMETRY OF MOS IN SYMMETRY 6:   1 1 1 2 3 1 2 3 1 2   3 1 2 3 1 2 3 1 1 2   3 1 1 1 1 1 1 1 1 1
 EXTRA SYMMETRY OF MOS IN SYMMETRY 7:   1 1 1 2 3 1 2 3 1 2   3 1 2 3 1 2 3 1 1 2   3 1 1 1 1 1 1 1 1 1
 *** IN SYMMETRY 8 ORBITAL  1 SYMMETRY CONTAMINATION OF 0.379D-02 HAS BEEN REMOVED
 EXTRA SYMMETRY OF MOS IN SYMMETRY 8:   1 1 1 1 1 3 2 1 3 2   1 1 3 2 1 1 1 1 1

 Wavefunction dump at record             5202.2

 Convergence thresholds  0.10E-01 (gradient)  0.10E-05 (energy)  0.10E-02 (step length)

 Weight factors for state symmetry  1:    0.33333
 Weight factors for state symmetry  2:    0.33333
 Weight factors for state symmetry  3:    0.33333

 Number of orbital rotations:      639   (     6 Core/Active    456 Core/Virtual   0 Active/Active    177 Active/Virtual)
 Total number of variables:        642


 ITER. MIC  NCI  NEG     ENERGY(VAR)     ENERGY(PROJ)   ENERGY CHANGE     GRAD(0)  GRAD(ORB)   GRAD(CI)     STEP       TIME

   1   45   12    0    -206.36929513    -206.36976814   -0.00047301    4.81300325 0.00000000 0.00000000  0.94D-02      0.72
   2   17   15    0    -206.06931032    -206.36963474   -0.30032442   *********** 0.00049636 0.00000000  0.13D-03      1.46
   3   21   15    0    -206.36963474    -206.36963474   -0.00000000    0.00049637 0.00000000 0.00000000  0.71D-08      2.16

 ** WVFN ****  CONVERGENCE REACHED, FINAL GRADIENT:  0.12D-10



 Results for state 1.5
 =====================

 !MCSCF STATE 1.5 Energy             -206.369634738602
   --><property name="Energy" method="MCSCF" principal="true" stateSymmetry="5" stateNumber="1"
     value="-206.369634738602"/><!--
 Nuclear energy                         0.00000000
 Kinetic energy                       175.54945859
 One electron energy                 -364.34728637
 Two electron energy                  157.97765163
 Virial ratio                           2.17556406

 !MCSCF STATE 1.5 Dipole moment         0.00000000     0.00000000     0.00000000
 Dipole moment /Debye                   0.00000000     0.00000000     0.00000000
   --><property name="Dipole moment" method="MCSCF" principal="true" stateSymmetry="5"
     stateNumber="1" value="0.0 0.0 0.0"/><!--



 Results for state 1.3
 =====================

 !MCSCF STATE 1.3 Energy             -206.369634738602
   --><property name="Energy" method="MCSCF" principal="true" stateSymmetry="3" stateNumber="1"
     value="-206.369634738602"/><!--
 Nuclear energy                         0.00000000
 Kinetic energy                       175.54945859
 One electron energy                 -364.34728637
 Two electron energy                  157.97765163
 Virial ratio                           2.17556406

 !MCSCF STATE 1.3 Dipole moment         0.00000000     0.00000000     0.00000000
 Dipole moment /Debye                   0.00000000     0.00000000     0.00000000
   --><property name="Dipole moment" method="MCSCF" principal="true" stateSymmetry="3"
     stateNumber="1" value="0.0 0.0 0.0"/><!--



 Results for state 1.2
 =====================

 !MCSCF STATE 1.2 Energy             -206.369634738602
   --><property name="Energy" method="MCSCF" principal="true" stateSymmetry="2" stateNumber="1"
     value="-206.369634738602"/><!--
 Nuclear energy                         0.00000000
 Kinetic energy                       175.54945859
 One electron energy                 -364.34728637
 Two electron energy                  157.97765163
 Virial ratio                           2.17556406

 !MCSCF STATE 1.2 Dipole moment         0.00000000     0.00000000     0.00000000
 Dipole moment /Debye                   0.00000000     0.00000000     0.00000000
   --><property name="Dipole moment" method="MCSCF" principal="true" stateSymmetry="2"
     stateNumber="1" value="0.0 0.0 0.0"/><!--

 State-averaged charge density matrix saved on record  5202.2 (density set 1)


 NATURAL ORBITALS (state averaged)
 =================================

   Orb     Occ        Energy       Coefficients

                                   1 1s      1 1s      1 1s      1 1s      1 1s      1 1s      1 1s      1 1s      1 1s      1 1s
                                   1 1s      1 1s      1 1s      1 1s      1 1s      1 1s      1 1s      1 1s      1 1s      1 1s
                                   1 1s      1 1s      1 1s      1 1s      1 1s      1 1s      1 1s      1 1s      1 1s      1 1s
                                   1 1s      1 3d0     1 3d2+    1 3d0     1 3d2+    1 3d0     1 3d2+    1 3d0     1 3d2+    1 3d0
                                   1 3d2+    1 3d0     1 3d2+    1 3d0     1 3d2+    1 3d0     1 3d2+    1 3d0     1 3d2+    1 3d0
                                   1 3d2+    1 3d0     1 3d2+    1 3d0     1 3d2+    1 3d0     1 3d2+    1 3d0     1 3d2+    1 3d0
                                   1 3d2+    1 3d0     1 3d2+    1 3d0     1 3d2+    1 3d0     1 3d2+    1 5g0     1 5g4+    1 5g2+
                                   1 5g0     1 5g4+    1 5g2+    1 5g0     1 5g4+    1 5g2+    1 5g0     1 5g4+    1 5g2+    1 5g0
                                   1 5g4+    1 5g2+    1 5g0     1 5g4+    1 5g2+

   1.1  2.00000    -4.207705    -0.000000  0.000000 -0.000000  0.000000 -0.000000  0.000000 -0.000000  0.000000 -0.000000  0.000001
                                -0.000002  0.000005 -0.000012  0.000026 -0.000053  0.000093 -0.000120  0.000021  0.000351 -0.007161
                                -0.021073  0.407688 -1.028506  0.031329  1.060328  0.317760  0.025136 -0.021191  0.019853 -0.016677
                                 0.005583  0.000000  0.000000  0.000000  0.000000  0.000000  0.000000  0.000000  0.000000  0.000000
                                 0.000000  0.000000  0.000000  0.000000  0.000000  0.000000  0.000000  0.000000  0.000000  0.000000
                                 0.000000  0.000000  0.000000  0.000000  0.000000  0.000000  0.000000  0.000000  0.000000  0.000000
                                 0.000000  0.000000  0.000000  0.000000  0.000000  0.000000  0.000000  0.000000  0.000000  0.000000
                                 0.000000  0.000000  0.000000  0.000000  0.000000  0.000000  0.000000  0.000000  0.000000  0.000000
                                 0.000000  0.000000  0.000000  0.000000  0.000000

                                   1 2px     1 2px     1 2px     1 2px     1 2px     1 2px     1 2px     1 2px     1 2px     1 2px
                                   1 2px     1 2px     1 2px     1 2px     1 2px     1 2px     1 2px     1 2px     1 2px     1 2px
                                   1 2px     1 2px     1 2px     1 2px     1 2px     1 2px     1 2px     1 4f1+    1 4f3+    1 4f1+
                                   1 4f3+    1 4f1+    1 4f3+    1 4f1+    1 4f3+    1 4f1+    1 4f3+    1 4f1+    1 4f3+    1 4f1+
                                   1 4f3+    1 4f1+    1 4f3+    1 4f1+    1 4f3+    1 4f1+    1 4f3+    1 4f1+    1 4f3+    1 4f1+
                                   1 4f3+    1 4f1+    1 4f3+    1 6h1+    1 6h3+    1 6h5+    1 6h1+    1 6h3+    1 6h5+    1 6h1+
                                   1 6h3+    1 6h5+

   1.2  2.00000    -1.740509     0.000000  0.000000  0.000000  0.000000  0.000000  0.000000  0.000000  0.000000  0.000000  0.000000
                                 0.000000  0.000000  0.000000  0.000000  0.000000  0.000000  0.000000  0.000000  0.000000  0.000000
                                 0.000000  0.000000  0.000000  0.000000  0.000000  0.000000  0.000000  0.000000  0.000027  0.000000
                                -0.000185  0.000000  0.000849  0.000000 -0.002972  0.000000  0.063419  0.000000  0.237772  0.000000
                                 0.262136  0.000000  0.368809  0.000000  0.307979  0.000000  0.125037  0.000000  0.002376  0.000000
                                 0.002541  0.000000 -0.001088  0.000000  0.000000  0.000000  0.000000  0.000000  0.000000  0.000000
                                 0.000000  0.000000

   2.2  2.00000    -1.740509     0.000000  0.000000  0.000000  0.000000  0.000000  0.000000  0.000000  0.000000  0.000000  0.000000
                                 0.000000  0.000000  0.000000  0.000000  0.000000  0.000000  0.000000  0.000000  0.000000  0.000000
                                 0.000000  0.000000  0.000000  0.000000  0.000000  0.000000  0.000000  0.000027  0.000000 -0.000185
                                 0.000000  0.000849  0.000000 -0.002972  0.000000  0.063419  0.000000  0.237772  0.000000  0.262136
                                 0.000000  0.368809  0.000000  0.307979  0.000000  0.125037  0.000000  0.002376  0.000000  0.002541
                                 0.000000 -0.001088  0.000000  0.000000  0.000000  0.000000  0.000000  0.000000  0.000000  0.000000
                                 0.000000  0.000000

   3.2  1.66667    -3.020684    -0.000000  0.000000 -0.000000  0.000000 -0.000000  0.000001 -0.000003  0.000010 -0.000033  0.000102
                                -0.000297  0.000816 -0.002189  0.006267 -0.020599  0.134127 -0.270504  0.292916 -0.401521  0.060965
                                 0.824164 -0.111002  0.408813 -0.082526  0.000152  0.007219  0.079240  0.000000  0.000000  0.000000
                                 0.000000  0.000000  0.000000  0.000000  0.000000  0.000000  0.000000  0.000000  0.000000  0.000000
                                 0.000000  0.000000  0.000000  0.000000  0.000000  0.000000  0.000000  0.000000  0.000000  0.000000
                                 0.000000  0.000000  0.000000  0.000000  0.000000  0.000000  0.000000  0.000000  0.000000  0.000000
                                 0.000000  0.000000

                                   1 2py     1 2py     1 2py     1 2py     1 2py     1 2py     1 2py     1 2py     1 2py     1 2py
                                   1 2py     1 2py     1 2py     1 2py     1 2py     1 2py     1 2py     1 2py     1 2py     1 2py
                                   1 2py     1 2py     1 2py     1 2py     1 2py     1 2py     1 2py     1 4f1-    1 4f3-    1 4f1-
                                   1 4f3-    1 4f1-    1 4f3-    1 4f1-    1 4f3-    1 4f1-    1 4f3-    1 4f1-    1 4f3-    1 4f1-
                                   1 4f3-    1 4f1-    1 4f3-    1 4f1-    1 4f3-    1 4f1-    1 4f3-    1 4f1-    1 4f3-    1 4f1-
                                   1 4f3-    1 4f1-    1 4f3-    1 6h1-    1 6h3-    1 6h5-    1 6h1-    1 6h3-    1 6h5-    1 6h1-
                                   1 6h3-    1 6h5-

   1.3  2.00000    -1.740509     0.000000  0.000000  0.000000  0.000000  0.000000  0.000000  0.000000  0.000000  0.000000  0.000000
                                 0.000000  0.000000  0.000000  0.000000  0.000000  0.000000  0.000000  0.000000  0.000000  0.000000
                                 0.000000  0.000000  0.000000  0.000000  0.000000  0.000000  0.000000  0.000000  0.000027  0.000000
                                -0.000185  0.000000  0.000849  0.000000 -0.002972  0.000000  0.063419  0.000000  0.237772  0.000000
                                 0.262136  0.000000  0.368809  0.000000  0.307979  0.000000  0.125037  0.000000  0.002376  0.000000
                                 0.002541  0.000000 -0.001088  0.000000  0.000000  0.000000  0.000000  0.000000  0.000000  0.000000
                                 0.000000  0.000000

   2.3  2.00000    -1.740509     0.000000  0.000000  0.000000  0.000000  0.000000  0.000000  0.000000  0.000000  0.000000  0.000000
                                 0.000000  0.000000  0.000000  0.000000  0.000000  0.000000  0.000000  0.000000  0.000000  0.000000
                                 0.000000  0.000000  0.000000  0.000000  0.000000  0.000000  0.000000  0.000027  0.000000 -0.000185
                                 0.000000  0.000849  0.000000 -0.002972  0.000000  0.063419  0.000000  0.237772  0.000000  0.262136
                                 0.000000  0.368809  0.000000  0.307979  0.000000  0.125037  0.000000  0.002376  0.000000  0.002541
                                 0.000000 -0.001088  0.000000  0.000000  0.000000  0.000000  0.000000  0.000000  0.000000  0.000000
                                 0.000000  0.000000

   3.3  1.66667    -3.020684    -0.000000  0.000000 -0.000000  0.000000 -0.000000  0.000001 -0.000003  0.000010 -0.000033  0.000102
                                -0.000297  0.000816 -0.002189  0.006267 -0.020599  0.134127 -0.270504  0.292916 -0.401521  0.060965
                                 0.824164 -0.111002  0.408813 -0.082526  0.000152  0.007219  0.079240  0.000000  0.000000  0.000000
                                 0.000000  0.000000  0.000000  0.000000  0.000000  0.000000  0.000000  0.000000  0.000000  0.000000
                                 0.000000  0.000000  0.000000  0.000000  0.000000  0.000000  0.000000  0.000000  0.000000  0.000000
                                 0.000000  0.000000  0.000000  0.000000  0.000000  0.000000  0.000000  0.000000  0.000000  0.000000
                                 0.000000  0.000000

                                   1 2pz     1 2pz     1 2pz     1 2pz     1 2pz     1 2pz     1 2pz     1 2pz     1 2pz     1 2pz
                                   1 2pz     1 2pz     1 2pz     1 2pz     1 2pz     1 2pz     1 2pz     1 2pz     1 2pz     1 2pz
                                   1 2pz     1 2pz     1 2pz     1 2pz     1 2pz     1 2pz     1 2pz     1 4f0     1 4f2+    1 4f0
                                   1 4f2+    1 4f0     1 4f2+    1 4f0     1 4f2+    1 4f0     1 4f2+    1 4f0     1 4f2+    1 4f0
                                   1 4f2+    1 4f0     1 4f2+    1 4f0     1 4f2+    1 4f0     1 4f2+    1 4f0     1 4f2+    1 4f0
                                   1 4f2+    1 4f0     1 4f2+    1 6h2+    1 6h4+    1 6h0     1 6h2+    1 6h4+    1 6h0     1 6h2+
                                   1 6h4+    1 6h0

   1.5  2.00000    -1.740509     0.000000  0.000000  0.000000  0.000000  0.000000  0.000000  0.000000  0.000000  0.000000  0.000000
                                 0.000000  0.000000  0.000000  0.000000  0.000000  0.000000  0.000000  0.000000  0.000000  0.000000
                                 0.000000  0.000000  0.000000  0.000000  0.000000  0.000000  0.000000  0.000027  0.000000 -0.000185
                                 0.000000  0.000849  0.000000 -0.002972  0.000000  0.063419  0.000000  0.237772  0.000000  0.262136
                                 0.000000  0.368809  0.000000  0.307979  0.000000  0.125037  0.000000  0.002376  0.000000  0.002541
                                 0.000000 -0.001088  0.000000  0.000000  0.000000  0.000000  0.000000  0.000000  0.000000  0.000000
                                 0.000000  0.000000

   2.5  2.00000    -1.740509     0.000000  0.000000  0.000000  0.000000  0.000000  0.000000  0.000000  0.000000  0.000000  0.000000
                                 0.000000  0.000000  0.000000  0.000000  0.000000  0.000000  0.000000  0.000000  0.000000  0.000000
                                 0.000000  0.000000  0.000000  0.000000  0.000000  0.000000  0.000000  0.000000  0.000027  0.000000
                                -0.000185  0.000000  0.000849  0.000000 -0.002972  0.000000  0.063419  0.000000  0.237772  0.000000
                                 0.262136  0.000000  0.368809  0.000000  0.307979  0.000000  0.125037  0.000000  0.002376  0.000000
                                 0.002541  0.000000 -0.001088  0.000000  0.000000  0.000000  0.000000  0.000000  0.000000  0.000000
                                 0.000000  0.000000

   3.5  1.66667    -3.020684    -0.000000  0.000000 -0.000000  0.000000 -0.000000  0.000001 -0.000003  0.000010 -0.000033  0.000102
                                -0.000297  0.000816 -0.002189  0.006267 -0.020599  0.134127 -0.270504  0.292916 -0.401521  0.060965
                                 0.824164 -0.111002  0.408813 -0.082526  0.000152  0.007219  0.079240  0.000000  0.000000 -0.000000
                                 0.000000  0.000000  0.000000 -0.000000  0.000000  0.000000  0.000000  0.000000  0.000000  0.000000
                                 0.000000  0.000000  0.000000  0.000000  0.000000  0.000000  0.000000  0.000000  0.000000  0.000000
                                 0.000000 -0.000000  0.000000  0.000000  0.000000  0.000000  0.000000  0.000000  0.000000  0.000000
                                 0.000000  0.000000

                                   1 4f2-    1 4f2-    1 4f2-    1 4f2-    1 4f2-    1 4f2-    1 4f2-    1 4f2-    1 4f2-    1 4f2-
                                   1 4f2-    1 4f2-    1 4f2-    1 6h4-    1 6h2-    1 6h4-    1 6h2-    1 6h4-    1 6h2-

   1.8  2.00000    -1.740509     0.000027 -0.000185  0.000849 -0.002972  0.063419  0.237772  0.262136  0.368809  0.307979  0.125037
                                 0.002376  0.002541 -0.001088  0.000000  0.000000  0.000000  0.000000  0.000000  0.000000

 Total charge:   4.000000000000


 EXTRA SYMMETRY OF MOS IN SYMMETRY 1:   1 2 3 1 3 2 1 3 2 1   5 6 4 3 2 1 6 5 4 3   2 1 6 5 4 3 2 1 4 5   6 1 3 2 1 6 5 4 3 2
                                        1 3 2 4 6 5 3 2 1 1   2 3 1 2 3 1 3 2 1 3   2 1 1 3 2 1 3 2 1 3   2 1 1 2 3 1 1 1 1 1
                                        1 1 1 1 1
 EXTRA SYMMETRY OF MOS IN SYMMETRY 2:   3 2 1 1 3 2 1 3 2 1   2 3 1 2 3 1 4 6 5 2   3 1 5 6 4 3 2 1 1 2   3 6 5 4 1 3 2 1 1 2
                                        3 1 1 2 3 1 3 2 1 1   3 2 1 1 1 1 1 1 1 1   1 1
 EXTRA SYMMETRY OF MOS IN SYMMETRY 3:   3 2 1 1 2 3 1 3 2 1   3 2 1 3 2 1 4 6 5 2   3 1 5 4 6 3 2 1 1 3   2 5 6 4 1 2 3 1 1 3
                                        2 1 1 2 3 1 2 3 1 1   3 2 1 1 1 1 1 1 1 1   1 1
 EXTRA SYMMETRY OF MOS IN SYMMETRY 4:   1 1 1 3 2 1 3 2 1 3   2 1 3 2 1 3 2 1 1 3   2 1 1 1 1 1 1 1 1 1
 EXTRA SYMMETRY OF MOS IN SYMMETRY 5:   2 3 1 1 2 3 1 2 3 1   2 3 1 3 2 1 6 5 4 3   2 1 6 4 5 3 2 1 1 2   3 6 4 5 1 3 2 1 1 3
                                        2 1 1 3 2 1 2 3 1 1   2 3 1 1 1 1 1 1 1 1   1 1
 EXTRA SYMMETRY OF MOS IN SYMMETRY 6:   1 1 1 3 2 1 3 2 1 3   2 1 2 3 1 2 3 1 1 2   3 1 1 1 1 1 1 1 1 1
 EXTRA SYMMETRY OF MOS IN SYMMETRY 7:   1 1 1 3 2 1 2 3 1 3   2 1 2 3 1 2 3 1 1 2   3 1 1 1 1 1 1 1 1 1
 EXTRA SYMMETRY OF MOS IN SYMMETRY 8:   1 1 1 1 1 3 2 1 2 3   1 1 3 2 1 1 1 1 1

 Natural orbital dump (state averaged) at molpro section  5202.2    (Orbital set 2)


 CI vector for state symmetry 1
 ==============================

 2 2 a           1.0000000

 TOTAL ENERGIES                      -206.36963474

 CI vector for state symmetry 2
 ==============================

 2 a 2           1.0000000

 TOTAL ENERGIES                      -206.36963474

 CI vector for state symmetry 3
 ==============================

 a 2 2           1.0000000

 TOTAL ENERGIES                      -206.36963474



 **********************************************************************************************************************************
 DATASETS  * FILE   NREC   LENGTH (MB)   RECORD NAMES
              1      20       36.12       500      610      700      900      950      970     1000      129      960     1100
                                          VAR    BASINP    GEOM    SYMINP    ZMAT    AOBASIS   BASIS     P2S    ABASIS      S
                                         1400     1410     1420     1200     1210     1080     1600     1650     1700     1380
                                           T        V       ECP      H0       H01     AOSYM     SMH    MOLCAS    OPER     JKOP

              2       6        9.31       200      700     1000      520     4202     5202
                                        OPTIONS   GEOM     BASIS   MCVARS     RHF     MCSCF

 PROGRAMS   *        TOTAL     MULTI       POP       RHF       INT
 CPU TIMES  *        74.36      3.00      0.00      2.06     68.61
 REAL TIME  *        88.25 SEC
 DISK USED  *         4.60 GB
 SF USED    *        59.02 MB
 GA USED    *         0.00 MB       (max)       0.00 MB       (current)
 **********************************************************************************************************************************
   -->
   <time start="12:17:39" end="12:17:42" cpu="3.07" system="0.24" real="3.36"/>
   <storage units="megabyte" memory="8001.84" sf="59.02" df="332.82" eaf="4267.27" ga="0.0"/>
  </jobstep><!--
  --><jobstep command="RHF-SCF" commandset="SCFPRO">
   <!--


 PROGRAM * RHF-SCF (OPEN SHELL)       Authors: W. Meyer, H.-J. Werner


 NUMBER OF ELECTRONS:      11+   10-    SPACE SYMMETRY=5    SPIN SYMMETRY: Doublet
 CONVERGENCE THRESHOLDS:    1.00E-05 (Density)    1.00E-07 (Energy)
 MAX. NUMBER OF ITERATIONS:        0
 INTERPOLATION TYPE:            DIIS
 INTERPOLATION STEPS:              2 (START)      1 (STEP)
 LEVEL SHIFTS:                 -0.60 (CLOSED) -0.30 (OPEN)

 Number of closed-shell orbitals:   10 (   1   3   3   0   2   0   0   1 )
 Number of open-shell orbitals:      1 (   0   0   0   0   1   0   0   0 )


 Molecular orbitals read from record     5202.2  Type=MCSCF/NATURAL (state averaged)

 Molecular orbital dump at record        2126.2

 ITERATION    DDIFF          GRAD             ENERGY        2-EL.EN.            DIPOLE MOMENTS         DIIS   ORB.
    1      0.000D+00      0.000D+00      -206.36963474    315.955303    0.00000    0.00000    0.00000    0    start

 Final alpha occupancy:   1   3   3   0   3   0   0   1
 Final beta  occupancy:   1   3   3   0   2   0   0   1

 !RHF STATE 1.5 Energy               -206.369634738601
   --><property name="Energy" method="RHF" principal="true" stateSymmetry="5" stateNumber="1"
     value="-206.369634738601"/><!--
 Nuclear energy                         0.00000000
 One-electron energy                 -364.34728637
 Two-electron energy                  157.97765163
 Virial quotient                       -1.17556406
 !RHF STATE 1.5 Dipole moment           0.00000000     0.00000000     0.00000000
 Dipole moment /Debye                   0.00000000     0.00000000     0.00000000
   --><property name="Dipole moment" method="RHF" principal="true" stateSymmetry="5"
     stateNumber="1" value="0.0 0.0 0.0"/><!--

 Orbital energies:

         1.1          2.1          3.1
     -4.207705    -1.335193    -1.335193

         1.2          2.2          3.2          4.2          5.2
     -1.740509    -1.740509    -3.020684    -0.841422    -0.486901

         1.3          2.3          3.3          4.3          5.3
     -1.740509    -1.740509    -3.020684    -0.841422    -0.486901

         1.4          2.4
     -1.335193    -0.579760

         1.5          2.5          3.5          4.5          5.5
     -1.740509    -1.740509    -3.020684    -0.841422    -0.486901

         1.6          2.6
     -1.335193    -0.579760

         1.7          2.7
     -1.335193    -0.579760

         1.8          2.8          3.8
     -1.740509    -0.486901    -0.310908

 HOMO      1.8    -1.740509 =     -47.3617eV
 LUMO      2.1    -1.335193 =     -36.3325eV
 LUMO-HOMO         0.405316 =      11.0292eV


 **********************************************************************************************************************************
 DATASETS  * FILE   NREC   LENGTH (MB)   RECORD NAMES
              1      20       36.12       500      610      700      900      950      970     1000      129      960     1100
                                          VAR    BASINP    GEOM    SYMINP    ZMAT    AOBASIS   BASIS     P2S    ABASIS      S
                                         1400     1410     1420     1200     1210     1080     1600     1650     1700     1380
                                           T        V       ECP      H0       H01     AOSYM     SMH    MOLCAS    OPER     JKOP

              2       7       12.78       200      700     1000      520     4202     5202     2126
                                        OPTIONS   GEOM     BASIS   MCVARS     RHF     MCSCF     RHF

 PROGRAMS   *        TOTAL       RHF     MULTI       POP       RHF       INT
 CPU TIMES  *        74.48      0.11      3.00      0.00      2.06     68.61
 REAL TIME  *        88.40 SEC
 DISK USED  *         4.60 GB
 SF USED    *        59.02 MB
 GA USED    *         0.00 MB       (max)       0.00 MB       (current)
 **********************************************************************************************************************************
   -->
   <time start="12:17:42" end="12:17:42" cpu="0.12" system="0.03" real="0.15"/>
   <storage units="megabyte" memory="8001.84" sf="59.02" df="332.82" eaf="4267.27" ga="0.0"/>
  </jobstep><!--
 SETTING SCF(12)        =      -206.36963474  AU
 SETTING _CC_NORM_MAX   =         2.00000000
  --><jobstep command="RCCSD(T)" commandset="CCSD">
   <!--


 PROGRAM * CCSD (Restricted open-shell coupled cluster)     Authors: C. Hampel, H.-J. Werner, 1991, M. Deegan, P.J. Knowles, 1992


 Convergence thresholds:  THRVAR = 1.00D-08  THRDEN = 1.00D-06

 CCSD(T)     terms to be evaluated (factor= 1.000)


 Number of closed-shell orbitals:  10 (   1   3   3   0   2   0   0   1 )
 Number of active  orbitals:        1 (   0   0   0   0   1   0   0   0 )
 Number of external orbitals:     369 (  84  59  59  30  59  30  30  18 )

 Memory could be reduced to 123.02 Mwords without degradation in triples

 Number of N-1 electron functions:              21
 Number of N-2 electron functions:             210
 Number of singly external CSFs:              1212
 Number of doubly external CSFs:           2764617
 Total number of CSFs:                     2765829

 Molecular orbitals read from record     2126.2  Type=RHF/CANONICAL (state 1.5)

 Integral transformation finished. Total CPU:   3.21 sec, npass=  1  Memory used:  23.06 MW

 Starting RMP2 calculation

 Wavefunction is spin-projected

 ITER.      SQ.NORM     CORR.ENERGY   TOTAL ENERGY   ENERGY CHANGE        DEN1      VAR(S)    VAR(P)  DIIS     TIME
   1      1.67996843    -2.42857113  -208.79820587    -2.42857113    -0.04759793  0.27D-04  0.29D-01  1  1     4.50
   2      1.78350955    -2.48696679  -208.85660153    -0.05839566    -0.00239460  0.22D-05  0.22D-02  2  2     5.28
   3      1.82079700    -2.49870491  -208.86833965    -0.01173812    -0.00028209  0.16D-04  0.45D-03  3  3     5.70
   4      1.83185629    -2.49973001  -208.86936475    -0.00102510    -0.00008412  0.18D-03  0.22D-03  4  4     6.46
   5      1.83867456    -2.50021192  -208.86984666    -0.00048191    -0.00006102  0.60D-04  0.12D-03  5  5     8.48
   6      1.85814123    -2.50127420  -208.87090894    -0.00106228    -0.00000583  0.16D-07  0.90D-05  6  6     9.97
   7      1.85969495    -2.50133752  -208.87097226    -0.00006332    -0.00000328  0.79D-09  0.54D-05  6  1    12.99
   8      1.86107591    -2.50135804  -208.87099278    -0.00002051    -0.00000068  0.25D-09  0.10D-05  6  2    14.59
   9      1.86160017    -2.50136516  -208.87099990    -0.00000713    -0.00000017  0.12D-10  0.27D-06  6  3    15.77
  10      1.86177906    -2.50137814  -208.87101288    -0.00001297    -0.00000008  0.45D-08  0.14D-06  6  5    17.85
  11      1.86181503    -2.50138545  -208.87102019    -0.00000731    -0.00000003  0.47D-07  0.78D-07  6  6    18.80
  12      1.86181776    -2.50138827  -208.87102301    -0.00000282    -0.00000003  0.54D-08  0.50D-07  6  4    21.07
  13      1.86180340    -2.50138645  -208.87102119     0.00000182    -0.00000001  0.16D-10  0.18D-07  6  1    23.23
  14      1.86182323    -2.50138281  -208.87101754     0.00000364    -0.00000001  0.44D-11  0.88D-08  6  2    25.99
  15      1.86188827    -2.50138494  -208.87101968    -0.00000213    -0.00000000  0.76D-12  0.31D-08  6  3    27.16
  16      1.86193910    -2.50138913  -208.87102387    -0.00000419    -0.00000000  0.12D-12  0.13D-08  6  5    28.98
  17      1.86195459    -2.50139006  -208.87102480    -0.00000093    -0.00000000  0.51D-11  0.65D-09  6  6    30.80

 Norm of t1 vector:      0.04071027      S-energy:    -0.00659440      T1 diagnostic:  0.00391294
 Norm of t2 vector:      0.92752211      P-energy:    -2.49479566
                                         Alpha-Beta:  -1.66211321
                                         Alpha-Alpha: -0.42851563
                                         Beta-Beta:   -0.40416682

 Spin contamination <S**2-Sz**2-Sz>     0.00000000
  Reference energy                   -206.369634738602
   --><property name="energy" method="Reference" stateSymmetry="1" stateNumber="1"
     value="-206.369634738602"/><!--
  RHF-RMP2 correlation energy          -2.501390056891
   --><property name="energy" method="RHF-RMP2 correlation" stateSymmetry="1" stateNumber="1"
     value="-2.50139005689076"/><!--
 !RHF-RMP2 energy                    -208.871024795493
   --><property name="energy" method="RHF-RMP2" principal="true" stateSymmetry="5"
     stateNumber="1" value="-208.871024795493"/><!--
 (NB above energy spin projected)

 Starting RCCSD calculation

 ITER.      SQ.NORM     CORR.ENERGY   TOTAL ENERGY   ENERGY CHANGE        DEN1      VAR(S)    VAR(P)  DIIS     TIME
   1      1.25180387    -1.56115628  -207.93079101    -1.56115628    -0.28057520  0.15D-02  0.65D-01  0  0    36.97
   2      1.40171201    -1.84090809  -208.21054283    -0.27975182    -0.05187258  0.53D-03  0.23D-01  0  0    40.34
   3      1.42973191    -1.74792955  -208.11756429     0.09297855    -0.01607550  0.26D-03  0.14D-01  1  1    43.65
   4      1.52111516    -1.78220803  -208.15184277    -0.03427848    -0.01240544  0.13D-03  0.18D-01  2  2    48.15
   5      1.39329230    -1.77351984  -208.14315458     0.00868819    -0.00602703  0.39D-02  0.89D-02  3  3    52.15
   6      1.35227043    -1.76921815  -208.13885289     0.00430169    -0.00444400  0.72D-03  0.48D-02  4  4    57.60
   7      1.37763353    -1.77046900  -208.14010373    -0.00125084    -0.00223056  0.13D-04  0.23D-02  5  5    62.40
   8      1.42354628    -1.77457819  -208.14421293    -0.00410920    -0.00210976  0.24D-05  0.30D-02  6  6    69.88
   9      1.40989009    -1.77384032  -208.14347506     0.00073787    -0.00179160  0.28D-05  0.24D-02  7  7    77.45
  10      1.41657144    -1.77481586  -208.14445060    -0.00097554    -0.00083288  0.80D-05  0.11D-02  8  8    83.57
  11      1.43056885    -1.77644506  -208.14607980    -0.00162920    -0.00076544  0.19D-05  0.11D-02  9  9    90.71
  12      1.42841295    -1.77604030  -208.14567504     0.00040476    -0.00055293  0.12D-04  0.75D-03 10 10    97.59
  13      1.43113380    -1.77607963  -208.14571437    -0.00003933    -0.00020436  0.15D-04  0.24D-03 11 11   102.81
  14      1.43591934    -1.77625564  -208.14589038    -0.00017601    -0.00022924  0.73D-06  0.30D-03 12 12   112.50
  15      1.43603551    -1.77594299  -208.14557773     0.00031265    -0.00014347  0.33D-05  0.15D-03 13 13   119.58
  16      1.44486275    -1.77601507  -208.14564981    -0.00007209    -0.00007970  0.45D-05  0.78D-04 14 14   126.57
  17      1.44997109    -1.77606698  -208.14570172    -0.00005191    -0.00004704  0.32D-05  0.49D-04 15 15   134.87
  18      1.45181249    -1.77620047  -208.14583521    -0.00013349    -0.00004573  0.13D-05  0.56D-04 15  4   142.81
  19      1.45187939    -1.77618931  -208.14582405     0.00001116    -0.00004064  0.69D-05  0.50D-04 15  1   150.52
  20      1.45275173    -1.77621614  -208.14585088    -0.00002683    -0.00003183  0.16D-05  0.33D-04 15  2   159.16
  21      1.45721975    -1.77638232  -208.14601706    -0.00016618    -0.00001350  0.10D-06  0.12D-04 15  3   170.71
  22      1.46069623    -1.77646883  -208.14610357    -0.00008651    -0.00000768  0.24D-06  0.93D-05 15 12   180.31
  23      1.46131926    -1.77649704  -208.14613178    -0.00002821    -0.00000919  0.71D-07  0.13D-04 15 11   190.90
  24      1.46211193    -1.77649063  -208.14612537     0.00000641    -0.00000432  0.16D-06  0.51D-05 15  5   199.58
  25      1.46411558    -1.77637114  -208.14600588     0.00011949    -0.00000166  0.11D-06  0.19D-05 15  9   209.04
  26      1.46436775    -1.77638239  -208.14601713    -0.00001125    -0.00000131  0.49D-08  0.16D-05 15  6   217.30
  27      1.46449073    -1.77638189  -208.14601663     0.00000050    -0.00000139  0.43D-08  0.18D-05 15  7   222.56
  28      1.46457432    -1.77637120  -208.14600594     0.00001069    -0.00000121  0.47D-08  0.16D-05 15 10   231.86
  29      1.46448456    -1.77636743  -208.14600217     0.00000377    -0.00000116  0.64D-08  0.14D-05 15  8   241.60
  30      1.46469044    -1.77635790  -208.14599264     0.00000954    -0.00000113  0.25D-07  0.15D-05 15 14   249.08
  31      1.46467603    -1.77636002  -208.14599476    -0.00000212    -0.00000113  0.26D-07  0.15D-05 15 13   261.07
  32      1.46498661    -1.77635710  -208.14599184     0.00000292    -0.00000124  0.64D-07  0.18D-05 15 15   268.47
  33      1.46457597    -1.77636996  -208.14600470    -0.00001286    -0.00000110  0.36D-07  0.17D-05 15  2   274.24
  34      1.46410818    -1.77639321  -208.14602794    -0.00002324    -0.00000086  0.13D-07  0.11D-05 15  5   283.60
  35      1.46410423    -1.77643203  -208.14606677    -0.00003882    -0.00000079  0.38D-07  0.11D-05 15  1   291.16
  36      1.46408206    -1.77643169  -208.14606643     0.00000034    -0.00000078  0.43D-07  0.10D-05 15  5   299.87
  37      1.46392591    -1.77643632  -208.14607106    -0.00000463    -0.00000075  0.24D-07  0.10D-05 15 12   307.29
  38      1.46397482    -1.77645658  -208.14609132    -0.00002026    -0.00000073  0.25D-07  0.96D-06 15  4   313.48
  39      1.46391819    -1.77644126  -208.14607600     0.00001533    -0.00000075  0.32D-07  0.99D-06 15  3   321.42
  40      1.46389837    -1.77644441  -208.14607915    -0.00000316    -0.00000076  0.29D-07  0.10D-05 15  9   333.04
  41      1.46394952    -1.77645178  -208.14608652    -0.00000737    -0.00000077  0.16D-07  0.10D-05 15 11   341.46
  42      1.46394980    -1.77645333  -208.14608807    -0.00000155    -0.00000064  0.37D-08  0.80D-06 15  7   350.32
  43      1.46398331    -1.77646847  -208.14610321    -0.00001514    -0.00000061  0.34D-07  0.81D-06 15  6   358.65
  44      1.46401760    -1.77646787  -208.14610261     0.00000061    -0.00000061  0.56D-07  0.82D-06 15  4   370.52
  45      1.46397923    -1.77648023  -208.14611497    -0.00001237    -0.00000060  0.13D-07  0.78D-06 15  3   376.24
  46      1.46390699    -1.77647793  -208.14611267     0.00000230    -0.00000074  0.65D-08  0.10D-05 15  8   388.23
  47      1.46385060    -1.77647756  -208.14611230     0.00000037    -0.00000073  0.61D-08  0.10D-05 15  2   400.41
  48      1.46406720    -1.77649313  -208.14612787    -0.00001557    -0.00000069  0.46D-07  0.10D-05 15  8   410.97
  49      1.46419097    -1.77646263  -208.14609737     0.00003050    -0.00000059  0.71D-08  0.76D-06 15 10   421.00
  50      1.46420840    -1.77646384  -208.14609857    -0.00000120    -0.00000060  0.75D-08  0.78D-06 15 14   430.29
  51      1.46426591    -1.77647924  -208.14611398    -0.00001540    -0.00000065  0.99D-08  0.89D-06 15 10   439.53
  52      1.46427719    -1.77647604  -208.14611078     0.00000320    -0.00000065  0.87D-08  0.88D-06 15 11   446.50
  53      1.46422634    -1.77646476  -208.14609950     0.00001128    -0.00000052  0.21D-08  0.64D-06 15  9   455.53
  54      1.46456752    -1.77645381  -208.14608855     0.00001095    -0.00000056  0.23D-07  0.78D-06 15 13   465.56
  55      1.46442871    -1.77646133  -208.14609607    -0.00000752    -0.00000052  0.16D-07  0.68D-06 15  1   472.94
  56      1.46446050    -1.77645429  -208.14608903     0.00000704    -0.00000051  0.97D-08  0.65D-06 15 15   482.24
  57      1.46453977    -1.77645116  -208.14608589     0.00000313    -0.00000052  0.10D-07  0.68D-06 15  1   487.66
  58      1.46454487    -1.77646224  -208.14609698    -0.00001108    -0.00000053  0.13D-07  0.71D-06 15 15   495.35
  59      1.46430747    -1.77647787  -208.14611261    -0.00001563    -0.00000048  0.29D-07  0.65D-06 15  3   506.52
  60      1.46432116    -1.77647411  -208.14610885     0.00000376    -0.00000053  0.28D-07  0.80D-06 15  4   515.98
  61      1.46442841    -1.77646592  -208.14610066     0.00000819    -0.00000047  0.54D-08  0.61D-06 15  3   522.14
  62      1.46464694    -1.77645942  -208.14609416     0.00000650    -0.00000051  0.11D-07  0.72D-06 15  4   529.54
  63      1.46381027    -1.77650561  -208.14614035    -0.00004619    -0.00000029  0.75D-08  0.34D-06 15  3   535.88
  64      1.46396763    -1.77649681  -208.14613155     0.00000880    -0.00000030  0.34D-08  0.41D-06 15  4   541.53
  65      1.46396232    -1.77648484  -208.14611957     0.00001198    -0.00000024  0.34D-08  0.29D-06 15  3   547.03
  66      1.46399947    -1.77650274  -208.14613748    -0.00001790    -0.00000022  0.10D-07  0.30D-06 15  7   553.15
  67      1.46406578    -1.77649793  -208.14613267     0.00000481    -0.00000014  0.42D-08  0.17D-06 15  6   559.08
  68      1.46388530    -1.77651021  -208.14614495    -0.00001228    -0.00000015  0.14D-07  0.17D-06 15  1   568.91
  69      1.46393807    -1.77651212  -208.14614686    -0.00000191    -0.00000007  0.11D-07  0.65D-07 15  2   575.30
  70      1.46418735    -1.77651068  -208.14614542     0.00000144    -0.00000004  0.16D-08  0.33D-07 15  3   580.14
  71      1.46413183    -1.77653299  -208.14616773    -0.00002231    -0.00000003  0.89D-08  0.39D-07 15  7   589.60
  72      1.46425268    -1.77653684  -208.14617158    -0.00000385    -0.00000002  0.52D-08  0.33D-07 15  6   598.69
  73      1.46427780    -1.77654578  -208.14618052    -0.00000893    -0.00000002  0.27D-08  0.37D-07 15  8   604.06
  74      1.46430741    -1.77654454  -208.14617928     0.00000124    -0.00000003  0.10D-08  0.39D-07 15 15   614.34
  75      1.46429166    -1.77654513  -208.14617987    -0.00000060    -0.00000002  0.17D-08  0.28D-07 15  3   619.39
  76      1.46430995    -1.77654517  -208.14617991    -0.00000004    -0.00000002  0.24D-09  0.26D-07 15 11   628.50
  77      1.46430155    -1.77654468  -208.14617942     0.00000049    -0.00000002  0.21D-09  0.23D-07 15  9   634.64
  78      1.46430903    -1.77654104  -208.14617578     0.00000364    -0.00000002  0.40D-09  0.22D-07 15 10   638.92
  79      1.46431088    -1.77654287  -208.14617761    -0.00000183    -0.00000002  0.13D-09  0.22D-07 15 13   644.49
  80      1.46429098    -1.77654202  -208.14617676     0.00000085    -0.00000002  0.13D-09  0.24D-07 15 14   654.16
  81      1.46430335    -1.77654344  -208.14617818    -0.00000142    -0.00000002  0.24D-09  0.26D-07 15  4   665.66
  82      1.46430997    -1.77654512  -208.14617985    -0.00000167    -0.00000002  0.18D-09  0.24D-07 15  1   676.64
  83      1.46430811    -1.77654498  -208.14617972     0.00000013    -0.00000002  0.14D-09  0.24D-07 15  2   681.40
  84      1.46429685    -1.77654441  -208.14617915     0.00000057    -0.00000002  0.54D-09  0.26D-07 15  6   690.59
  85      1.46429562    -1.77654575  -208.14618049    -0.00000134    -0.00000002  0.14D-09  0.24D-07 15 13   697.45
  86      1.46430167    -1.77654665  -208.14618139    -0.00000089    -0.00000002  0.15D-09  0.25D-07 15  7   705.69
  87      1.46431296    -1.77654654  -208.14618128     0.00000011    -0.00000002  0.22D-09  0.30D-07 15  8   713.19
  88      1.46428247    -1.77654690  -208.14618164    -0.00000036    -0.00000002  0.10D-09  0.27D-07 15 13   719.37
  89      1.46428046    -1.77654779  -208.14618253    -0.00000089    -0.00000002  0.19D-09  0.28D-07 15  6   726.76
  90      1.46430807    -1.77654500  -208.14617974     0.00000279    -0.00000002  0.23D-09  0.27D-07 15 13   737.56
  91      1.46430307    -1.77654608  -208.14618082    -0.00000108    -0.00000002  0.12D-09  0.26D-07 15  8   746.03
  92      1.46450903    -1.77654982  -208.14618456    -0.00000374    -0.00000001  0.18D-09  0.12D-07 15 10   752.62
  93      1.46450106    -1.77655239  -208.14618713    -0.00000256    -0.00000001  0.17D-09  0.12D-07 15  3   759.63
  94      1.46451020    -1.77655262  -208.14618736    -0.00000023    -0.00000001  0.52D-09  0.12D-07 15 15   768.34
  95      1.46450310    -1.77655033  -208.14618507     0.00000229    -0.00000001  0.13D-09  0.12D-07 15  3   777.69
  96      1.46450134    -1.77655226  -208.14618700    -0.00000193    -0.00000001  0.23D-09  0.12D-07 15 15   782.58
  97      1.46451068    -1.77655250  -208.14618723    -0.00000024    -0.00000001  0.52D-09  0.12D-07 15  3   788.80
  98      1.46451381    -1.77655115  -208.14618589     0.00000134    -0.00000001  0.54D-10  0.11D-07 15 11   793.28
  99      1.46457813    -1.77654942  -208.14618416     0.00000174    -0.00000001  0.38D-09  0.87D-08 15  9   797.89

 Norm of t1 vector:      0.05486818      S-energy:    -0.00614831      T1 diagnostic:  0.00723830
                                                                       D1 diagnostic:  0.01441669
 Norm of t2 vector:      0.67938767      P-energy:    -1.77040111
                                         Alpha-Beta:  -1.29410485
                                         Alpha-Alpha: -0.24832223
                                         Beta-Beta:   -0.22797403

 Doubles amplitudes (print threshold =  0.500E-01):

         I         J         SYM. A    SYM. B    A         B      T(IJ, AB) [Alpha-Beta]

         2         2         1         1         2         2     -0.06834480
         2         2         4         4         1         1     -0.06834480
         3         3         1         1         1         1     -0.05303737
         3         3         5         5         2         1     -0.07238073
         3         3         6         6         1         1     -0.07262566
         5         5         1         1         2         2     -0.06834480
         5         5         4         4         1         1     -0.06834480
         6         6         1         1         1         1     -0.05303738
         6         6         5         5         2         1     -0.07238077
         6         6         7         7         1         1     -0.07262568
         8         8         1         1         1         1     -0.08415815
         8         8         5         5         2         1     -0.07651624
         9         9         1         1         2         2     -0.05766733
         9         9         5         5         2         1     -0.05894587
         9         9         6         6         1         1     -0.05450658
         9         9         7         7         1         1     -0.05450674
        11        11         4         4         1         1     -0.05766733
        11        11         5         5         2         1     -0.05894590
        11        11         6         6         1         1     -0.05450666
        11        11         7         7         1         1     -0.05450666

 ?CONVERGENCE NOT REACHED AFTER MAX. ITERATIONS

 ?ERROR: NO CONVERGENCE. TRIPLES WILL NOT BE DONE. THIS CAN BE AVOIDED USING THE NOCHECK OPTION.

 Spin contamination <S**2-Sz**2-Sz>     0.00000000


 RESULTS
 =======

  Reference energy                   -206.369634738602
   --><property name="energy" method="Reference" stateSymmetry="1" stateNumber="1"
     value="-206.369634738602"/><!--
  RCCSD singles energy                 -0.006148309025
   --><property name="energy" method="RCCSD singles" stateSymmetry="1" stateNumber="1"
     value="-0.614830902466301E-02"/><!--
  RCCSD pair energy                    -1.770401108661
   --><property name="energy" method="RCCSD pair" stateSymmetry="1" stateNumber="1"
     value="-1.77040110866086"/><!--
  RCCSD correlation energy             -1.776549417686
   --><property name="energy" method="RCCSD correlation" stateSymmetry="1" stateNumber="1"
     value="-1.77654941768552"/><!--

 !RHF-RCCSD energy                   -208.146184156287
   --><property name="energy" method="RHF-RCCSD" principal="true" stateSymmetry="1"
     stateNumber="1" value="-208.146184156287"/><!--

 Program statistics:

 Available memory in ccsd:               999998822
 Min. memory needed in ccsd:               8032919
 Max. memory used in ccsd:                11444055
 Max. memory used in cckext:               8802693 (99 integral passes)
 Max. memory used in cckint:              23063133 ( 1 integral passes)


 ? Error
 ? No convergence. This error exit can be avoided using the NOCHECK option
 ? The problem occurs in ccsd
   --><error type="Error" location="ccsd"
     message="No convergence. This error exit can be avoided using the NOCHECK option"/><!--
  --></jobstep><!--
  -->
  <input>
  <!--
 --></job><!--
--></molpro>
