<?xml version="1.0"?>
<molpro xmlns="http://www.molpro.net/schema/molpro-output"
  xmlns:xsd="http://www.w3.org/1999/XMLSchema"
  xmlns:cml="http://www.xml-cml.org/schema"
  xmlns:stm="http://www.xml-cml.org/schema"
  xmlns:xhtml="http://www.w3.org/1999/xhtml">
 <!--

 Nodes     nprocs
 nid01513    11
 Number of processes for MPI-2 version of Molpro:   nprocs(total)=   12   nprocs(compute)=   11   nprocs(helper)=    1

 Using customized tuning parameters: mindgm=7; mindgv=16; mindgc=1; mindgr=1; noblas=0; minvec=7
 default implementation of scratch files=sf

 --><job>
  <!--

 Variables initialized (889), CPU time= 0.06 sec
 Commands  initialized (702), CPU time= 0.03 sec, 572 directives.
 Default parameters read. Elapsed time= 0.13 sec

 Checking input...
 Passed
1


                                         ***  PROGRAM SYSTEM MOLPRO  ***
                                       Copyright, TTI GmbH Stuttgart, 2015
                                    Version 2015.1 linked Dec 29 2018 15:55:43


 **********************************************************************************************************************************
 LABEL *   Calculation for Y atom, singlet and triplet
  64 bit mpp version                                                                     DATE: 14-May-23          TIME: 05:34:33
 **********************************************************************************************************************************

 SHA1:             19cd028119e0e09f93f0674bd8af7968d9b3eff6
 **********************************************************************************************************************************
  -->
  <!--

 THRESHOLDS:

 ZERO    =  1.00D-12  ONEINT  =  1.00D-12  TWOINT  =  1.00D-15  PREFAC  =  1.00D-14  LOCALI  =  1.00D-09  EORDER  =  1.00D-04
 ENERGY  =  0.00D+00  ETEST   =  0.00D+00  EDENS   =  0.00D+00  THRDEDEF=  1.00D-06  GRADIENT=  1.00D-02  STEP    =  1.00D-03
 ORBITAL =  1.00D-05  CIVEC   =  1.00D-05  COEFF   =  1.00D-04  PRINTCI =  5.00D-02  PUNCHCI =  9.90D+01  OPTGRAD =  3.00D-04
 OPTENERG=  1.00D-06  OPTSTEP =  3.00D-04  THRGRAD =  1.00D-10  COMPRESS=  1.00D-11  VARMIN  =  1.00D-07  VARMAX  =  1.00D-03
 THRDOUB =  0.00D+00  THRDIV  =  1.00D-05  THRRED  =  1.00D-07  THRPSP  =  1.00D+00  THRDC   =  1.00D-10  THRCS   =  1.00D-10
 THRNRM  =  1.00D-08  THREQ   =  0.00D+00  THRDE   =  1.00D+00  THRREF  =  1.00D-05  SPARFAC =  1.00D+00  THRDLP  =  1.00D-07
 THRDIA  =  1.00D-10  THRDLS  =  1.00D-07  THRGPS  =  0.00D+00  THRKEX  =  0.00D+00  THRDIS  =  2.00D-01  THRVAR  =  1.00D-10
 THRLOC  =  1.00D-06  THRGAP  =  1.00D-06  THRLOCT = -1.00D+00  THRGAPT = -1.00D+00  THRORB  =  1.00D-06  THRMLTP =  0.00D+00
 THRCPQCI=  1.00D-10  KEXTA   =  0.00D+00  THRCOARS=  0.00D+00  SYMTOL  =  1.00D-06  GRADTOL =  1.00D-06  THROVL  =  1.00D-08
 THRORTH =  1.00D-08  GRID    =  1.00D-06  GRIDMAX =  1.00D-03  DTMAX   =  0.00D+00  THROCCDE=  1.00D-01  THROCCDE=  1.00D-01



 THRESHOLDS:

 ZERO    =  1.00D-12  ONEINT  =  1.00D-12  TWOINT  =  1.00D-15  PREFAC  =  1.00D-14  LOCALI  =  1.00D-09  EORDER  =  1.00D-04
 ENERGY  =  0.00D+00  ETEST   =  0.00D+00  EDENS   =  0.00D+00  THRDEDEF=  1.00D-06  GRADIENT=  1.00D-02  STEP    =  1.00D-03
 ORBITAL =  1.00D-05  CIVEC   =  1.00D-05  COEFF   =  1.00D-04  PRINTCI =  5.00D-02  PUNCHCI =  9.90D+01  OPTGRAD =  3.00D-04
 OPTENERG=  1.00D-06  OPTSTEP =  3.00D-04  THRGRAD =  1.00D-10  COMPRESS=  1.00D-11  VARMIN  =  1.00D-07  VARMAX  =  1.00D-03
 THRDOUB =  0.00D+00  THRDIV  =  1.00D-05  THRRED  =  1.00D-07  THRPSP  =  1.00D+00  THRDC   =  1.00D-10  THRCS   =  1.00D-10
 THRNRM  =  1.00D-08  THREQ   =  0.00D+00  THRDE   =  1.00D+00  THRREF  =  1.00D-05  SPARFAC =  1.00D+00  THRDLP  =  1.00D-07
 THRDIA  =  1.00D-10  THRDLS  =  1.00D-07  THRGPS  =  0.00D+00  THRKEX  =  0.00D+00  THRDIS  =  2.00D-01  THRVAR  =  1.00D-10
 THRLOC  =  1.00D-06  THRGAP  =  1.00D-06  THRLOCT = -1.00D+00  THRGAPT = -1.00D+00  THRORB  =  1.00D-06  THRMLTP =  0.00D+00
 THRCPQCI=  1.00D-10  KEXTA   =  0.00D+00  THRCOARS=  0.00D+00  SYMTOL  =  1.00D-06  GRADTOL =  1.00D-06  THROVL  =  1.00D-15
 THRORTH =  1.00D-08  GRID    =  1.00D-06  GRIDMAX =  1.00D-03  DTMAX   =  0.00D+00  THROCCDE=  1.00D-01  THROCCDE=  1.00D-01



 Variable memory set to 1000000000 words,  buffer space   230000 words

 SETTING BASIS          =    USERDEF
 SETTING LU_CCSD        =       -40.04313588
 SETTING O_CCSD         =       -15.86622096
 SETTING NE             =        17.00000000
 SETTING SYMM           =         1.00000000
 SETTING SS             =         1.00000000
 SETTING A1             =         5.00000000
 SETTING B1             =         2.00000000
 SETTING B2             =         2.00000000
 SETTING A2             =     0.00000000D+00

Geometry recognized as XYZ

  --><jobstep command="RHF-SCF" commandset="SCFPRO">
   <!--


 Recomputing integrals since basis changed


 Using spherical harmonics



 PROGRAM * SEWARD (Integral evaluation for generally contracted gaussian basis sets)     Author: Roland Lindh, 1990

 Geometry written to block  1 of record 700


 Point group  C2v


   --><cml:molecule>
    <cml:symmetry pointGroup="C2v"/>
    <cml:atomArray>
     <cml:atom id="a1" elementType="Lu" x3="0.0" y3="0.0" z3="0.0"/>
     <cml:atom id="a2" elementType="O" x3="0.0" y3="0.0" z3="2.3"/>
    </cml:atomArray>
    <cml:bondArray>
     <cml:bond atomRefs2="a1 a2"/>
    </cml:bondArray>
   </cml:molecule><!--

 ATOMIC COORDINATES

 NR  ATOM    CHARGE       X              Y              Z

   1  LU     11.00    0.000000000    0.000000000    0.000000000
   2  O       6.00    0.000000000    0.000000000    4.346370086

 Bond lengths in Bohr (Angstrom)

 1-2  4.346370086
     ( 2.300000000)

 NUCLEAR CHARGE:                   17
 NUMBER OF PRIMITIVE AOS:         584
 NUMBER OF SYMMETRY AOS:          451
 NUMBER OF CONTRACTIONS:          451   ( 180A1  + 108B1  + 108B2  +  55A2  )
 NUMBER OF CORE ORBITALS:           0   (   0A1  +   0B1  +   0B2  +   0A2  )
 NUMBER OF VALENCE ORBITALS:       14   (   7A1  +   3B1  +   3B2  +   1A2  )


 NUCLEAR REPULSION ENERGY   15.18508518

 EXTRA SYMMETRY OF AOS IN SYMMETRY 1:   1 1 1 1 1 1 1 1 1 1   1 1 1 1 1 1 1 1 1 1   1 1 1 1 1 1 1 1 1 1   1 1 1 1 1 1 1 1 1 1
                                        1 1 1 1 1 1 1 1 1 1   1 1 1 1 1 1 1 1 1 2   1 2 1 2 1 2 1 2 1 2   1 2 1 2 1 2 1 2 1 2
                                        1 2 1 2 1 2 1 2 1 2   1 2 1 2 1 2 1 2 1 2   1 2 1 2 1 2 1 2 1 2   1 2 1 2 1 2 1 2 1 2
                                        1 3 2 1 3 2 1 3 2 1   3 2 1 3 2 1 3 2 2 3   1 2 3 1 2 3 1 1 1 1   1 1 1 1 1 1 1 1 1 1
                                        1 1 1 1 1 1 1 1 1 2   1 2 1 2 1 2 1 2 1 2
 EXTRA SYMMETRY OF AOS IN SYMMETRY 2:   1 1 1 1 1 1 1 1 1 1   1 1 1 1 1 1 1 1 1 1   1 1 1 1 1 1 1 1 1 1   1 1 1 1 1 1 1 1 1 1
                                        1 1 1 1 1 1 2 1 2 1   2 1 2 1 2 1 2 1 2 1   2 1 2 1 2 1 2 1 2 1   2 1 2 1 2 1 2 1 2 1
                                        2 1 2 1 2 3 1 2 3 1   2 3 1 1 1 1 1 1 1 1   1 1 1 1 1 2 1 2
 EXTRA SYMMETRY OF AOS IN SYMMETRY 3:   1 1 1 1 1 1 1 1 1 1   1 1 1 1 1 1 1 1 1 1   1 1 1 1 1 1 1 1 1 1   1 1 1 1 1 1 1 1 1 1
                                        1 1 1 1 1 1 2 1 2 1   2 1 2 1 2 1 2 1 2 1   2 1 2 1 2 1 2 1 2 1   2 1 2 1 2 1 2 1 2 1
                                        2 1 2 1 2 3 1 2 3 1   2 3 1 1 1 1 1 1 1 1   1 1 1 1 1 2 1 2
 EXTRA SYMMETRY OF AOS IN SYMMETRY 4:   1 1 1 1 1 1 1 1 1 1   1 1 1 1 1 1 1 1 1 1   1 1 1 1 1 1 1 1 1 1   1 1 2 1 2 1 2 1 2 1
                                        2 1 2 2 1 2 1 2 1 1   1 1 1 1 1

 Eigenvalues of metric

         1 0.863E-05 0.121E-04 0.369E-04 0.478E-04 0.678E-04 0.747E-04 0.105E-03 0.186E-03
         2 0.122E-04 0.175E-04 0.105E-03 0.490E-03 0.644E-03 0.156E-02 0.220E-02 0.335E-02
         3 0.122E-04 0.175E-04 0.105E-03 0.490E-03 0.644E-03 0.156E-02 0.220E-02 0.335E-02
         4 0.701E-03 0.220E-02 0.838E-02 0.144E-01 0.215E-01 0.328E-01 0.344E-01 0.520E-01


 Contracted 2-electron integrals neglected if value below      1.0D-15
 AO integral compression algorithm  1   Integral accuracy      1.0D-15

     3558.343 MB (compressed) written to integral file ( 32.4%)

     Node minimum: 285.737 MB, node maximum: 407.110 MB


 NUMBER OF SORTED TWO-ELECTRON INTEGRALS:  120345949.     BUFFER LENGTH:  32768
 NUMBER OF SEGMENTS:   4  SEGMENT LENGTH:   31993849      RECORD LENGTH: 524288

 Memory used in sort:      32.55 MW

 SORT1 READ  1374547738. AND WROTE    41189655. INTEGRALS IN    120 RECORDS. CPU TIME:    22.54 SEC, REAL TIME:    34.04 SEC
 SORT2 READ   446856433. AND WROTE  1323827515. INTEGRALS IN  12045 RECORDS. CPU TIME:     1.87 SEC, REAL TIME:     2.95 SEC

 Node minimum:   120327112.  Node maximum:   120451591. integrals

 OPERATOR DM      FOR CENTER  0  COORDINATES:    0.000000    0.000000    0.000000


 **********************************************************************************************************************************
 DATASETS  * FILE   NREC   LENGTH (MB)   RECORD NAMES
              1      19       22.40       500      610      700      900      950      970     1000      129      960     1100
                                          VAR    BASINP    GEOM    SYMINP    ZMAT    AOBASIS   BASIS     P2S    ABASIS      S
                                         1400     1410     1420     1200     1210     1080     1600     1650     1700
                                           T        V       ECP      H0       H01     AOSYM     SMH    MOLCAS    OPER

 PROGRAMS   *        TOTAL       INT
 CPU TIMES  *        86.14     85.45
 REAL TIME  *        99.96 SEC
 DISK USED  *         8.87 GB
 GA USED    *         0.00 MB       (max)       0.00 MB       (current)
 **********************************************************************************************************************************


 PROGRAM * RHF-SCF (CLOSED SHELL)       Authors: W. Meyer, H.-J. Werner


 NUMBER OF ELECTRONS:       8+    8-    SPACE SYMMETRY=1    SPIN SYMMETRY: Singlet
 CONVERGENCE THRESHOLDS:    1.00E-05 (Density)    1.00E-07 (Energy)
 MAX. NUMBER OF ITERATIONS:      200
 INTERPOLATION TYPE:            DIIS
 INTERPOLATION STEPS:              2 (START)      1 (STEP)
 LEVEL SHIFTS:                  0.00 (CLOSED)  0.00 (OPEN)

 Number of closed-shell orbitals:    8 (   4   2   2   0 )


 Orbital guess generated from atomic densities. Full valence occupancy:    7   3   3   1

 Molecular orbital dump at record        2202.2

 ITERATION    DDIFF          GRAD             ENERGY        2-EL.EN.            DIPOLE MOMENTS         DIIS   ORB.
    1      0.000D+00      0.000D+00       -54.78966911    101.220053    0.00000    0.00000   -7.82777    0    start
    2      0.000D+00      0.155D-01       -48.68008458     92.603708    0.00000    0.00000   23.40824    1    diag
    3      0.177D-01      0.493D-01       -55.09480023     98.743711    0.00000    0.00000   -6.03317    2    diag
    4      0.160D-01      0.538D-02       -55.14352276     98.007081    0.00000    0.00000   -4.73738    3    diag
    5      0.280D-02      0.205D-02       -55.15067565     97.581697    0.00000    0.00000   -4.15068    4    diag
    6      0.106D-02      0.416D-03       -55.15190057     97.460350    0.00000    0.00000   -3.97552    5    diag
    7      0.594D-03      0.450D-03       -55.15286781     97.406954    0.00000    0.00000   -3.88371    6    diag
    8      0.460D-03      0.443D-03       -55.15609984     97.147188    0.00000    0.00000   -3.43465    7    diag
    9      0.186D-02      0.365D-03       -55.15727572     96.969115    0.00000    0.00000   -3.10446    8    diag
   10      0.119D-02      0.197D-03       -55.15734775     97.011479    0.00000    0.00000   -3.17156    9    orth
   11      0.274D-03      0.104D-03       -55.15744114     96.907051    0.00000    0.00000   -3.00042    9    diag
   12      0.507D-03      0.501D-04       -55.15744788     96.924270    0.00000    0.00000   -3.03293    9    diag
   13      0.644D-04      0.624D-05       -55.15744900     96.915463    0.00000    0.00000   -3.02098    9    diag
   14      0.407D-04      0.275D-05       -55.15744905     96.914310    0.00000    0.00000   -3.01962    9    diag
   15      0.707D-05      0.435D-06       -55.15744905     96.914380    0.00000    0.00000   -3.01960    0    orth

 Final occupancy:   4   2   2   0

 !RHF STATE 1.1 Energy                -55.157449053770
   --><property name="Energy" method="RHF" principal="true" stateSymmetry="1" stateNumber="1"
     value="-55.1574490537704"/><!--
 Nuclear energy                        15.18508518
 One-electron energy                 -118.79972440
 Two-electron energy                   48.45719016
 Virial quotient                       -2.30402228
 !RHF STATE 1.1 Dipole moment           0.00000000     0.00000000    -3.01960411
 Dipole moment /Debye                   0.00000000     0.00000000    -7.67456542
   --><property name="Dipole moment" method="RHF" principal="true" stateSymmetry="1"
     stateNumber="1" value="0.0 0.0 -3.01960411075788"/><!--

 ELECTRON ORBITALS
 =================


   Orb  Occ    Energy  Couls-En    Coefficients

                                   1 1s      1 1s      1 1s      1 1s      1 1s      1 1s      1 1s      1 1s      1 1s      1 1s
                                   1 1s      1 1s      1 1s      1 1s      1 1s      1 1s      1 1s      1 1s      1 1s      1 1s
                                   1 1s      1 1s      1 1s      1 1s      1 1s      1 1s      1 1s      1 1s      1 1s      1 1s
                                   1 1s      1 2pz     1 2pz     1 2pz     1 2pz     1 2pz     1 2pz     1 2pz     1 2pz     1 2pz
                                   1 2pz     1 2pz     1 2pz     1 2pz     1 2pz     1 2pz     1 2pz     1 2pz     1 2pz     1 2pz
                                   1 2pz     1 2pz     1 2pz     1 2pz     1 2pz     1 2pz     1 2pz     1 2pz     1 3d0     1 3d2+
                                   1 3d0     1 3d2+    1 3d0     1 3d2+    1 3d0     1 3d2+    1 3d0     1 3d2+    1 3d0     1 3d2+
                                   1 3d0     1 3d2+    1 3d0     1 3d2+    1 3d0     1 3d2+    1 3d0     1 3d2+    1 3d0     1 3d2+
                                   1 3d0     1 3d2+    1 3d0     1 3d2+    1 3d0     1 3d2+    1 3d0     1 3d2+    1 3d0     1 3d2+
                                   1 3d0     1 3d2+    1 3d0     1 3d2+    1 4f0     1 4f2+    1 4f0     1 4f2+    1 4f0     1 4f2+
                                   1 4f0     1 4f2+    1 4f0     1 4f2+    1 4f0     1 4f2+    1 4f0     1 4f2+    1 4f0     1 4f2+
                                   1 4f0     1 4f2+    1 4f0     1 4f2+    1 4f0     1 4f2+    1 4f0     1 4f2+    1 4f0     1 4f2+
                                   1 5g0     1 5g4+    1 5g2+    1 5g0     1 5g4+    1 5g2+    1 5g0     1 5g4+    1 5g2+    1 5g0
                                   1 5g4+    1 5g2+    1 5g0     1 5g4+    1 5g2+    1 5g0     1 5g4+    1 5g2+    1 6h2+    1 6h4+
                                   1 6h0     1 6h2+    1 6h4+    1 6h0     1 6h2+    1 6h4+    1 6h0     2 1s      2 1s      2 1s
                                   2 1s      2 1s      2 1s      2 1s      2 1s      2 1s      2 1s      2 1s      2 1s      2 1s
                                   2 2pz     2 2pz     2 2pz     2 2pz     2 2pz     2 2pz     2 2pz     2 2pz     2 3d0     2 3d2+
                                   2 3d0     2 3d2+    2 3d0     2 3d2+    2 3d0     2 3d2+    2 4f0     2 4f2+    2 4f0     2 4f2+


   1.1   2    -2.9091  -12.2698  0.000000 -0.000000  0.000000 -0.000000  0.000000 -0.000000  0.000000 -0.000001  0.000004 -0.000009
                                 0.000023 -0.000055  0.000128 -0.000289  0.000624 -0.001300  0.002499 -0.004104  0.004872 -0.031595
                                 0.203071 -0.254661 -0.439496  0.253987  0.717079  0.381167 -0.022084  0.032456 -0.026018  0.018272
                                -0.005463 -0.000000  0.000000 -0.000000  0.000000 -0.000000  0.000000 -0.000000  0.000000 -0.000000
                                 0.000001 -0.000002  0.000004 -0.000011  0.000032 -0.000104  0.000711 -0.001508  0.001253  0.001219
                                -0.000317 -0.006060 -0.000843 -0.011017 -0.013307 -0.002955 -0.000583  0.013064 -0.000000 -0.000000
                                 0.000000  0.000000 -0.000000 -0.000000  0.000000  0.000000 -0.000002 -0.000000  0.000005  0.000000
                                -0.000012 -0.000000  0.000027  0.000000 -0.000049 -0.000000  0.000048  0.000000  0.000034 -0.000000
                                 0.000459  0.000000 -0.005348 -0.000000 -0.004446 -0.000000  0.000564  0.000000 -0.001447 -0.000000
                                 0.000865  0.000000  0.000070 -0.000000  0.000000 -0.000000 -0.000000  0.000000  0.000001 -0.000000
                                -0.000003  0.000000  0.000009  0.000000 -0.000021 -0.000000  0.000055 -0.000000 -0.000128 -0.000000
                                -0.000219 -0.000000 -0.000464 -0.000000 -0.000001  0.000000 -0.000051 -0.000000  0.000137  0.000000
                                 0.000002  0.000000  0.000000 -0.000007 -0.000000 -0.000000  0.000032 -0.000000  0.000000  0.000071
                                 0.000000  0.000000  0.000017 -0.000000 -0.000000  0.000078  0.000000  0.000000  0.000000  0.000000
                                -0.000000 -0.000000  0.000000  0.000001  0.000000 -0.000000  0.000045 -0.000000  0.000000 -0.000000
                                 0.000001 -0.000007  0.000219 -0.000282  0.000749  0.001165  0.001978  0.002709 -0.000294 -0.000360
                                -0.000029 -0.000253 -0.000614 -0.001139 -0.002117 -0.001279  0.000018  0.000008  0.000037  0.000000
                                 0.000552  0.000000  0.000943 -0.000000  0.000010 -0.000000 -0.000027 -0.000000 -0.000392  0.000000

   2.1   2    -1.6709   -9.7134  0.000000 -0.000000  0.000000 -0.000000  0.000000 -0.000000  0.000000 -0.000000  0.000000 -0.000000
                                 0.000000 -0.000001  0.000002 -0.000005  0.000011 -0.000023  0.000044 -0.000074  0.000092 -0.000723
                                 0.005084 -0.006617 -0.012530  0.008979  0.030609 -0.000182 -0.019598  0.003813 -0.021025 -0.005092
                                 0.004189  0.000000 -0.000000  0.000000 -0.000000  0.000000 -0.000000  0.000000 -0.000000  0.000001
                                -0.000003  0.000008 -0.000024  0.000069 -0.000237  0.001101 -0.015781  0.048508 -0.048840 -0.140180
                                 0.176081  0.524341 -0.014363  0.402147 -0.010384  0.070644 -0.018719  0.011237 -0.000000  0.000000
                                 0.000000 -0.000000 -0.000000  0.000000  0.000000 -0.000000 -0.000001  0.000000  0.000004 -0.000000
                                -0.000011  0.000000  0.000023 -0.000000 -0.000036  0.000000 -0.000021 -0.000000  0.000319  0.000000
                                 0.000139 -0.000000 -0.007574 -0.000000 -0.014051 -0.000000 -0.005376 -0.000000 -0.003483  0.000000
                                -0.005399 -0.000000  0.003559  0.000000 -0.000000 -0.000000  0.000000  0.000000 -0.000000 -0.000000
                                 0.000001  0.000000 -0.000003 -0.000000  0.000001  0.000000  0.000038 -0.000000  0.000094  0.000000
                                -0.003071 -0.000000 -0.001856  0.000000 -0.000811  0.000000 -0.002421 -0.000000  0.000848 -0.000000
                                -0.000001 -0.000000  0.000000  0.000007  0.000000 -0.000000 -0.000031 -0.000000  0.000000  0.000276
                                -0.000000  0.000000 -0.001084  0.000000 -0.000000  0.000395 -0.000000  0.000000 -0.000000 -0.000000
                                 0.000008 -0.000000 -0.000000 -0.000138  0.000000  0.000000  0.000420 -0.000000  0.000000 -0.000002
                                 0.000014 -0.000128  0.005018 -0.010094  0.016975  0.049635  0.036709  0.024796 -0.004406 -0.008051
                                -0.000326 -0.002768 -0.008389 -0.014635 -0.015054 -0.007740 -0.000095  0.000088  0.000477  0.000000
                                 0.003162  0.000000  0.003167  0.000000  0.000028 -0.000000 -0.000338  0.000000 -0.001258 -0.000000

   3.1   2    -1.3149   -8.6537 -0.000000  0.000000 -0.000000  0.000000 -0.000000  0.000000 -0.000000  0.000000 -0.000000  0.000000
                                -0.000001  0.000003 -0.000007  0.000015 -0.000033  0.000068 -0.000130  0.000211 -0.000247  0.001531
                                -0.009970  0.013695  0.019355 -0.011030 -0.048683 -0.032508  0.049941 -0.007399 -0.022516 -0.000963
                                 0.005870  0.000000 -0.000000  0.000000 -0.000000  0.000000 -0.000000  0.000000 -0.000000  0.000000
                                -0.000000  0.000000 -0.000000 -0.000000  0.000007 -0.000080  0.001931 -0.006637  0.007003  0.022269
                                -0.029861 -0.072687 -0.025811 -0.037912  0.056547 -0.012294 -0.025006 -0.049808 -0.000000  0.000000
                                 0.000000 -0.000000 -0.000000  0.000000  0.000002 -0.000000 -0.000005  0.000000  0.000016 -0.000000
                                -0.000043  0.000000  0.000103 -0.000000 -0.000229  0.000000  0.000591 -0.000000 -0.001570  0.000000
                                 0.001434 -0.000000  0.010094 -0.000000  0.023240 -0.000000 -0.000837 -0.000000 -0.023038 -0.000000
                                 0.018689  0.000000 -0.000997 -0.000000  0.000000  0.000000 -0.000001  0.000000  0.000004 -0.000000
                                -0.000012  0.000000  0.000033 -0.000000 -0.000070  0.000000  0.000059 -0.000000  0.000006  0.000000
                                 0.002669  0.000000  0.004248  0.000000 -0.008448 -0.000000  0.001844  0.000000  0.001984 -0.000000
                                 0.000011  0.000000  0.000000 -0.000057 -0.000000 -0.000000  0.000305 -0.000000  0.000000  0.001044
                                 0.000000 -0.000000 -0.004175 -0.000000 -0.000000  0.003089  0.000000  0.000000 -0.000000 -0.000000
                                 0.000014  0.000000  0.000000 -0.000126 -0.000000  0.000000  0.000767 -0.000000  0.000004 -0.000026
                                 0.000165 -0.001426  0.054202 -0.100923  0.188808  0.545938  0.407671  0.044769 -0.053109 -0.088041
                                -0.000167 -0.001145 -0.005114 -0.008090 -0.042166 -0.016182 -0.000326  0.000042 -0.000513 -0.000000
                                 0.002535  0.000000  0.009886 -0.000000 -0.000270 -0.000000  0.000060  0.000000 -0.002534 -0.000000

   4.1   2    -0.5063   -6.3425  0.000000 -0.000000  0.000000 -0.000000  0.000000 -0.000000  0.000000 -0.000000  0.000001 -0.000003
                                 0.000006 -0.000015  0.000036 -0.000081  0.000175 -0.000365  0.000701 -0.001150  0.001362 -0.008961
                                 0.060306 -0.083766 -0.123905  0.078572  0.308802  0.294816 -0.103854 -0.456875 -0.299961  0.129772
                                -0.068474  0.000000 -0.000000  0.000000 -0.000000  0.000000 -0.000000  0.000000 -0.000000  0.000000
                                -0.000001  0.000002 -0.000005  0.000013 -0.000038  0.000139 -0.001380  0.003786 -0.003849 -0.008208
                                 0.012551  0.029281  0.026689 -0.000297  0.414912 -0.020602  0.078157 -0.405106  0.000000 -0.000000
                                -0.000000  0.000000  0.000002 -0.000000 -0.000007  0.000000  0.000025 -0.000000 -0.000076  0.000000
                                 0.000201 -0.000000 -0.000484  0.000000  0.001093 -0.000000 -0.002986  0.000000  0.008398 -0.000000
                                -0.007814  0.000000 -0.063514  0.000000 -0.127959  0.000000 -0.087440  0.000000  0.070326  0.000000
                                -0.040914 -0.000000  0.001464  0.000000 -0.000000  0.000000  0.000001 -0.000000 -0.000004  0.000000
                                 0.000014 -0.000000 -0.000037  0.000000  0.000075 -0.000000 -0.000017  0.000000 -0.000264 -0.000000
                                -0.003040 -0.000000 -0.011528 -0.000000  0.003444  0.000000  0.012403 -0.000000 -0.005113  0.000000
                                -0.000010  0.000000 -0.000000  0.000053 -0.000000  0.000000 -0.000317 -0.000000 -0.000000 -0.004403
                                 0.000000 -0.000000  0.005918 -0.000000 -0.000000 -0.002297  0.000000  0.000000 -0.000000 -0.000000
                                -0.000027  0.000000  0.000000  0.000299 -0.000000  0.000000 -0.001786 -0.000000  0.000001 -0.000004
                                 0.000027 -0.000230  0.008889 -0.016063  0.033366  0.103971  0.103386 -0.042705 -0.009348 -0.014657
                                 0.006308  0.053938  0.175873  0.285041  0.242088  0.064533  0.003438 -0.001664 -0.002971  0.000000
                                -0.011993 -0.000000 -0.016893  0.000000 -0.000307 -0.000000  0.002359 -0.000000  0.004563  0.000000

   5.1   0    -0.2517   -5.0062 -0.000000  0.000000 -0.000000  0.000000 -0.000000  0.000000 -0.000000  0.000000 -0.000001  0.000001
                                -0.000004  0.000009 -0.000021  0.000047 -0.000101  0.000211 -0.000408  0.000675 -0.000812  0.005720
                                -0.039358  0.053672  0.087241 -0.059922 -0.193378 -0.189916 -0.045430  0.285503  0.453989  0.048962
                                 0.126853  0.000000 -0.000000  0.000000 -0.000000  0.000000 -0.000000  0.000000 -0.000000  0.000001
                                -0.000004  0.000011 -0.000031  0.000083 -0.000239  0.000810 -0.006520  0.015886 -0.015286 -0.023528
                                 0.032928  0.132110 -0.026426  0.134384 -0.099144 -0.102793 -0.279927  0.037059  0.000000  0.000000
                                -0.000000 -0.000000  0.000002  0.000000 -0.000008 -0.000000  0.000029  0.000000 -0.000086 -0.000000
                                 0.000229  0.000000 -0.000551 -0.000000  0.001235  0.000000 -0.003310 -0.000000  0.009169  0.000000
                                -0.008827 -0.000000 -0.064920 -0.000000 -0.133888 -0.000000 -0.140069 -0.000000  0.019046 -0.000000
                                -0.069952 -0.000000  0.020052 -0.000000 -0.000000 -0.000000  0.000001  0.000000 -0.000006 -0.000000
                                 0.000020  0.000000 -0.000055 -0.000000  0.000120  0.000000 -0.000136 -0.000000  0.000068  0.000000
                                -0.003785  0.000000 -0.007312  0.000000  0.010271  0.000000  0.000114  0.000000  0.001090  0.000000
                                -0.000007  0.000000  0.000000  0.000035 -0.000000 -0.000000 -0.000203  0.000000  0.000000 -0.001192
                                 0.000000  0.000000  0.003379 -0.000000  0.000000 -0.002542  0.000000  0.000000 -0.000000  0.000000
                                -0.000017  0.000000  0.000000  0.000171  0.000000 -0.000000 -0.001260 -0.000000  0.000000 -0.000000
                                 0.000001 -0.000016  0.000883 -0.002482  0.003754  0.016910  0.018695  0.047207 -0.000455 -0.001410
                                 0.004863  0.041575  0.136509  0.220285  0.200684  0.057479  0.002754 -0.001281 -0.001554 -0.000000
                                -0.006459 -0.000000 -0.010941 -0.000000 -0.000154 -0.000000  0.001697  0.000000  0.003885  0.000000

   6.1   0    -0.1597   -5.0477  0.000000 -0.000000  0.000000 -0.000000  0.000000 -0.000000  0.000000 -0.000000  0.000000 -0.000000
                                 0.000000 -0.000000  0.000000 -0.000000  0.000000 -0.000000  0.000000 -0.000000  0.000000 -0.000000
                                 0.000000 -0.000000 -0.000001  0.000000  0.000001  0.000001 -0.000000 -0.000003  0.000000 -0.000002
                                 0.000003  0.000000 -0.000000  0.000000 -0.000000  0.000000 -0.000000  0.000000 -0.000000  0.000000
                                -0.000000  0.000000 -0.000000  0.000000 -0.000000  0.000000 -0.000000  0.000000 -0.000000 -0.000000
                                 0.000001  0.000002 -0.000000  0.000002  0.000006 -0.000002 -0.000006 -0.000010 -0.000000  0.000000
                                 0.000000 -0.000001 -0.000000  0.000005  0.000000 -0.000019 -0.000000  0.000067  0.000000 -0.000202
                                -0.000000  0.000538  0.000000 -0.001303 -0.000000  0.002972  0.000000 -0.008372 -0.000000  0.024131
                                 0.000000 -0.021837  0.000002 -0.193368  0.000004 -0.366724  0.000005 -0.421585  0.000004 -0.139730
                                -0.000002 -0.048111  0.000003 -0.118178  0.000000 -0.000000 -0.000000  0.000001  0.000000 -0.000003
                                -0.000000  0.000011  0.000000 -0.000029 -0.000000  0.000082  0.000000 -0.000332 -0.000000  0.001028
                                -0.000000  0.002101 -0.000000  0.017113 -0.000000  0.040696 -0.000000  0.017943 -0.000000  0.019262
                                -0.000000 -0.000000  0.000019  0.000000  0.000000 -0.000099 -0.000000 -0.000000  0.000499 -0.000000
                                -0.000000  0.009011 -0.000000 -0.000000  0.007673 -0.000000  0.000000  0.000410 -0.000004  0.000000
                                -0.000000  0.000033 -0.000000  0.000000  0.000030  0.000000 -0.000000 -0.000000  0.000000 -0.000000
                                 0.000000 -0.000000  0.000000 -0.000000  0.000000  0.000000  0.000000 -0.000000  0.000000 -0.000000
                                 0.000000  0.000000  0.000000  0.000001  0.000001  0.000000  0.000000 -0.000000  0.000000 -0.000537
                                 0.000000 -0.002432  0.000000 -0.003036  0.000000 -0.000047 -0.000000  0.000198 -0.000000  0.001058

                                   1 2px     1 2px     1 2px     1 2px     1 2px     1 2px     1 2px     1 2px     1 2px     1 2px
                                   1 2px     1 2px     1 2px     1 2px     1 2px     1 2px     1 2px     1 2px     1 2px     1 2px
                                   1 2px     1 2px     1 2px     1 2px     1 2px     1 2px     1 2px     1 3d1+    1 3d1+    1 3d1+
                                   1 3d1+    1 3d1+    1 3d1+    1 3d1+    1 3d1+    1 3d1+    1 3d1+    1 3d1+    1 3d1+    1 3d1+
                                   1 3d1+    1 3d1+    1 3d1+    1 3d1+    1 3d1+    1 4f1+    1 4f3+    1 4f1+    1 4f3+    1 4f1+
                                   1 4f3+    1 4f1+    1 4f3+    1 4f1+    1 4f3+    1 4f1+    1 4f3+    1 4f1+    1 4f3+    1 4f1+
                                   1 4f3+    1 4f1+    1 4f3+    1 4f1+    1 4f3+    1 4f1+    1 4f3+    1 4f1+    1 4f3+    1 4f1+
                                   1 4f3+    1 5g1+    1 5g3+    1 5g1+    1 5g3+    1 5g1+    1 5g3+    1 5g1+    1 5g3+    1 5g1+
                                   1 5g3+    1 5g1+    1 5g3+    1 6h1+    1 6h3+    1 6h5+    1 6h1+    1 6h3+    1 6h5+    1 6h1+
                                   1 6h3+    1 6h5+    2 2px     2 2px     2 2px     2 2px     2 2px     2 2px     2 2px     2 2px
                                   2 3d1+    2 3d1+    2 3d1+    2 3d1+    2 4f1+    2 4f3+    2 4f1+    2 4f3+

   1.2   2    -1.6835   -9.6445  0.000000 -0.000000  0.000000 -0.000000  0.000000 -0.000000  0.000000 -0.000000  0.000001 -0.000003
                                 0.000010 -0.000029  0.000083 -0.000276  0.001227 -0.016642  0.050355 -0.050463 -0.141489  0.177377
                                 0.530515 -0.007401  0.407265  0.059591  0.064180 -0.006870 -0.057161 -0.000000  0.000000 -0.000000
                                 0.000000 -0.000000  0.000001 -0.000001  0.000001  0.000006 -0.000084  0.000378 -0.000072 -0.005515
                                -0.012726 -0.002656  0.001181 -0.001444  0.000233 -0.000000 -0.000000  0.000000  0.000000 -0.000002
                                -0.000000  0.000007  0.000000 -0.000018 -0.000000  0.000037  0.000000 -0.000019 -0.000000  0.000080
                                 0.000000 -0.003391 -0.000000 -0.002651 -0.000000  0.000348  0.000000 -0.000552 -0.000000  0.000020
                                 0.000000 -0.000004  0.000000  0.000018 -0.000000 -0.000088  0.000000 -0.000134  0.000000 -0.000094
                                 0.000000 -0.000105 -0.000000  0.000003 -0.000000 -0.000000 -0.000072 -0.000000  0.000000  0.000141
                                 0.000000  0.000000  0.000086  0.000745  0.002222  0.003704  0.002705  0.000739  0.000009 -0.000023
                                -0.000151 -0.000960 -0.000837 -0.000018  0.000097 -0.000000  0.000534  0.000000

   2.2   2    -0.5873   -7.0370 -0.000000  0.000000 -0.000000  0.000000 -0.000000  0.000000 -0.000000  0.000000 -0.000000  0.000000
                                -0.000001  0.000003 -0.000009  0.000027 -0.000105  0.001144 -0.003257  0.003340  0.007629 -0.010924
                                -0.032254 -0.000587 -0.033170 -0.054939  0.033329  0.038657  0.049011 -0.000000  0.000000 -0.000001
                                 0.000004 -0.000016  0.000047 -0.000125  0.000299 -0.000665  0.001735 -0.004684  0.004498  0.031749
                                 0.065550  0.075401 -0.040029  0.072738 -0.031384 -0.000000  0.000000  0.000001 -0.000000 -0.000006
                                 0.000000  0.000019 -0.000000 -0.000052  0.000000  0.000140 -0.000000 -0.000478  0.000000  0.001367
                                -0.000000  0.001393  0.000000  0.016630  0.000000  0.006913 -0.000000  0.004474  0.000000 -0.001827
                                -0.000000  0.000012  0.000000 -0.000066 -0.000000  0.000395  0.000000  0.006474 -0.000000 -0.005231
                                -0.000000  0.003470  0.000000  0.000065 -0.000000 -0.000000 -0.000621  0.000000  0.000000  0.002325
                                -0.000000 -0.000000  0.009798  0.084351  0.276644  0.432767  0.358094  0.047220  0.005265 -0.002581
                                -0.002695 -0.011643 -0.025108 -0.000278  0.002456  0.000000  0.007360 -0.000000

   3.2   0    -0.1680   -3.9258  0.000000 -0.000000  0.000000 -0.000000  0.000000 -0.000000  0.000000 -0.000000  0.000001 -0.000003
                                 0.000007 -0.000021  0.000057 -0.000167  0.000600 -0.005563  0.014703 -0.014740 -0.028059  0.039866
                                 0.143555 -0.029726  0.158627  0.045369 -0.100497 -0.468828 -0.352762 -0.000000  0.000000 -0.000003
                                 0.000011 -0.000038  0.000113 -0.000303  0.000733 -0.001674  0.004728 -0.013650  0.012291  0.110215
                                 0.202385  0.245985  0.181462 -0.050338  0.150060  0.000000  0.000000 -0.000000 -0.000000  0.000001
                                 0.000000 -0.000002 -0.000000  0.000005  0.000000 -0.000024 -0.000000  0.000190  0.000000 -0.000654
                                -0.000000 -0.003348  0.000000 -0.013335  0.000000 -0.016715 -0.000000 -0.003622 -0.000000 -0.006922
                                -0.000000 -0.000017  0.000000  0.000086 -0.000000 -0.000431  0.000000 -0.007613  0.000000 -0.005596
                                 0.000000 -0.000350  0.000000 -0.000001 -0.000000 -0.000000  0.000002  0.000000  0.000000 -0.000116
                                -0.000000 -0.000000 -0.000501 -0.004302 -0.014582 -0.022330 -0.022564 -0.018655 -0.000343  0.000131
                                -0.000253 -0.002146  0.001216 -0.000034  0.000097  0.000000  0.000873 -0.000000

   4.2   0    -0.1044   -4.5088  0.000000 -0.000000  0.000000 -0.000000  0.000000 -0.000000  0.000000 -0.000000  0.000001 -0.000003
                                 0.000009 -0.000024  0.000063 -0.000170  0.000491 -0.001903  0.001454  0.000134  0.016063 -0.024996
                                -0.021664 -0.057803 -0.010852 -5.528681 -0.023440  0.304843  5.965022 -0.000000  0.000001 -0.000004
                                 0.000016 -0.000055  0.000166 -0.000442  0.001072 -0.002452  0.006968 -0.020237  0.018345  0.165064
                                 0.311833  0.343816 -0.034619  0.218483 -0.061570  0.000000  0.000000 -0.000002  0.000000  0.000007
                                -0.000000 -0.000022  0.000000  0.000061 -0.000000 -0.000169  0.000000  0.000633 -0.000000 -0.001910
                                 0.000000 -0.002938 -0.000000 -0.027676  0.000000 -0.078858  0.000000 -0.050260  0.000000 -0.074717
                                 0.000000 -0.000026  0.000000  0.000134 -0.000000 -0.000687  0.000000 -0.012711  0.000000 -0.011921
                                 0.000000 -0.002742 -0.000000 -0.000003 -0.000000 -0.000000  0.000038  0.000000  0.000000 -0.000331
                                -0.000000 -0.000000 -0.002791 -0.024023 -0.080842 -0.124505 -0.120987 -0.056729 -0.001782  0.000731
                                -0.001160 -0.006525 -0.002891 -0.000102 -0.000190 -0.000000  0.000856 -0.000000

                                   1 2py     1 2py     1 2py     1 2py     1 2py     1 2py     1 2py     1 2py     1 2py     1 2py
                                   1 2py     1 2py     1 2py     1 2py     1 2py     1 2py     1 2py     1 2py     1 2py     1 2py
                                   1 2py     1 2py     1 2py     1 2py     1 2py     1 2py     1 2py     1 3d1-    1 3d1-    1 3d1-
                                   1 3d1-    1 3d1-    1 3d1-    1 3d1-    1 3d1-    1 3d1-    1 3d1-    1 3d1-    1 3d1-    1 3d1-
                                   1 3d1-    1 3d1-    1 3d1-    1 3d1-    1 3d1-    1 4f1-    1 4f3-    1 4f1-    1 4f3-    1 4f1-
                                   1 4f3-    1 4f1-    1 4f3-    1 4f1-    1 4f3-    1 4f1-    1 4f3-    1 4f1-    1 4f3-    1 4f1-
                                   1 4f3-    1 4f1-    1 4f3-    1 4f1-    1 4f3-    1 4f1-    1 4f3-    1 4f1-    1 4f3-    1 4f1-
                                   1 4f3-    1 5g1-    1 5g3-    1 5g1-    1 5g3-    1 5g1-    1 5g3-    1 5g1-    1 5g3-    1 5g1-
                                   1 5g3-    1 5g1-    1 5g3-    1 6h1-    1 6h3-    1 6h5-    1 6h1-    1 6h3-    1 6h5-    1 6h1-
                                   1 6h3-    1 6h5-    2 2py     2 2py     2 2py     2 2py     2 2py     2 2py     2 2py     2 2py
                                   2 3d1-    2 3d1-    2 3d1-    2 3d1-    2 4f1-    2 4f3-    2 4f1-    2 4f3-

   1.3   2    -1.6835   -9.6445  0.000000 -0.000000  0.000000 -0.000000  0.000000 -0.000000  0.000000 -0.000000  0.000001 -0.000003
                                 0.000010 -0.000029  0.000083 -0.000276  0.001227 -0.016642  0.050355 -0.050463 -0.141489  0.177377
                                 0.530515 -0.007401  0.407265  0.059591  0.064180 -0.006870 -0.057161 -0.000000  0.000000 -0.000000
                                 0.000000 -0.000000  0.000001 -0.000001  0.000001  0.000006 -0.000084  0.000378 -0.000072 -0.005515
                                -0.012726 -0.002656  0.001181 -0.001444  0.000233 -0.000000 -0.000000  0.000000  0.000000 -0.000002
                                -0.000000  0.000007  0.000000 -0.000018 -0.000000  0.000037  0.000000 -0.000019 -0.000000  0.000080
                                 0.000000 -0.003391 -0.000000 -0.002651 -0.000000  0.000348  0.000000 -0.000552 -0.000000  0.000020
                                 0.000000 -0.000004  0.000000  0.000018 -0.000000 -0.000088  0.000000 -0.000134  0.000000 -0.000094
                                 0.000000 -0.000105 -0.000000  0.000003 -0.000000 -0.000000 -0.000072 -0.000000  0.000000  0.000141
                                 0.000000  0.000000  0.000086  0.000745  0.002222  0.003704  0.002705  0.000739  0.000009 -0.000023
                                -0.000151 -0.000960 -0.000837 -0.000018  0.000097 -0.000000  0.000534  0.000000

   2.3   2    -0.5873   -7.0370 -0.000000  0.000000 -0.000000  0.000000 -0.000000  0.000000 -0.000000  0.000000 -0.000000  0.000000
                                -0.000001  0.000003 -0.000009  0.000027 -0.000105  0.001144 -0.003257  0.003340  0.007629 -0.010924
                                -0.032254 -0.000587 -0.033170 -0.054939  0.033329  0.038657  0.049011 -0.000000  0.000000 -0.000001
                                 0.000004 -0.000016  0.000047 -0.000125  0.000299 -0.000665  0.001735 -0.004684  0.004498  0.031749
                                 0.065550  0.075401 -0.040029  0.072738 -0.031384 -0.000000  0.000000  0.000001 -0.000000 -0.000006
                                 0.000000  0.000019 -0.000000 -0.000052  0.000000  0.000140 -0.000000 -0.000478  0.000000  0.001367
                                -0.000000  0.001393  0.000000  0.016630  0.000000  0.006913 -0.000000  0.004474  0.000000 -0.001827
                                -0.000000  0.000012  0.000000 -0.000066 -0.000000  0.000395  0.000000  0.006474 -0.000000 -0.005231
                                -0.000000  0.003470  0.000000  0.000065 -0.000000 -0.000000 -0.000621  0.000000  0.000000  0.002325
                                -0.000000 -0.000000  0.009798  0.084351  0.276644  0.432767  0.358094  0.047220  0.005265 -0.002581
                                -0.002695 -0.011643 -0.025108 -0.000278  0.002456  0.000000  0.007360 -0.000000

   3.3   0    -0.1680   -3.9258  0.000000 -0.000000  0.000000 -0.000000  0.000000 -0.000000  0.000000 -0.000000  0.000001 -0.000003
                                 0.000007 -0.000021  0.000057 -0.000167  0.000600 -0.005563  0.014703 -0.014740 -0.028059  0.039866
                                 0.143555 -0.029726  0.158627  0.045368 -0.100497 -0.468828 -0.352761 -0.000000  0.000000 -0.000003
                                 0.000011 -0.000038  0.000113 -0.000303  0.000733 -0.001674  0.004728 -0.013650  0.012291  0.110215
                                 0.202385  0.245985  0.181462 -0.050338  0.150060  0.000000  0.000000 -0.000000 -0.000000  0.000001
                                 0.000000 -0.000002 -0.000000  0.000005  0.000000 -0.000024 -0.000000  0.000190  0.000000 -0.000654
                                -0.000000 -0.003348  0.000000 -0.013335  0.000000 -0.016715 -0.000000 -0.003622 -0.000000 -0.006922
                                -0.000000 -0.000017  0.000000  0.000086 -0.000000 -0.000431  0.000000 -0.007613  0.000000 -0.005596
                                 0.000000 -0.000350  0.000000 -0.000001 -0.000000 -0.000000  0.000002  0.000000  0.000000 -0.000116
                                -0.000000 -0.000000 -0.000501 -0.004302 -0.014582 -0.022330 -0.022564 -0.018655 -0.000343  0.000131
                                -0.000253 -0.002146  0.001216 -0.000034  0.000097  0.000000  0.000873 -0.000000

   4.3   0    -0.1044   -4.5088  0.000000 -0.000000  0.000000 -0.000000  0.000000 -0.000000  0.000000 -0.000000  0.000001 -0.000003
                                 0.000009 -0.000024  0.000063 -0.000170  0.000491 -0.001903  0.001454  0.000134  0.016063 -0.024996
                                -0.021664 -0.057803 -0.010852 -5.528684 -0.023440  0.304843  5.965025 -0.000000  0.000001 -0.000004
                                 0.000016 -0.000055  0.000166 -0.000442  0.001072 -0.002452  0.006968 -0.020237  0.018345  0.165064
                                 0.311833  0.343816 -0.034619  0.218484 -0.061570  0.000000 -0.000000 -0.000002 -0.000000  0.000007
                                 0.000000 -0.000022 -0.000000  0.000061  0.000000 -0.000169 -0.000000  0.000633  0.000000 -0.001910
                                -0.000000 -0.002938 -0.000000 -0.027676 -0.000000 -0.078858  0.000000 -0.050260  0.000000 -0.074717
                                 0.000000 -0.000026  0.000000  0.000134 -0.000000 -0.000687  0.000000 -0.012711  0.000000 -0.011921
                                 0.000000 -0.002742 -0.000000 -0.000003 -0.000000 -0.000000  0.000038  0.000000  0.000000 -0.000331
                                -0.000000 -0.000000 -0.002791 -0.024023 -0.080842 -0.124505 -0.120987 -0.056729 -0.001782  0.000731
                                -0.001160 -0.006525 -0.002891 -0.000102 -0.000190 -0.000000  0.000856 -0.000000

                                   1 3d2-    1 3d2-    1 3d2-    1 3d2-    1 3d2-    1 3d2-    1 3d2-    1 3d2-    1 3d2-    1 3d2-
                                   1 3d2-    1 3d2-    1 3d2-    1 3d2-    1 3d2-    1 3d2-    1 3d2-    1 3d2-    1 4f2-    1 4f2-
                                   1 4f2-    1 4f2-    1 4f2-    1 4f2-    1 4f2-    1 4f2-    1 4f2-    1 4f2-    1 4f2-    1 4f2-
                                   1 4f2-    1 5g2-    1 5g4-    1 5g2-    1 5g4-    1 5g2-    1 5g4-    1 5g2-    1 5g4-    1 5g2-
                                   1 5g4-    1 5g2-    1 5g4-    1 6h4-    1 6h2-    1 6h4-    1 6h2-    1 6h4-    1 6h2-    2 3d2-
                                   2 3d2-    2 3d2-    2 3d2-    2 4f2-    2 4f2-

   1.4   0    -0.1597   -5.0477  0.000000 -0.000001  0.000005 -0.000019  0.000067 -0.000202  0.000538 -0.001303  0.002972 -0.008372
                                 0.024131 -0.021837 -0.193368 -0.366724 -0.421585 -0.139730 -0.048111 -0.118178 -0.000000  0.000001
                                -0.000003  0.000011 -0.000029  0.000082 -0.000332  0.001028  0.002101  0.017113  0.040696  0.017943
                                 0.019262  0.000019 -0.000000 -0.000099  0.000000  0.000499 -0.000000  0.009011 -0.000000  0.007673
                                -0.000000  0.000410 -0.000000  0.000000 -0.000004 -0.000000  0.000033  0.000000  0.000030 -0.000537
                                -0.002432 -0.003036 -0.000047  0.000198  0.001058

   2.4   0    -0.0434   -2.2106  0.000000 -0.000000  0.000000 -0.000000  0.000001 -0.000004  0.000015 -0.000063  0.000277 -0.001773
                                 0.007256 -0.003915 -0.098453 -0.131457 -0.396349  2.320108 -4.741693  3.507824 -0.000000  0.000003
                                -0.000012  0.000039 -0.000107  0.000258 -0.000598  0.001367 -0.002371  0.012335 -0.033865  0.069138
                                -0.313317  0.000009 -0.000000 -0.000047  0.000000  0.000244 -0.000000  0.004417 -0.000000 -0.001641
                                -0.000000  0.005857  0.000000  0.000000  0.000002 -0.000000 -0.000024  0.000000  0.000133 -0.000092
                                -0.000181 -0.000455 -0.000004  0.000189 -0.000316

 HOMO      4.1    -0.506269 =     -13.7763eV
 LUMO      5.1    -0.251658 =      -6.8480eV
 LUMO-HOMO         0.254611 =       6.9283eV


 **********************************************************************************************************************************
 DATASETS  * FILE   NREC   LENGTH (MB)   RECORD NAMES
              1      19       22.47       500      610      700      900      950      970     1000      129      960     1100
                                          VAR    BASINP    GEOM    SYMINP    ZMAT    AOBASIS   BASIS     P2S    ABASIS      S
                                         1400     1410     1420     1200     1210     1080     1600     1650     1700
                                           T        V       ECP      H0       H01     AOSYM     SMH    MOLCAS    OPER

              2       4        4.02       700     1000      520     2202
                                         GEOM     BASIS   MCVARS     RHF

 PROGRAMS   *        TOTAL       RHF       INT
 CPU TIMES  *        96.54     10.35     85.45
 REAL TIME  *       110.96 SEC
 DISK USED  *         9.21 GB
 SF USED    *         0.24 MB
 GA USED    *         0.00 MB       (max)       0.00 MB       (current)
 **********************************************************************************************************************************
   -->
   <time start="05:34:34" end="05:36:24" cpu="96.54" system="13.92" real="110.96"/>
   <storage units="megabyte" memory="8001.84" sf="0.24" df="339.45" eaf="8871.8" ga="0.0"/>
  </jobstep><!--
  --><jobstep command="RHF-SCF" commandset="SCFPRO">
   <!--


 PROGRAM * RHF-SCF (OPEN SHELL)       Authors: W. Meyer, H.-J. Werner


 NUMBER OF ELECTRONS:       9+    8-    SPACE SYMMETRY=1    SPIN SYMMETRY: Doublet
 CONVERGENCE THRESHOLDS:    1.00E-05 (Density)    1.00E-07 (Energy)
 MAX. NUMBER OF ITERATIONS:      200
 INTERPOLATION TYPE:            DIIS
 INTERPOLATION STEPS:              2 (START)      1 (STEP)
 LEVEL SHIFTS:                 -0.60 (CLOSED) -0.30 (OPEN)

 Number of closed-shell orbitals:    8 (   4   2   2   0 )
 Number of open-shell orbitals:      1 (   1   0   0   0 )


 Molecular orbitals read from record     2202.2  Type=RHF/CANONICAL (state 1.1)

 Molecular orbital dump at record        3202.2

 ITERATION    DDIFF          GRAD             ENERGY        2-EL.EN.            DIPOLE MOMENTS         DIIS   ORB.
    1      0.000D+00      0.000D+00       -55.40910698    105.920193    0.00000    0.00000   -3.22289    0    start
    2      0.000D+00      0.256D-02       -55.42111427    104.777876    0.00000    0.00000   -3.02811    1    diag,B
    3      0.156D-02      0.127D-02       -55.42503646    104.781282    0.00000    0.00000   -3.11187    2    diag,B
    4      0.700D-03      0.730D-03       -55.43028507    104.453501    0.00000    0.00000   -3.01102    3    diag,B
    5      0.941D-03      0.562D-03       -55.43536490    104.231279    0.00000    0.00000   -2.83080    4    diag,B
    6      0.107D-02      0.562D-03       -55.43499729    104.244688    0.00000    0.00000   -2.84741    5    diag,B
    7      0.715D-04      0.557D-03       -55.42556626    104.607904    0.00000    0.00000   -3.44012    6    diag,B
    8      0.129D-02      0.537D-03       -55.42546727    104.619384    0.00000    0.00000   -3.45718    7    orth
    9      0.990D-04      0.520D-03       -55.42413171    104.792083    0.00000    0.00000   -3.78248    8    diag,B
   10      0.242D-02      0.327D-03       -55.42373071    104.883138    0.00000    0.00000   -3.93499    9    diag,B
   11      0.825D-03      0.319D-03       -55.42349732    104.907989    0.00000    0.00000   -4.00084    9    diag,B
   12      0.667D-03      0.363D-03       -55.42414555    104.850103    0.00000    0.00000   -3.86343    9    diag,B
   13      0.847D-03      0.226D-03       -55.42446658    104.781965    0.00000    0.00000   -3.76866    9    diag,B
   14      0.136D-02      0.313D-03       -55.42445691    104.780559    0.00000    0.00000   -3.76997    9    diag,B
   15      0.180D-04      0.316D-03       -55.42413131    104.849292    0.00000    0.00000   -3.87122    9    diag,B
   16      0.256D-03      0.270D-03       -55.42384326    104.944009    0.00000    0.00000   -4.04955    9    diag,B
   17      0.660D-03      0.154D-03       -55.42365141    104.953312    0.00000    0.00000   -4.08444    9    diag,B
   18      0.624D-03      0.178D-03       -55.42365042    104.953379    0.00000    0.00000   -4.08452    9    orth
   19      0.120D-05      0.178D-03       -55.42360966    104.948585    0.00000    0.00000   -4.08891    9    diag,B
   20      0.122D-03      0.198D-03       -55.42376145    104.952416    0.00000    0.00000   -4.07360    9    diag,B
   21      0.187D-03      0.152D-03       -55.42390632    104.943227    0.00000    0.00000   -4.04557    9    diag,B
   22      0.252D-03      0.133D-03       -55.42395935    104.936517    0.00000    0.00000   -4.03275    9    diag,B
   23      0.128D-03      0.128D-03       -55.42411314    104.916615    0.00000    0.00000   -3.98763    9    diag,B
   24      0.289D-03      0.101D-03       -55.42421215    104.898170    0.00000    0.00000   -3.95281    9    diag,B
   25      0.224D-03      0.104D-03       -55.42407767    104.925126    0.00000    0.00000   -4.00158    9    diag,B
   26      0.586D-03      0.905D-04       -55.42400389    104.941193    0.00000    0.00000   -4.03004    9    diag,B
   27      0.402D-03      0.815D-04       -55.42369499    104.963652    0.00000    0.00000   -4.10220    9    diag,B
   28      0.425D-03      0.137D-03       -55.42382748    104.959228    0.00000    0.00000   -4.07583    9    orth
   29      0.182D-03      0.110D-03       -55.42382763    104.959279    0.00000    0.00000   -4.07500    9    diag,B
   30      0.673D-04      0.108D-03       -55.42389382    104.953254    0.00000    0.00000   -4.05943    9    diag,B
   31      0.130D-03      0.941D-04       -55.42390826    104.951438    0.00000    0.00000   -4.05567    9    diag,B
   32      0.249D-04      0.917D-04       -55.42400310    104.935197    0.00000    0.00000   -4.02603    9    diag,B
   33      0.137D-03      0.846D-04       -55.42412743    104.908892    0.00000    0.00000   -3.97636    9    diag,B
   34      0.193D-03      0.871D-04       -55.42417809    104.897223    0.00000    0.00000   -3.95601    9    diag,B
   35      0.822D-04      0.902D-04       -55.42407331    104.917835    0.00000    0.00000   -3.99963    9    diag,B
   36      0.167D-03      0.957D-04       -55.42413400    104.910427    0.00000    0.00000   -3.97525    9    diag,B
   37      0.173D-03      0.841D-04       -55.42412468    104.908079    0.00000    0.00000   -3.97500    9    diag,B
   38      0.625D-04      0.923D-04       -55.42398524    104.936695    0.00000    0.00000   -4.03285    9    orth
   39      0.403D-03      0.953D-04       -55.42378897    104.956726    0.00000    0.00000   -4.08003    9    diag,B
   40      0.428D-03      0.125D-03       -55.42431020    104.865693    0.00000    0.00000   -3.90496    9    diag,B
   41      0.709D-03      0.116D-03       -55.42407866    104.917294    0.00000    0.00000   -3.99206    9    diag,B
   42      0.314D-03      0.921D-04       -55.42362170    104.955918    0.00000    0.00000   -4.09807    9    diag,B
   43      0.553D-03      0.170D-03       -55.42424451    104.880403    0.00000    0.00000   -3.92853    9    diag,B
   44      0.880D-03      0.102D-03       -55.42423790    104.884506    0.00000    0.00000   -3.93547    9    diag,B
   45      0.529D-03      0.102D-03       -55.42342583    104.950623    0.00000    0.00000   -4.11028    9    diag,B
   46      0.940D-03      0.219D-03       -55.42407401    104.921008    0.00000    0.00000   -3.99706    9    diag,B
   47      0.756D-03      0.865D-04       -55.42397316    104.941603    0.00000    0.00000   -4.03817    9    diag,B
   48      0.206D-03      0.886D-04       -55.42312065    104.941436    0.00000    0.00000   -4.12112    9    orth
   49      0.724D-03      0.292D-03       -55.42406792    104.922531    0.00000    0.00000   -3.99792    9    diag,B
   50      0.936D-03      0.834D-04       -55.42411222    104.912297    0.00000    0.00000   -3.97927    9    diag,B
   51      0.200D-03      0.866D-04       -55.42342035    104.952912    0.00000    0.00000   -4.11018    9    diag,B
   52      0.907D-03      0.216D-03       -55.42413295    104.910197    0.00000    0.00000   -3.97450    9    diag,B
   53      0.903D-03      0.830D-04       -55.42401102    104.935084    0.00000    0.00000   -4.02296    9    diag,B
   54      0.321D-03      0.819D-04       -55.42205077    104.891814    0.00000    0.00000   -4.11170    9    diag,B
   55      0.171D-02      0.500D-03       -55.42404637    104.929411    0.00000    0.00000   -4.00989    9    diag,B
   56      0.180D-02      0.728D-04       -55.42417092    104.902097    0.00000    0.00000   -3.96074    9    diag,B
   57      0.340D-03      0.792D-04       -55.42255278    104.916252    0.00000    0.00000   -4.12122    9    fixocc
   58      0.154D-02      0.400D-03       -55.42390940    104.949965    0.00000    0.00000   -4.05482    9    orth
   59      0.992D-03      0.876D-04       -55.42328605    104.956833    0.00000    0.00000   -4.12766    9    diag,B
   60      0.518D-03      0.224D-03       -55.42381217    104.960137    0.00000    0.00000   -4.07943    9    diag,B
   61      0.392D-03      0.938D-04       -55.42381306    104.958460    0.00000    0.00000   -4.07599    9    diag,B
   62      0.116D-03      0.985D-04       -55.42408428    104.918657    0.00000    0.00000   -3.98923    9    diag,B
   63      0.475D-03      0.793D-04       -55.42401460    104.933370    0.00000    0.00000   -4.01984    9    diag,B
   64      0.614D-03      0.795D-04       -55.42186684    104.875439    0.00000    0.00000   -4.10306    9    diag,B
   65      0.153D-02      0.555D-03       -55.42295769    104.936043    0.00000    0.00000   -4.12475    9    diag,B
   66      0.308D-03      0.321D-03       -55.42159163    104.864039    0.00000    0.00000   -4.09873    9    diag,B
   67      0.356D-03      0.598D-03       -55.42157029    104.862790    0.00000    0.00000   -4.09751    9    diag,B
   68      0.695D-04      0.601D-03       -55.42311988    104.942976    0.00000    0.00000   -4.12182    9    orth
   69      0.427D-03      0.284D-03       -55.42195660    104.883090    0.00000    0.00000   -4.10736    9    diag,B
   70      0.347D-03      0.529D-03       -55.42202816    104.886983    0.00000    0.00000   -4.10924    9    diag,B
   71      0.176D-04      0.514D-03       -55.42177411    104.873895    0.00000    0.00000   -4.10391    9    diag,B
   72      0.829D-04      0.563D-03       -55.42232854    104.902711    0.00000    0.00000   -4.11573    9    diag,B
   73      0.129D-03      0.457D-03       -55.42217459    104.894497    0.00000    0.00000   -4.11258    9    diag,B
   74      0.397D-04      0.488D-03       -55.42216673    104.894514    0.00000    0.00000   -4.11304    9    diag,B
   75      0.320D-04      0.488D-03       -55.42296025    104.936266    0.00000    0.00000   -4.12527    9    diag,B
   76      0.247D-03      0.320D-03       -55.42062200    104.813946    0.00000    0.00000   -4.06874    9    diag,B
   77      0.525D-03      0.762D-03       -55.42125577    104.846199    0.00000    0.00000   -4.08822    9    diag,B
   78      0.109D-03      0.657D-03       -55.42243655    104.909128    0.00000    0.00000   -4.11939    9    orth
   79      0.254D-03      0.434D-03       -55.42166512    104.867903    0.00000    0.00000   -4.10067    9    diag,B
   80      0.178D-03      0.584D-03       -55.42157612    104.863135    0.00000    0.00000   -4.09794    9    diag,B
   81      0.204D-04      0.600D-03       -55.42243495    104.909426    0.00000    0.00000   -4.12025    9    diag,B
   82      0.201D-03      0.434D-03       -55.42121730    104.844646    0.00000    0.00000   -4.08810    9    diag,B
   83      0.259D-03      0.663D-03       -55.42140073    104.853952    0.00000    0.00000   -4.09300    9    diag,B
   84      0.389D-04      0.632D-03       -55.42233148    104.903107    0.00000    0.00000   -4.11643    9    diag,B
   85      0.200D-03      0.457D-03       -55.42180662    104.875121    0.00000    0.00000   -4.10388    9    diag,B
   86      0.121D-03      0.558D-03       -55.42172116    104.870680    0.00000    0.00000   -4.10173    9    diag,B
   87      0.185D-04      0.574D-03       -55.42201270    104.885894    0.00000    0.00000   -4.10887    9    diag,B
   88      0.678D-04      0.520D-03       -55.42192396    104.881081    0.00000    0.00000   -4.10651    9    orth
   89      0.324D-04      0.536D-03       -55.42277478    104.927168    0.00000    0.00000   -4.12466    9    diag,B
   90      0.227D-03      0.362D-03       -55.42221173    104.897584    0.00000    0.00000   -4.11568    9    diag,B
   91      0.160D-03      0.478D-03       -55.42165903    104.867454    0.00000    0.00000   -4.10001    9    diag,B
   92      0.126D-03      0.584D-03       -55.42237023    104.906118    0.00000    0.00000   -4.11927    9    diag,B
   93      0.177D-03      0.446D-03       -55.42191140    104.881555    0.00000    0.00000   -4.10870    9    diag,B
   94      0.108D-03      0.537D-03       -55.42164770    104.867011    0.00000    0.00000   -4.10013    9    diag,B
   95      0.739D-04      0.587D-03       -55.42297680    104.937254    0.00000    0.00000   -4.12546    9    diag,B
   96      0.357D-03      0.316D-03       -55.42099734    104.832964    0.00000    0.00000   -4.08037    9    diag,B
   97      0.473D-03      0.701D-03       -55.42120913    104.843896    0.00000    0.00000   -4.08700    9    diag,B
   98      0.365D-04      0.665D-03       -55.42231703    104.902851    0.00000    0.00000   -4.11730    9    orth
   99      0.232D-03      0.458D-03       -55.42165193    104.867234    0.00000    0.00000   -4.10039    9    diag,B
  100      0.149D-03      0.586D-03       -55.42150484    104.859441    0.00000    0.00000   -4.09605    9    diag,B
  101      0.294D-04      0.613D-03       -55.42181721    104.876102    0.00000    0.00000   -4.10522    9    diag,B
  102      0.656D-04      0.556D-03       -55.42175892    104.873102    0.00000    0.00000   -4.10388    9    diag,B
  103      0.188D-04      0.566D-03       -55.42254726    104.914741    0.00000    0.00000   -4.12064    9    diag,B
  104      0.200D-03      0.412D-03       -55.42208058    104.889801    0.00000    0.00000   -4.11098    9    diag,B
  105      0.120D-03      0.506D-03       -55.42183573    104.876950    0.00000    0.00000   -4.10516    9    diag,B
  106      0.547D-04      0.552D-03       -55.42188892    104.879237    0.00000    0.00000   -4.10568    9    diag,B
  107      0.145D-04      0.543D-03       -55.42255502    104.913531    0.00000    0.00000   -4.11841    9    diag,B
  108      0.167D-03      0.412D-03       -55.42163272    104.864574    0.00000    0.00000   -4.09715    9    orth
  109      0.219D-03      0.592D-03       -55.42154099    104.860600    0.00000    0.00000   -4.09577    9    diag,B
  110      0.238D-04      0.608D-03       -55.42236138    104.902347    0.00000    0.00000   -4.11429    9    diag,B
  111      0.191D-03      0.452D-03       -55.42115146    104.838332    0.00000    0.00000   -4.08204    9    diag,B
  112      0.252D-03      0.678D-03       -55.42084654    104.824044    0.00000    0.00000   -4.07388    9    diag,B
  113      0.608D-04      0.729D-03       -55.42194794    104.880484    0.00000    0.00000   -4.10587    9    diag,B
  114      0.223D-03      0.533D-03       -55.41993747    104.777596    0.00000    0.00000   -4.04376    9    diag,B
  115      0.330D-03      0.875D-03       -55.42011739    104.787514    0.00000    0.00000   -4.05033    9    diag,B
  116      0.584D-04      0.848D-03       -55.42302502    104.939098    0.00000    0.00000   -4.12520    9    diag,B
  117      0.615D-03      0.305D-03       -55.41991791    104.778483    0.00000    0.00000   -4.04477    9    diag,B
  118      0.644D-03      0.876D-03       -55.41999350    104.782023    0.00000    0.00000   -4.04703    9    orth
  119      0.121D-04      0.865D-03       -55.42217479    104.894378    0.00000    0.00000   -4.11266    9    diag,B
  120      0.373D-03      0.489D-03       -55.42185879    104.878060    0.00000    0.00000   -4.10573    9    diag,B
  121      0.740D-04      0.549D-03       -55.42194708    104.882039    0.00000    0.00000   -4.10666    9    diag,B
  122      0.561D-04      0.532D-03       -55.42256065    104.913968    0.00000    0.00000   -4.11850    9    diag,B
  123      0.153D-03      0.410D-03       -55.42155303    104.860595    0.00000    0.00000   -4.09510    9    diag,B
  124      0.233D-03      0.606D-03       -55.42156822    104.862067    0.00000    0.00000   -4.09654    9    diag,B
  125      0.118D-04      0.602D-03       -55.42291285    104.931277    0.00000    0.00000   -4.12160    9    diag,B
  126      0.349D-03      0.334D-03       -55.42100286    104.831025    0.00000    0.00000   -4.07775    9    diag,B
  127      0.448D-03      0.702D-03       -55.42074265    104.818473    0.00000    0.00000   -4.07019    9    diag,B
  128      0.417D-04      0.746D-03       -55.42133547    104.847824    0.00000    0.00000   -4.08833    9    orth
  129      0.128D-03      0.646D-03       -55.42107909    104.834911    0.00000    0.00000   -4.08158    9    diag,B
  130      0.445D-04      0.690D-03       -55.42215350    104.892980    0.00000    0.00000   -4.11166    9    diag,B
  131      0.211D-03      0.493D-03       -55.42282656    104.929786    0.00000    0.00000   -4.12497    9    diag,B
  132      0.192D-03      0.350D-03       -55.42217729    104.896033    0.00000    0.00000   -4.11535    9    diag,B
  133      0.185D-03      0.484D-03       -55.42170373    104.869606    0.00000    0.00000   -4.10087    9    diag,B
  134      0.119D-03      0.576D-03       -55.42313284    104.944225    0.00000    0.00000   -4.12395    9    diag,B
  135      0.412D-03      0.281D-03       -55.42117686    104.842164    0.00000    0.00000   -4.08581    9    diag,B
  136      0.509D-03      0.670D-03       -55.42126418    104.846603    0.00000    0.00000   -4.08832    9    diag,B
  137      0.195D-04      0.655D-03       -55.42265325    104.920619    0.00000    0.00000   -4.12286    9    diag,B
  138      0.320D-03      0.388D-03       -55.42152939    104.860730    0.00000    0.00000   -4.09672    9    orth
  139      0.266D-03      0.609D-03       -55.42140861    104.854281    0.00000    0.00000   -4.09293    9    diag,B
  140      0.244D-04      0.630D-03       -55.42270123    104.923457    0.00000    0.00000   -4.12412    9    diag,B
  141      0.307D-03      0.377D-03       -55.42119408    104.843301    0.00000    0.00000   -4.08695    9    diag,B
  142      0.342D-03      0.667D-03       -55.42125883    104.846544    0.00000    0.00000   -4.08867    9    diag,B
  143      0.114D-04      0.657D-03       -55.42254273    104.914490    0.00000    0.00000   -4.12066    9    diag,B
  144      0.281D-03      0.412D-03       -55.42166246    104.867528    0.00000    0.00000   -4.10009    9    diag,B
  145      0.208D-03      0.585D-03       -55.42155064    104.861681    0.00000    0.00000   -4.09696    9    diag,B
  146      0.224D-04      0.605D-03       -55.42185959    104.877931    0.00000    0.00000   -4.10553    9    diag,B
  147      0.637D-04      0.548D-03       -55.42165697    104.867130    0.00000    0.00000   -4.10007    9    diag,B
  148      0.419D-04      0.586D-03       -55.42211321    104.891851    0.00000    0.00000   -4.11228    9    orth
  149      0.102D-03      0.499D-03       -55.42263352    104.919861    0.00000    0.00000   -4.12301    9    diag,B
  150      0.139D-03      0.392D-03       -55.42127233    104.847555    0.00000    0.00000   -4.08968    9    diag,B
  151      0.309D-03      0.653D-03       -55.42156390    104.862534    0.00000    0.00000   -4.09761    9    diag,B
  152      0.534D-04      0.602D-03       -55.42255266    104.915221    0.00000    0.00000   -4.12115    9    diag,B
  153      0.229D-03      0.410D-03       -55.42164798    104.866894    0.00000    0.00000   -4.09990    9    diag,B
  154      0.214D-03      0.587D-03       -55.42156699    104.862650    0.00000    0.00000   -4.09760    9    diag,B
  155      0.156D-04      0.602D-03       -55.42264598    104.920302    0.00000    0.00000   -4.12308    9    diag,B
  156      0.259D-03      0.390D-03       -55.42129396    104.848310    0.00000    0.00000   -4.08982    9    diag,B
  157      0.308D-03      0.650D-03       -55.42129930    104.848563    0.00000    0.00000   -4.08976    9    diag,B
  158      0.282D-05      0.650D-03       -55.42294422    104.935725    0.00000    0.00000   -4.12564    9    orth
  159      0.408D-03      0.323D-03       -55.42096716    104.831416    0.00000    0.00000   -4.07953    9    diag,B
  160      0.465D-03      0.706D-03       -55.42106709    104.836521    0.00000    0.00000   -4.08262    9    diag,B
  161      0.168D-04      0.690D-03       -55.42241104    104.907813    0.00000    0.00000   -4.11903    9    diag,B
  162      0.280D-03      0.439D-03       -55.42161197    104.865059    0.00000    0.00000   -4.09910    9    diag,B
  163      0.181D-03      0.594D-03       -55.42144022    104.855993    0.00000    0.00000   -4.09404    9    diag,B
  164      0.336D-04      0.625D-03       -55.42197532    104.884520    0.00000    0.00000   -4.10922    9    diag,B
  165      0.110D-03      0.526D-03       -55.42197759    104.884712    0.00000    0.00000   -4.10942    9    diag,B
  166      0.334D-05      0.525D-03       -55.42296650    104.936752    0.00000    0.00000   -4.12549    9    diag,B
  167      0.280D-03      0.319D-03       -55.42122301    104.844643    0.00000    0.00000   -4.08739    9    diag,B
  168      0.434D-03      0.662D-03       -55.42121998    104.844498    0.00000    0.00000   -4.08739    9    orth
  169      0.158D-04      0.663D-03       -55.42292618    104.934747    0.00000    0.00000   -4.12544    9    diag,B
  170      0.418D-03      0.328D-03       -55.42115946    104.841262    0.00000    0.00000   -4.08546    9    diag,B
  171      0.426D-03      0.674D-03       -55.42108358    104.837354    0.00000    0.00000   -4.08309    9    diag,B
  172      0.131D-04      0.687D-03       -55.42256438    104.916000    0.00000    0.00000   -4.12194    9    diag,B
  173      0.323D-03      0.407D-03       -55.42124194    104.845538    0.00000    0.00000   -4.08809    9    diag,B
  174      0.293D-03      0.660D-03       -55.42116327    104.841455    0.00000    0.00000   -4.08564    9    diag,B
  175      0.136D-04      0.673D-03       -55.42192638    104.881823    0.00000    0.00000   -4.10803    9    diag,B
  176      0.146D-03      0.535D-03       -55.42174579    104.872245    0.00000    0.00000   -4.10314    9    diag,B
  177      0.384D-04      0.569D-03       -55.42223112    104.898131    0.00000    0.00000   -4.11545    9    diag,B
  178      0.109D-03      0.475D-03       -55.42208720    104.890361    0.00000    0.00000   -4.11199    9    orth
  179      0.340D-04      0.504D-03       -55.42244311    104.909759    0.00000    0.00000   -4.12000    9    diag,B
  180      0.890D-04      0.432D-03       -55.42292128    104.934542    0.00000    0.00000   -4.12547    9    diag,B
  181      0.155D-03      0.329D-03       -55.42095308    104.830593    0.00000    0.00000   -4.07875    9    diag,B
  182      0.461D-03      0.707D-03       -55.42148085    104.858234    0.00000    0.00000   -4.09541    9    diag,B
  183      0.968D-04      0.617D-03       -55.42304115    104.940363    0.00000    0.00000   -4.12534    9    diag,B
  184      0.414D-03      0.301D-03       -55.42094441    104.830165    0.00000    0.00000   -4.07861    9    diag,B
  185      0.507D-03      0.710D-03       -55.42108763    104.837584    0.00000    0.00000   -4.08322    9    diag,B
  186      0.254D-04      0.686D-03       -55.42294153    104.935586    0.00000    0.00000   -4.12556    9    diag,B
  187      0.444D-03      0.324D-03       -55.42112904    104.839753    0.00000    0.00000   -4.08456    9    diag,B
  188      0.437D-03      0.679D-03       -55.42111473    104.839010    0.00000    0.00000   -4.08411    9    orth
  189      0.263D-05      0.681D-03       -55.42270624    104.923628    0.00000    0.00000   -4.12401    9    diag,B
  190      0.359D-03      0.376D-03       -55.42131438    104.849447    0.00000    0.00000   -4.09039    9    diag,B
  191      0.323D-03      0.647D-03       -55.42123483    104.845288    0.00000    0.00000   -4.08792    9    diag,B
  192      0.143D-04      0.661D-03       -55.42218844    104.896034    0.00000    0.00000   -4.11462    9    diag,B
  193      0.195D-03      0.484D-03       -55.42161020    104.865059    0.00000    0.00000   -4.09927    9    diag,B
  194      0.125D-03      0.594D-03       -55.42145291    104.856751    0.00000    0.00000   -4.09463    9    diag,B
  195      0.302D-04      0.622D-03       -55.42173359    104.871583    0.00000    0.00000   -4.10275    9    diag,B
  196      0.547D-04      0.572D-03       -55.42166890    104.868071    0.00000    0.00000   -4.10080    9    diag,B
  197      0.154D-04      0.584D-03       -55.42283847    104.930472    0.00000    0.00000   -4.12527    9    diag,B
  198      0.301D-03      0.347D-03       -55.42098215    104.832275    0.00000    0.00000   -4.08011    9    orth
  199      0.424D-03      0.703D-03       -55.42101960    104.856080    0.00000    0.00000   -4.09844    9    orth
  200      0.410D-04      0.645D-03       -55.42213624    105.039216    0.00000    0.00000   -4.17384    0    orth

 Final alpha occupancy:   5   2   2   0
 Final beta  occupancy:   4   2   2   0

 !RHF STATE 1.1 Energy                -55.422136235637
   --><property name="Energy" method="RHF" principal="true" stateSymmetry="1" stateNumber="1"
     value="-55.4221362356369"/><!--
 Nuclear energy                        15.18508518
 One-electron energy                 -123.12682940
 Two-electron energy                   52.51960798
 Virial quotient                       -2.28478823
 !RHF STATE 1.1 Dipole moment           0.00000000     0.00000000    -4.17383613
 Dipole moment /Debye                   0.00000000     0.00000000   -10.60813844
   --><property name="Dipole moment" method="RHF" principal="true" stateSymmetry="1"
     stateNumber="1" value="0.0 0.0 -4.17383613342303"/><!--

 ELECTRON ORBITALS
 =================


   Orb  Occ    Energy  Couls-En    Coefficients

                                   1 1s      1 1s      1 1s      1 1s      1 1s      1 1s      1 1s      1 1s      1 1s      1 1s
                                   1 1s      1 1s      1 1s      1 1s      1 1s      1 1s      1 1s      1 1s      1 1s      1 1s
                                   1 1s      1 1s      1 1s      1 1s      1 1s      1 1s      1 1s      1 1s      1 1s      1 1s
                                   1 1s      1 2pz     1 2pz     1 2pz     1 2pz     1 2pz     1 2pz     1 2pz     1 2pz     1 2pz
                                   1 2pz     1 2pz     1 2pz     1 2pz     1 2pz     1 2pz     1 2pz     1 2pz     1 2pz     1 2pz
                                   1 2pz     1 2pz     1 2pz     1 2pz     1 2pz     1 2pz     1 2pz     1 2pz     1 3d0     1 3d2+
                                   1 3d0     1 3d2+    1 3d0     1 3d2+    1 3d0     1 3d2+    1 3d0     1 3d2+    1 3d0     1 3d2+
                                   1 3d0     1 3d2+    1 3d0     1 3d2+    1 3d0     1 3d2+    1 3d0     1 3d2+    1 3d0     1 3d2+
                                   1 3d0     1 3d2+    1 3d0     1 3d2+    1 3d0     1 3d2+    1 3d0     1 3d2+    1 3d0     1 3d2+
                                   1 3d0     1 3d2+    1 3d0     1 3d2+    1 4f0     1 4f2+    1 4f0     1 4f2+    1 4f0     1 4f2+
                                   1 4f0     1 4f2+    1 4f0     1 4f2+    1 4f0     1 4f2+    1 4f0     1 4f2+    1 4f0     1 4f2+
                                   1 4f0     1 4f2+    1 4f0     1 4f2+    1 4f0     1 4f2+    1 4f0     1 4f2+    1 4f0     1 4f2+
                                   1 5g0     1 5g4+    1 5g2+    1 5g0     1 5g4+    1 5g2+    1 5g0     1 5g4+    1 5g2+    1 5g0
                                   1 5g4+    1 5g2+    1 5g0     1 5g4+    1 5g2+    1 5g0     1 5g4+    1 5g2+    1 6h2+    1 6h4+
                                   1 6h0     1 6h2+    1 6h4+    1 6h0     1 6h2+    1 6h4+    1 6h0     2 1s      2 1s      2 1s
                                   2 1s      2 1s      2 1s      2 1s      2 1s      2 1s      2 1s      2 1s      2 1s      2 1s
                                   2 2pz     2 2pz     2 2pz     2 2pz     2 2pz     2 2pz     2 2pz     2 2pz     2 3d0     2 3d2+
                                   2 3d0     2 3d2+    2 3d0     2 3d2+    2 3d0     2 3d2+    2 4f0     2 4f2+    2 4f0     2 4f2+


   1.1   2    -2.6532  -12.0105  0.000000 -0.000000  0.000000 -0.000000  0.000000 -0.000000  0.000000 -0.000001  0.000004 -0.000009
                                 0.000023 -0.000055  0.000128 -0.000289  0.000624 -0.001299  0.002497 -0.004101  0.004868 -0.031542
                                 0.202631 -0.254080 -0.438110  0.252624  0.713416  0.382063 -0.019013  0.032203 -0.024891  0.017940
                                -0.005314 -0.000000  0.000000 -0.000000  0.000000 -0.000000  0.000000 -0.000000  0.000000 -0.000000
                                 0.000000 -0.000001  0.000004 -0.000010  0.000027 -0.000088  0.000590 -0.001236  0.001029  0.000793
                                 0.000541 -0.003602 -0.003244 -0.010373 -0.014421 -0.003358 -0.000885  0.014023 -0.000000 -0.000000
                                 0.000000  0.000000 -0.000000 -0.000000  0.000000  0.000000 -0.000001 -0.000000  0.000003  0.000000
                                -0.000008 -0.000000  0.000017  0.000000 -0.000029 -0.000000  0.000011  0.000000  0.000108 -0.000000
                                 0.000282  0.000000 -0.004178  0.000000 -0.004982  0.000000 -0.000523  0.000000 -0.000201  0.000000
                                -0.000499  0.000000  0.000454  0.000000  0.000000  0.000000 -0.000000 -0.000000  0.000001  0.000000
                                -0.000002 -0.000000  0.000005  0.000000 -0.000013 -0.000000  0.000041  0.000000 -0.000107 -0.000000
                                -0.000837  0.000000 -0.000710  0.000000  0.000005 -0.000000 -0.000046  0.000000  0.000111 -0.000000
                                -0.000000  0.000000 -0.000000  0.000003 -0.000000  0.000000 -0.000016 -0.000000 -0.000000 -0.000073
                                 0.000000 -0.000000  0.000046 -0.000000  0.000000  0.000049 -0.000000 -0.000000 -0.000000  0.000000
                                -0.000001  0.000000  0.000000  0.000001 -0.000000  0.000000  0.000011 -0.000000  0.000000 -0.000000
                                 0.000001 -0.000007  0.000233 -0.000327  0.000776  0.001333  0.002364  0.002976 -0.000292 -0.000382
                                -0.000035 -0.000304 -0.000768 -0.001419 -0.002386 -0.001213  0.000017  0.000010  0.000061 -0.000000
                                 0.000586 -0.000000  0.000920 -0.000000  0.000011 -0.000000 -0.000038  0.000000 -0.000320  0.000000

   2.1   2    -1.4191   -9.4595  0.000000 -0.000000  0.000000 -0.000000  0.000000 -0.000000  0.000000 -0.000000  0.000000 -0.000000
                                 0.000000 -0.000001  0.000002 -0.000005  0.000010 -0.000022  0.000043 -0.000072  0.000089 -0.000695
                                 0.004863 -0.006216 -0.012283  0.007859  0.032588 -0.002840 -0.018703  0.000694 -0.016778 -0.007092
                                 0.004627  0.000000 -0.000000  0.000000 -0.000000  0.000000 -0.000000  0.000000 -0.000000  0.000001
                                -0.000003  0.000009 -0.000025  0.000073 -0.000248  0.001135 -0.016000  0.048956 -0.049265 -0.140113
                                 0.176389  0.524683 -0.011476  0.398848 -0.008682  0.067381 -0.016513  0.009628 -0.000000  0.000000
                                 0.000000 -0.000000 -0.000000  0.000000  0.000001 -0.000000 -0.000002  0.000000  0.000007 -0.000000
                                -0.000017  0.000000  0.000036 -0.000000 -0.000062  0.000000  0.000021  0.000000  0.000243 -0.000000
                                 0.000427  0.000000 -0.008256  0.000000 -0.018654  0.000000 -0.007028 -0.000000 -0.001202  0.000000
                                -0.006750 -0.000000  0.003791  0.000000 -0.000000  0.000000  0.000000  0.000000 -0.000001 -0.000000
                                 0.000004  0.000000 -0.000010 -0.000000  0.000018 -0.000000  0.000053  0.000000 -0.000247 -0.000000
                                -0.003543 -0.000000 -0.003703 -0.000000 -0.001421 -0.000000 -0.001721  0.000000  0.000666 -0.000000
                                -0.000007 -0.000000  0.000000  0.000035  0.000000 -0.000000 -0.000131 -0.000000  0.000000 -0.000482
                                -0.000000 -0.000000 -0.000684  0.000000 -0.000000  0.000269  0.000000  0.000000 -0.000000  0.000000
                                 0.000005  0.000000  0.000000 -0.000100 -0.000000  0.000000  0.000220 -0.000000  0.000000 -0.000002
                                 0.000015 -0.000133  0.005110 -0.009988  0.017310  0.049215  0.038868  0.024798 -0.004655 -0.008224
                                -0.000390 -0.003330 -0.010232 -0.017240 -0.017306 -0.007830 -0.000124  0.000104  0.000585  0.000000
[...]
                                 0.000003 -0.000000 -0.000000 -0.000033  0.000000  0.000000  0.000178 -0.000000  0.000000 -0.000003
                                 0.000019 -0.000113  0.001543  0.008002  0.006121 -0.016197  0.026421 -0.426548 -0.008071 -0.003388
                                -0.000546 -0.004660 -0.016064 -0.024245 -0.037033  0.051913 -0.000422  0.000142  0.000067 -0.000000
                                -0.003895 -0.000000  0.010041 -0.000000 -0.000057 -0.000000 -0.000000  0.000000  0.001634  0.000000

                                   1 2px     1 2px     1 2px     1 2px     1 2px     1 2px     1 2px     1 2px     1 2px     1 2px
                                   1 2px     1 2px     1 2px     1 2px     1 2px     1 2px     1 2px     1 2px     1 2px     1 2px
                                   1 2px     1 2px     1 2px     1 2px     1 2px     1 2px     1 2px     1 3d1+    1 3d1+    1 3d1+
                                   1 3d1+    1 3d1+    1 3d1+    1 3d1+    1 3d1+    1 3d1+    1 3d1+    1 3d1+    1 3d1+    1 3d1+
                                   1 3d1+    1 3d1+    1 3d1+    1 3d1+    1 3d1+    1 4f1+    1 4f3+    1 4f1+    1 4f3+    1 4f1+
                                   1 4f3+    1 4f1+    1 4f3+    1 4f1+    1 4f3+    1 4f1+    1 4f3+    1 4f1+    1 4f3+    1 4f1+
                                   1 4f3+    1 4f1+    1 4f3+    1 4f1+    1 4f3+    1 4f1+    1 4f3+    1 4f1+    1 4f3+    1 4f1+
                                   1 4f3+    1 5g1+    1 5g3+    1 5g1+    1 5g3+    1 5g1+    1 5g3+    1 5g1+    1 5g3+    1 5g1+
                                   1 5g3+    1 5g1+    1 5g3+    1 6h1+    1 6h3+    1 6h5+    1 6h1+    1 6h3+    1 6h5+    1 6h1+
                                   1 6h3+    1 6h5+    2 2px     2 2px     2 2px     2 2px     2 2px     2 2px     2 2px     2 2px
                                   2 3d1+    2 3d1+    2 3d1+    2 3d1+    2 4f1+    2 4f3+    2 4f1+    2 4f3+

   1.2   2    -1.4323   -9.3826  0.000000 -0.000000  0.000000 -0.000000  0.000000 -0.000000  0.000000 -0.000000  0.000001 -0.000003
                                 0.000010 -0.000029  0.000084 -0.000279  0.001234 -0.016625  0.050190 -0.050228 -0.140651  0.175987
                                 0.527312 -0.009959  0.408653  0.059323  0.070792 -0.005585 -0.056941 -0.000000  0.000000 -0.000000
                                 0.000000 -0.000001  0.000002 -0.000005  0.000011 -0.000017 -0.000019  0.000155  0.000327 -0.003826
                                -0.013559 -0.005159  0.002811 -0.003384  0.000779 -0.000000 -0.000000  0.000001  0.000000 -0.000002
                                -0.000000  0.000008  0.000000 -0.000021 -0.000000  0.000044  0.000000  0.000000 -0.000000 -0.000185
                                 0.000000 -0.003442  0.000000 -0.003858  0.000000 -0.000066  0.000000 -0.000243 -0.000000 -0.000079
                                 0.000000 -0.000008  0.000000  0.000040 -0.000000 -0.000166  0.000000 -0.000651  0.000000  0.000159
                                -0.000000 -0.000209  0.000000  0.000002  0.000000 -0.000000 -0.000051  0.000000 -0.000000  0.000014
                                -0.000000  0.000000  0.000093  0.000801  0.002446  0.004036  0.003579  0.001081  0.000021 -0.000025
                                -0.000150 -0.000928 -0.001123 -0.000018  0.000072 -0.000000  0.000522 -0.000000

   2.2   2    -0.3013   -6.5090 -0.000000  0.000000 -0.000000  0.000000 -0.000000  0.000000 -0.000000  0.000000 -0.000000  0.000001
                                -0.000002  0.000004 -0.000012  0.000036 -0.000137  0.001465 -0.004135  0.004237  0.009439 -0.013566
                                -0.041059  0.001320 -0.042259 -0.084823  0.029800  0.077359  0.089656 -0.000000  0.000000 -0.000001
                                 0.000006 -0.000020  0.000060 -0.000160  0.000384 -0.000863  0.002328 -0.006466  0.005988  0.047490
                                 0.093424  0.107315  0.003246  0.049584 -0.018881 -0.000000 -0.000000  0.000001  0.000000 -0.000004
                                -0.000000  0.000013  0.000000 -0.000036 -0.000000  0.000104 -0.000000 -0.000412  0.000000  0.001294
                                -0.000000  0.002158 -0.000000  0.014943  0.000000  0.011829 -0.000000  0.008698 -0.000000 -0.003864
                                -0.000000  0.000010 -0.000000 -0.000052  0.000000  0.000288  0.000000  0.004917 -0.000000 -0.001119
                                -0.000000  0.001436 -0.000000  0.000053  0.000000  0.000000 -0.000497 -0.000000 -0.000000  0.001900
                                 0.000000  0.000000  0.008793  0.075447  0.248654  0.389240  0.344082  0.099289  0.005039 -0.002313
                                -0.002598 -0.011348 -0.020760 -0.000272  0.000182 -0.000000  0.004902 -0.000000

   3.2   0    -0.0196   -3.0376 -0.000000  0.000000 -0.000000  0.000000 -0.000000  0.000000 -0.000000  0.000000 -0.000001  0.000003
                                -0.000009  0.000025 -0.000065  0.000173 -0.000459  0.000712  0.002871 -0.004922 -0.030761  0.045847
                                 0.075916  0.065604  0.065012  9.104268 -0.012677 -0.511273 -9.546712 -0.000000  0.000000 -0.000002
                                 0.000006 -0.000023  0.000068 -0.000181  0.000433 -0.000969  0.002581 -0.007106  0.006773  0.050908
                                 0.095867  0.114962  0.472482 -0.647004  0.581771 -0.000000  0.000000  0.000000 -0.000000 -0.000001
                                 0.000000  0.000002 -0.000000 -0.000006  0.000000  0.000013 -0.000000  0.000004  0.000000 -0.000040
                                -0.000000 -0.001034 -0.000000 -0.003250 -0.000000 -0.007909 -0.000000  0.005671 -0.000000 -0.012100
                                -0.000000 -0.000012  0.000000  0.000060 -0.000000 -0.000330  0.000000 -0.004942  0.000000 -0.003922
                                 0.000000 -0.000219  0.000000 -0.000003  0.000000 -0.000000  0.000038 -0.000000  0.000000 -0.000195
                                 0.000000 -0.000000  0.000121  0.001050  0.003363  0.005383  0.003220 -0.023211  0.000050 -0.000032
                                -0.000095 -0.001391  0.001132 -0.000025  0.000048 -0.000000  0.000882  0.000000

   4.2   0     0.0512   -2.0788 -0.000000  0.000000 -0.000000  0.000000 -0.000000  0.000000 -0.000001  0.000004 -0.000014  0.000043
                                -0.000125  0.000343 -0.000913  0.002550 -0.007905  0.046073 -0.085096  0.069210 -0.031373  0.064071
                                -0.459852  0.743376 -0.678633 69.287291  0.517675 -0.887539-68.861450  0.000000 -0.000000  0.000001
                                -0.000003  0.000009 -0.000029  0.000079 -0.000202  0.000514 -0.001843  0.006152 -0.004433 -0.065128
                                -0.094093 -0.226051  0.703364 -1.536931  0.994657 -0.000000 -0.000000  0.000001  0.000000 -0.000002
                                -0.000000  0.000008  0.000000 -0.000022 -0.000000  0.000059  0.000000 -0.000214 -0.000000  0.000602
                                 0.000000  0.001019  0.000000  0.009818  0.000000  0.018444  0.000000  0.049302  0.000000  0.164760
                                 0.000000  0.000014 -0.000000 -0.000073  0.000000  0.000405 -0.000000  0.005812 -0.000000  0.006950
                                 0.000000  0.050976 -0.000000  0.000006 -0.000000  0.000000 -0.000071  0.000000 -0.000000  0.000359
                                -0.000000  0.000000  0.000791  0.006541  0.025926  0.035353  0.051169 -0.239664  0.001237 -0.000198
                                 0.000267  0.000019  0.004295 -0.000007 -0.000127 -0.000000 -0.000587 -0.000000

                                   1 2py     1 2py     1 2py     1 2py     1 2py     1 2py     1 2py     1 2py     1 2py     1 2py
                                   1 2py     1 2py     1 2py     1 2py     1 2py     1 2py     1 2py     1 2py     1 2py     1 2py
                                   1 2py     1 2py     1 2py     1 2py     1 2py     1 2py     1 2py     1 3d1-    1 3d1-    1 3d1-
                                   1 3d1-    1 3d1-    1 3d1-    1 3d1-    1 3d1-    1 3d1-    1 3d1-    1 3d1-    1 3d1-    1 3d1-
                                   1 3d1-    1 3d1-    1 3d1-    1 3d1-    1 3d1-    1 4f1-    1 4f3-    1 4f1-    1 4f3-    1 4f1-
                                   1 4f3-    1 4f1-    1 4f3-    1 4f1-    1 4f3-    1 4f1-    1 4f3-    1 4f1-    1 4f3-    1 4f1-
                                   1 4f3-    1 4f1-    1 4f3-    1 4f1-    1 4f3-    1 4f1-    1 4f3-    1 4f1-    1 4f3-    1 4f1-
                                   1 4f3-    1 5g1-    1 5g3-    1 5g1-    1 5g3-    1 5g1-    1 5g3-    1 5g1-    1 5g3-    1 5g1-
                                   1 5g3-    1 5g1-    1 5g3-    1 6h1-    1 6h3-    1 6h5-    1 6h1-    1 6h3-    1 6h5-    1 6h1-
                                   1 6h3-    1 6h5-    2 2py     2 2py     2 2py     2 2py     2 2py     2 2py     2 2py     2 2py
                                   2 3d1-    2 3d1-    2 3d1-    2 3d1-    2 4f1-    2 4f3-    2 4f1-    2 4f3-

   1.3   2    -1.4323   -9.3826  0.000000 -0.000000  0.000000 -0.000000  0.000000 -0.000000  0.000000 -0.000000  0.000001 -0.000003
                                 0.000010 -0.000029  0.000084 -0.000279  0.001234 -0.016625  0.050190 -0.050228 -0.140651  0.175987
                                 0.527313 -0.009959  0.408653  0.059323  0.070792 -0.005585 -0.056941 -0.000000  0.000000 -0.000000
                                 0.000000 -0.000001  0.000002 -0.000005  0.000011 -0.000017 -0.000019  0.000155  0.000327 -0.003826
                                -0.013559 -0.005159  0.002811 -0.003384  0.000779 -0.000000 -0.000000  0.000001  0.000000 -0.000002
                                -0.000000  0.000008  0.000000 -0.000021 -0.000000  0.000044  0.000000  0.000000 -0.000000 -0.000185
                                 0.000000 -0.003441  0.000000 -0.003857  0.000000 -0.000065  0.000000 -0.000243 -0.000000 -0.000079
                                 0.000000 -0.000008  0.000000  0.000040 -0.000000 -0.000166  0.000000 -0.000651  0.000000  0.000159
                                -0.000000 -0.000209  0.000000  0.000002  0.000000 -0.000000 -0.000051  0.000000 -0.000000  0.000014
                                -0.000000  0.000000  0.000093  0.000801  0.002446  0.004036  0.003579  0.001081  0.000021 -0.000025
                                -0.000150 -0.000928 -0.001123 -0.000018  0.000072 -0.000000  0.000522 -0.000000

   2.3   2    -0.3013   -6.5090 -0.000000  0.000000 -0.000000  0.000000 -0.000000  0.000000 -0.000000  0.000000 -0.000000  0.000001
                                -0.000002  0.000004 -0.000012  0.000036 -0.000137  0.001465 -0.004136  0.004237  0.009439 -0.013566
                                -0.041060  0.001320 -0.042260 -0.084818  0.029801  0.077364  0.089653 -0.000000  0.000000 -0.000001
                                 0.000006 -0.000020  0.000060 -0.000160  0.000384 -0.000863  0.002328 -0.006467  0.005988  0.047493
                                 0.093431  0.107322  0.003249  0.049585 -0.018880 -0.000000 -0.000000  0.000001  0.000000 -0.000004
                                -0.000000  0.000013  0.000000 -0.000036 -0.000000  0.000104 -0.000000 -0.000412  0.000000  0.001294
                                -0.000000  0.002158 -0.000000  0.014943  0.000000  0.011829 -0.000000  0.008698 -0.000000 -0.003864
                                -0.000000  0.000010 -0.000000 -0.000052  0.000000  0.000288  0.000000  0.004917 -0.000000 -0.001119
                                -0.000000  0.001436 -0.000000  0.000053  0.000000  0.000000 -0.000497 -0.000000 -0.000000  0.001900
                                 0.000000 -0.000000  0.008793  0.075445  0.248651  0.389235  0.344078  0.099290  0.005039 -0.002313
                                -0.002598 -0.011348 -0.020761 -0.000272  0.000182 -0.000000  0.004902 -0.000000

   3.3   0    -0.0196   -3.0376 -0.000000  0.000000 -0.000000  0.000000 -0.000000  0.000000 -0.000000  0.000000 -0.000001  0.000003
                                -0.000009  0.000025 -0.000065  0.000173 -0.000459  0.000712  0.002871 -0.004922 -0.030761  0.045847
                                 0.075914  0.065606  0.065010  9.104381 -0.012675 -0.511272 -9.546825 -0.000000  0.000000 -0.000002
                                 0.000006 -0.000023  0.000068 -0.000181  0.000433 -0.000969  0.002581 -0.007106  0.006773  0.050908
                                 0.095868  0.114962  0.472485 -0.647010  0.581776 -0.000000  0.000000  0.000000 -0.000000 -0.000001
                                 0.000000  0.000002 -0.000000 -0.000006  0.000000  0.000013 -0.000000  0.000004  0.000000 -0.000040
                                -0.000000 -0.001034 -0.000000 -0.003250 -0.000000 -0.007910 -0.000000  0.005671 -0.000000 -0.012100
                                -0.000000 -0.000012  0.000000  0.000060 -0.000000 -0.000330  0.000000 -0.004942  0.000000 -0.003922
                                 0.000000 -0.000219  0.000000 -0.000003  0.000000 -0.000000  0.000038 -0.000000  0.000000 -0.000195
                                 0.000000 -0.000000  0.000121  0.001050  0.003362  0.005383  0.003220 -0.023212  0.000050 -0.000032
                                -0.000095 -0.001391  0.001132 -0.000025  0.000048 -0.000000  0.000882  0.000000

   4.3   0     0.0512   -2.0788 -0.000000  0.000000 -0.000000  0.000000 -0.000000  0.000000 -0.000001  0.000004 -0.000014  0.000043
                                -0.000125  0.000343 -0.000913  0.002550 -0.007905  0.046073 -0.085096  0.069210 -0.031373  0.064071
                                -0.459853  0.743377 -0.678634 69.287311  0.517675 -0.887539-68.861467  0.000000 -0.000000  0.000001
                                -0.000003  0.000009 -0.000029  0.000079 -0.000202  0.000514 -0.001843  0.006152 -0.004433 -0.065128
                                -0.094093 -0.226052  0.703370 -1.536942  0.994664 -0.000000 -0.000000  0.000001  0.000000 -0.000002
                                -0.000000  0.000008  0.000000 -0.000022 -0.000000  0.000059  0.000000 -0.000214 -0.000000  0.000602
                                 0.000000  0.001019  0.000000  0.009818  0.000000  0.018444  0.000000  0.049302  0.000000  0.164760
                                 0.000000  0.000014 -0.000000 -0.000073  0.000000  0.000405 -0.000000  0.005812 -0.000000  0.006950
                                 0.000000  0.050975 -0.000000  0.000006 -0.000000  0.000000 -0.000071  0.000000 -0.000000  0.000359
                                -0.000000  0.000000  0.000791  0.006541  0.025928  0.035355  0.051171 -0.239663  0.001237 -0.000198
                                 0.000267  0.000019  0.004295 -0.000007 -0.000127 -0.000000 -0.000587 -0.000000

                                   1 3d2-    1 3d2-    1 3d2-    1 3d2-    1 3d2-    1 3d2-    1 3d2-    1 3d2-    1 3d2-    1 3d2-
                                   1 3d2-    1 3d2-    1 3d2-    1 3d2-    1 3d2-    1 3d2-    1 3d2-    1 3d2-    1 4f2-    1 4f2-
                                   1 4f2-    1 4f2-    1 4f2-    1 4f2-    1 4f2-    1 4f2-    1 4f2-    1 4f2-    1 4f2-    1 4f2-
                                   1 4f2-    1 5g2-    1 5g4-    1 5g2-    1 5g4-    1 5g2-    1 5g4-    1 5g2-    1 5g4-    1 5g2-
                                   1 5g4-    1 5g2-    1 5g4-    1 6h4-    1 6h2-    1 6h4-    1 6h2-    1 6h4-    1 6h2-    2 3d2-
                                   2 3d2-    2 3d2-    2 3d2-    2 4f2-    2 4f2-

   1.4   0     0.0320   -3.4812  0.000000 -0.000001  0.000004 -0.000017  0.000059 -0.000176  0.000466 -0.001113  0.002466 -0.006403
                                 0.017268 -0.017046 -0.116009 -0.248208 -0.181465 -1.311266  2.307136 -1.794444  0.000000 -0.000001
                                 0.000003 -0.000008  0.000023 -0.000046  0.000002  0.000145  0.002155  0.009348  0.064414 -0.023332
                                 0.167334  0.000016 -0.000000 -0.000082  0.000000  0.000468 -0.000000  0.007220 -0.000000  0.008174
                                -0.000000  0.002337 -0.000000 -0.000000  0.000000  0.000000 -0.000027 -0.000000  0.000189 -0.000437
                                -0.002024 -0.003195 -0.000038  0.000072  0.001084

   2.4   0     0.0804   -2.7171 -0.000000  0.000000 -0.000000  0.000001 -0.000004  0.000011 -0.000022  0.000009  0.000196 -0.002152
                                 0.009611 -0.004108 -0.140981 -0.171312 -0.614926  3.524511 -7.320724  4.601962 -0.000001  0.000006
                                -0.000026  0.000087 -0.000238  0.000576 -0.001349  0.003037 -0.005274  0.026986 -0.050130  0.230570
                                -0.392494  0.000015 -0.000000 -0.000078  0.000000  0.000450 -0.000000  0.007770 -0.000000  0.004392
                                -0.000000  0.011389  0.000000 -0.000000  0.000002  0.000000 -0.000044 -0.000000  0.000259 -0.000416
                                -0.000930 -0.004094 -0.000019  0.000327 -0.000430

 HOMO      5.1    -0.294203 =      -8.0057eV
 LUMO      3.2    -0.019597 =      -0.5332eV
 LUMO-HOMO         0.274606 =       7.4724eV

 No convergence



 **********************************************************************************************************************************
 DATASETS  * FILE   NREC   LENGTH (MB)   RECORD NAMES
              1      19       22.47       500      610      700      900      950      970     1000      129      960     1100
                                          VAR    BASINP    GEOM    SYMINP    ZMAT    AOBASIS   BASIS     P2S    ABASIS      S
                                         1400     1410     1420     1200     1210     1080     1600     1650     1700
                                           T        V       ECP      H0       H01     AOSYM     SMH    MOLCAS    OPER

              2       5        9.36       700     1000      520     2202     3202
                                         GEOM     BASIS   MCVARS     RHF      RHF

 PROGRAMS   *        TOTAL       RHF       RHF       INT
 CPU TIMES  *       216.08    119.34     10.35     85.45
 REAL TIME  *       237.34 SEC
 DISK USED  *         9.32 GB
 SF USED    *         0.24 MB
 GA USED    *         0.00 MB       (max)       0.00 MB       (current)
 **********************************************************************************************************************************
   -->
   <time start="05:36:24" end="05:38:30" cpu="119.54" system="6.66" real="126.38"/>
   <storage units="megabyte" memory="8001.84" sf="0.24" df="445.09" eaf="8871.8" ga="0.0"/>
  </jobstep><!--
 SETTING SCF            =       -55.42213624  AU
 SETTING _CC_NORM_MAX   =         2.00000000
  --><jobstep command="RCCSD(T)" commandset="CCSD">
   <!--


 PROGRAM * CCSD (Restricted open-shell coupled cluster)     Authors: C. Hampel, H.-J. Werner, 1991, M. Deegan, P.J. Knowles, 1992


 Convergence thresholds:  THRVAR = 1.00D-08  THRDEN = 1.00D-06

 CCSD(T)     terms to be evaluated (factor= 1.000)


 Number of closed-shell orbitals:   8 (   4   2   2   0 )
 Number of active  orbitals:        1 (   1   0   0   0 )
 Number of external orbitals:     442 ( 175 106 106  55 )

 Memory could be reduced to 357.68 Mwords without degradation in triples

 Number of N-1 electron functions:              17
 Number of N-2 electron functions:             136
 Number of singly external CSFs:              2432
 Number of doubly external CSFs:           5288016
 Total number of CSFs:                     5290448

 Molecular orbitals read from record     3202.2  Type=RHF/CANONICAL (state 1.1)

 ?Error: RHF not converged. This error exit can be avoided using the IGNORE_ERROR option on the ORBITAL directive
   --><error/><!--
  --></jobstep><!--
  -->
  <input>
  <!--
 --></job><!--
--></molpro>
