<?xml version="1.0"?>
<molpro xmlns="http://www.molpro.net/schema/molpro-output"
  xmlns:xsd="http://www.w3.org/1999/XMLSchema"
  xmlns:cml="http://www.xml-cml.org/schema"
  xmlns:stm="http://www.xml-cml.org/schema"
  xmlns:xhtml="http://www.w3.org/1999/xhtml">
 <!--

 Nodes     nprocs
 nid01363    11
 Number of processes for MPI-2 version of Molpro:   nprocs(total)=   12   nprocs(compute)=   11   nprocs(helper)=    1

 Using customized tuning parameters: mindgm=7; mindgv=16; mindgc=1; mindgr=1; noblas=0; minvec=7
 default implementation of scratch files=sf

 --><job>
  <!--

 Variables initialized (889), CPU time= 0.01 sec
 Commands  initialized (702), CPU time= 0.02 sec, 572 directives.
 Default parameters read. Elapsed time= 0.22 sec

 Checking input...
 Passed
1


                                         ***  PROGRAM SYSTEM MOLPRO  ***
                                       Copyright, TTI GmbH Stuttgart, 2015
                                    Version 2015.1 linked Dec 29 2018 15:55:43


 **********************************************************************************************************************************
 LABEL *   Calculation for Lu atom, singlet and triplet
  64 bit mpp version                                                                     DATE: 14-Apr-23          TIME: 11:14:56
 **********************************************************************************************************************************

 SHA1:             19cd028119e0e09f93f0674bd8af7968d9b3eff6
 **********************************************************************************************************************************
  -->
  <!--

 THRESHOLDS:

 ZERO    =  1.00D-12  ONEINT  =  1.00D-12  TWOINT  =  1.00D-15  PREFAC  =  1.00D-14  LOCALI  =  1.00D-09  EORDER  =  1.00D-04
 ENERGY  =  0.00D+00  ETEST   =  0.00D+00  EDENS   =  0.00D+00  THRDEDEF=  1.00D-06  GRADIENT=  1.00D-02  STEP    =  1.00D-03
 ORBITAL =  1.00D-05  CIVEC   =  1.00D-05  COEFF   =  1.00D-04  PRINTCI =  5.00D-02  PUNCHCI =  9.90D+01  OPTGRAD =  3.00D-04
 OPTENERG=  1.00D-06  OPTSTEP =  3.00D-04  THRGRAD =  1.00D-10  COMPRESS=  1.00D-11  VARMIN  =  1.00D-07  VARMAX  =  1.00D-03
 THRDOUB =  0.00D+00  THRDIV  =  1.00D-05  THRRED  =  1.00D-07  THRPSP  =  1.00D+00  THRDC   =  1.00D-10  THRCS   =  1.00D-10
 THRNRM  =  1.00D-08  THREQ   =  0.00D+00  THRDE   =  1.00D+00  THRREF  =  1.00D-05  SPARFAC =  1.00D+00  THRDLP  =  1.00D-07
 THRDIA  =  1.00D-10  THRDLS  =  1.00D-07  THRGPS  =  0.00D+00  THRKEX  =  0.00D+00  THRDIS  =  2.00D-01  THRVAR  =  1.00D-10
 THRLOC  =  1.00D-06  THRGAP  =  1.00D-06  THRLOCT = -1.00D+00  THRGAPT = -1.00D+00  THRORB  =  1.00D-06  THRMLTP =  0.00D+00
 THRCPQCI=  1.00D-10  KEXTA   =  0.00D+00  THRCOARS=  0.00D+00  SYMTOL  =  1.00D-06  GRADTOL =  1.00D-06  THROVL  =  1.00D-08
 THRORTH =  1.00D-08  GRID    =  1.00D-06  GRIDMAX =  1.00D-03  DTMAX   =  0.00D+00  THROCCDE=  1.00D-01  THROCCDE=  1.00D-01



 THRESHOLDS:

 ZERO    =  1.00D-12  ONEINT  =  1.00D-15  TWOINT  =  1.00D-15  PREFAC  =  1.00D-14  LOCALI  =  1.00D-09  EORDER  =  1.00D-04
 ENERGY  =  0.00D+00  ETEST   =  0.00D+00  EDENS   =  0.00D+00  THRDEDEF=  1.00D-06  GRADIENT=  1.00D-02  STEP    =  1.00D-03
 ORBITAL =  1.00D-05  CIVEC   =  1.00D-05  COEFF   =  1.00D-04  PRINTCI =  5.00D-02  PUNCHCI =  9.90D+01  OPTGRAD =  3.00D-04
 OPTENERG=  1.00D-06  OPTSTEP =  3.00D-04  THRGRAD =  1.00D-10  COMPRESS=  1.00D-11  VARMIN  =  1.00D-07  VARMAX  =  1.00D-03
 THRDOUB =  0.00D+00  THRDIV  =  1.00D-05  THRRED  =  1.00D-07  THRPSP  =  1.00D+00  THRDC   =  1.00D-10  THRCS   =  1.00D-10
 THRNRM  =  1.00D-08  THREQ   =  0.00D+00  THRDE   =  1.00D+00  THRREF  =  1.00D-05  SPARFAC =  1.00D+00  THRDLP  =  1.00D-07
 THRDIA  =  1.00D-10  THRDLS  =  1.00D-07  THRGPS  =  0.00D+00  THRKEX  =  0.00D+00  THRDIS  =  2.00D-01  THRVAR  =  1.00D-10
 THRLOC  =  1.00D-06  THRGAP  =  1.00D-06  THRLOCT = -1.00D+00  THRGAPT = -1.00D+00  THRORB  =  1.00D-06  THRMLTP =  0.00D+00
 THRCPQCI=  1.00D-10  KEXTA   =  0.00D+00  THRCOARS=  0.00D+00  SYMTOL  =  1.00D-06  GRADTOL =  1.00D-06  THROVL  =  1.00D-08
 THRORTH =  1.00D-08  GRID    =  1.00D-06  GRIDMAX =  1.00D-03  DTMAX   =  0.00D+00  THROCCDE=  1.00D-01  THROCCDE=  1.00D-01



Geometry recognized as XYZ


 Variable memory set to 1000000000 words,  buffer space   230000 words

 SETTING BASIS          =    USERDEF

 DO I                   =        12.00000000

 Running procedure=VIIP5
  --><jobstep command="RHF-SCF" commandset="SCFPRO">
   <!--


 Recomputing integrals since basis changed


 Using spherical harmonics



 PROGRAM * SEWARD (Integral evaluation for generally contracted gaussian basis sets)     Author: Roland Lindh, 1990

 Geometry written to block  1 of record 700

 Orientation using atomic masses
 Molecule type: Atom
 Symmetry elements: X,Y,Z
 Rotational constants:       0.0000000      0.0000000      0.0000000 GHz  (calculated with average atomic masses)

 Point group  D2h


   --><cml:molecule>
    <cml:symmetry pointGroup="D2h"/>
    <cml:atomArray>
     <cml:atom id="a1" elementType="Lu" x3="0.0" y3="0.0" z3="0.0"/>
    </cml:atomArray>
    <cml:bondArray>
    </cml:bondArray>
   </cml:molecule><!--

 ATOMIC COORDINATES

 NR  ATOM    CHARGE       X              Y              Z

   1  LU     25.00    0.000000000    0.000000000    0.000000000

 NUCLEAR CHARGE:                   25
 NUMBER OF PRIMITIVE AOS:         516
 NUMBER OF SYMMETRY AOS:          389
 NUMBER OF CONTRACTIONS:          389   (  87Ag  +  63B3u +  63B2u +  31B1g +  63B1u +  31B2g +  31B3g +  20Au  )
 NUMBER OF CORE ORBITALS:           0   (   0Ag  +   0B3u +   0B2u +   0B1g +   0B1u +   0B2g +   0B3g +   0Au  )
 NUMBER OF VALENCE ORBITALS:       17   (   4Ag  +   3B3u +   3B2u +   1B1g +   3B1u +   1B2g +   1B3g +   1Au  )


 NUCLEAR REPULSION ENERGY    0.00000000

 EXTRA SYMMETRY OF AOS IN SYMMETRY 1:   1 1 1 1 1 1 1 1 1 1   1 1 1 1 1 1 1 1 1 1   1 1 1 1 1 1 1 1 1 1   1 2 3 2 3 2 3 2 3 2
                                        3 2 3 2 3 2 3 2 3 2   3 2 3 2 3 2 3 2 3 2   3 2 3 2 3 2 3 2 3 4   5 6 4 5 6 4 5 6 4 5
                                        6 4 5 6 4 5 6
 EXTRA SYMMETRY OF AOS IN SYMMETRY 2:   1 1 1 1 1 1 1 1 1 1   1 1 1 1 1 1 1 1 1 1   1 1 1 1 1 1 2 3 2 3   2 3 2 3 2 3 2 3 2 3
                                        2 3 2 3 2 3 2 3 2 3   2 3 2 3 4 5 6 4 5 6   4 5 6
 EXTRA SYMMETRY OF AOS IN SYMMETRY 3:   1 1 1 1 1 1 1 1 1 1   1 1 1 1 1 1 1 1 1 1   1 1 1 1 1 1 2 3 2 3   2 3 2 3 2 3 2 3 2 3
                                        2 3 2 3 2 3 2 3 2 3   2 3 2 3 4 5 6 4 5 6   4 5 6
 EXTRA SYMMETRY OF AOS IN SYMMETRY 4:   1 1 1 1 1 1 1 1 1 1   1 1 1 1 1 1 1 1 1 2   3 2 3 2 3 2 3 2 3 2   3
 EXTRA SYMMETRY OF AOS IN SYMMETRY 5:   1 1 1 1 1 1 1 1 1 1   1 1 1 1 1 1 1 1 1 1   1 1 1 1 1 1 2 3 2 3   2 3 2 3 2 3 2 3 2 3
                                        2 3 2 3 2 3 2 3 2 3   2 3 2 3 4 5 6 4 5 6   4 5 6
 EXTRA SYMMETRY OF AOS IN SYMMETRY 6:   1 1 1 1 1 1 1 1 1 1   1 1 1 1 1 1 1 1 1 2   3 2 3 2 3 2 3 2 3 2   3
 EXTRA SYMMETRY OF AOS IN SYMMETRY 7:   1 1 1 1 1 1 1 1 1 1   1 1 1 1 1 1 1 1 1 2   3 2 3 2 3 2 3 2 3 2   3
 EXTRA SYMMETRY OF AOS IN SYMMETRY 8:   1 1 1 1 1 1 1 1 1 1   1 1 1 1 2 3 2 3 2 3

 Eigenvalues of metric

         1 0.334E-06 0.975E-06 0.340E-05 0.187E-04 0.482E-04 0.711E-04 0.812E-04 0.812E-04
         2 0.961E-06 0.179E-05 0.251E-04 0.110E-03 0.535E-03 0.536E-03 0.536E-03 0.156E-02
         3 0.961E-06 0.179E-05 0.251E-04 0.110E-03 0.535E-03 0.536E-03 0.536E-03 0.156E-02
         4 0.812E-04 0.144E-03 0.238E-02 0.635E-02 0.105E-01 0.241E-01 0.241E-01 0.278E-01
         5 0.961E-06 0.179E-05 0.251E-04 0.110E-03 0.535E-03 0.536E-03 0.536E-03 0.156E-02
         6 0.812E-04 0.144E-03 0.238E-02 0.635E-02 0.105E-01 0.241E-01 0.241E-01 0.278E-01
         7 0.812E-04 0.144E-03 0.238E-02 0.635E-02 0.105E-01 0.241E-01 0.241E-01 0.278E-01
         8 0.536E-03 0.145E-01 0.220E-01 0.558E-01 0.111E+00 0.176E+00 0.268E+00 0.268E+00


 Contracted 2-electron integrals neglected if value below      1.0D-15
 AO integral compression algorithm  1   Integral accuracy      1.0D-15

     2532.835 MB (compressed) written to integral file ( 50.0%)

     Node minimum: 169.869 MB, node maximum: 280.494 MB


 NUMBER OF SORTED TWO-ELECTRON INTEGRALS:   33381131.     BUFFER LENGTH:  32768
 NUMBER OF SEGMENTS:   2  SEGMENT LENGTH:   31984988      RECORD LENGTH: 524288

 Memory used in sort:      32.54 MW

 SORT1 READ   632589735. AND WROTE    22106564. INTEGRALS IN     65 RECORDS. CPU TIME:    16.29 SEC, REAL TIME:    19.51 SEC
 SORT2 READ   243471794. AND WROTE   368240910. INTEGRALS IN   9086 RECORDS. CPU TIME:     0.96 SEC, REAL TIME:     1.60 SEC

 Node minimum:    33379029.  Node maximum:    33708496. integrals

 OPERATOR DM      FOR CENTER  0  COORDINATES:    0.000000    0.000000    0.000000


 **********************************************************************************************************************************
 DATASETS  * FILE   NREC   LENGTH (MB)   RECORD NAMES
              1      19       20.94       500      610      700      900      950      970     1000      129      960     1100
                                          VAR    BASINP    GEOM    SYMINP    ZMAT    AOBASIS   BASIS     P2S    ABASIS      S
                                         1400     1410     1420     1200     1210     1080     1600     1650     1700
                                           T        V       ECP      H0       H01     AOSYM     SMH    MOLCAS    OPER

 PROGRAMS   *        TOTAL       INT
 CPU TIMES  *        63.90     63.36
 REAL TIME  *        69.78 SEC
 DISK USED  *         5.44 GB
 GA USED    *         0.00 MB       (max)       0.00 MB       (current)
 **********************************************************************************************************************************


 PROGRAM * RHF-SCF (OPEN SHELL)       Authors: W. Meyer, H.-J. Werner


 NUMBER OF ELECTRONS:      11+   10-    SPACE SYMMETRY=5    SPIN SYMMETRY: Doublet
 CONVERGENCE THRESHOLDS:    1.00E-05 (Density)    1.00E-07 (Energy)
 MAX. NUMBER OF ITERATIONS:      150
 INTERPOLATION TYPE:            DIIS
 INTERPOLATION STEPS:              2 (START)      1 (STEP)
 LEVEL SHIFTS:                 -0.60 (CLOSED) -0.30 (OPEN)

 Number of closed-shell orbitals:   10 (   1   3   3   0   2   0   0   1 )
 Number of open-shell orbitals:      1 (   0   0   0   0   1   0   0   0 )



 Extra symmetries of mos in symmetry 2:   3   2   1
 Extra symmetries of mos in symmetry 3:   3   2   1
 Extra symmetries of mos in symmetry 5:   3   2   1
 Guess basis ATOMIC-GUESS,LU=ECP46_GUESS not found. No density guess!


 Molecular orbital dump at record        4202.2

 ITERATION    DDIFF          GRAD             ENERGY        2-EL.EN.            DIPOLE MOMENTS         DIIS   ORB.
    1      0.000D+00      0.000D+00      -172.34443726    459.298696    0.00000    0.00000    0.00000    0    start
    2      0.000D+00      0.425D+00      -140.45526793    110.918995    0.00000    0.00000    0.00000    0    diag,B
    3      0.152D+00      0.227D+00      -179.50962405    443.057754    0.00000    0.00000    0.00000    1    diag,B
    4      0.963D-01      0.383D+00      -194.59327835    401.567956    0.00000    0.00000    0.00000    2    diag,B
    5      0.582D-01      0.238D+00      -203.04970288    362.805802    0.00000    0.00000    0.00000    3    diag,B
    6      0.371D-01      0.125D+00      -203.88655194    294.201073    0.00000    0.00000    0.00000    4    diag,B
    7      0.319D-01      0.150D-01      -205.98355737    322.858618    0.00000    0.00000    0.00000    5    diag,B
    8      0.155D-01      0.283D-01      -206.12085189    322.743862    0.00000    0.00000    0.00000    6    diag,B
    9      0.282D-02      0.239D-01      -206.34613794    319.547273    0.00000    0.00000    0.00000    7    diag,B
   10      0.720D-02      0.939D-02      -206.36648194    319.375539    0.00000    0.00000    0.00000    8    orth
   11      0.117D-02      0.866D-02      -206.36609703    319.120029    0.00000    0.00000    0.00000    9    diag,B
   12      0.203D-03      0.795D-02      -206.37545113    317.365680    0.00000    0.00000    0.00000    9    diag,B
   13      0.938D-03      0.383D-02      -206.37411742    316.025163    0.00000    0.00000    0.00000    9    diag,B
   14      0.949D-03      0.220D-03      -206.37413617    315.998248    0.00000    0.00000    0.00000    9    diag,B
   15      0.542D-04      0.150D-03      -206.37412844    315.946870    0.00000    0.00000    0.00000    9    diag,B
   16      0.380D-04      0.104D-04      -206.37412851    315.949479    0.00000    0.00000    0.00000    9    diag,B
   17      0.626D-05      0.696D-05      -206.37412851    315.945973    0.00000    0.00000    0.00000    0    orth

 Final alpha occupancy:   1   3   3   0   3   0   0   1
 Final beta  occupancy:   1   3   3   0   2   0   0   1

 !RHF STATE 1.5 Energy               -206.374128514214
   --><property name="Energy" method="RHF" principal="true" stateSymmetry="5" stateNumber="1"
     value="-206.374128514214"/><!--
 Nuclear energy                         0.00000000
 One-electron energy                 -364.34711507
 Two-electron energy                  157.97298655
 Virial quotient                       -1.17551142
 !RHF STATE 1.5 Dipole moment           0.00000000     0.00000000     0.00000000
 Dipole moment /Debye                   0.00000000     0.00000000     0.00000000
   --><property name="Dipole moment" method="RHF" principal="true" stateSymmetry="5"
     stateNumber="1" value="0.0 0.0 0.0"/><!--

 ELECTRON ORBITALS
 =================


   Orb  Occ    Energy  Couls-En    Coefficients

                                   1 1s      1 1s      1 1s      1 1s      1 1s      1 1s      1 1s      1 1s      1 1s      1 1s
                                   1 1s      1 1s      1 1s      1 1s      1 1s      1 1s      1 1s      1 1s      1 1s      1 1s
                                   1 1s      1 1s      1 1s      1 1s      1 1s      1 1s      1 1s      1 1s      1 1s      1 1s
                                   1 1s      1 3d0     1 3d2+    1 3d0     1 3d2+    1 3d0     1 3d2+    1 3d0     1 3d2+    1 3d0
                                   1 3d2+    1 3d0     1 3d2+    1 3d0     1 3d2+    1 3d0     1 3d2+    1 3d0     1 3d2+    1 3d0
                                   1 3d2+    1 3d0     1 3d2+    1 3d0     1 3d2+    1 3d0     1 3d2+    1 3d0     1 3d2+    1 3d0
                                   1 3d2+    1 3d0     1 3d2+    1 3d0     1 3d2+    1 3d0     1 3d2+    1 3d0     1 3d2+    1 5g0
                                   1 5g4+    1 5g2+    1 5g0     1 5g4+    1 5g2+    1 5g0     1 5g4+    1 5g2+    1 5g0     1 5g4+
                                   1 5g2+    1 5g0     1 5g4+    1 5g2+    1 5g0     1 5g4+    1 5g2+

   1.1   2    -4.2077  -22.2819 -0.000000  0.000001 -0.000004  0.000012 -0.000034  0.000096 -0.000321  0.001818  0.005993 -0.004330
                                 0.006625 -0.013068 -0.005652  0.036640 -0.197027  0.237285 -0.137448  0.471925 -1.063885  0.054649
                                 1.041780  0.332141  0.013460 -0.016001  0.029791 -0.047169  0.036126 -0.014495  0.005633 -0.001460
                                 0.000260 -0.000001  0.000000  0.000003 -0.000000 -0.000010  0.000000  0.000032 -0.000000 -0.000102
                                 0.000000  0.000514 -0.000000 -0.001275  0.000000  0.001201 -0.000000 -0.000693  0.000000  0.000744
                                -0.000000 -0.001728 -0.000000 -0.003190  0.000000  0.000956 -0.000000 -0.003364  0.000000  0.004828
                                -0.000000 -0.002412  0.000000  0.000480 -0.000000 -0.000173  0.000000  0.000046 -0.000000  0.000004
                                -0.000000  0.000000 -0.000002 -0.000000  0.000000 -0.000019 -0.000000  0.000000  0.000019  0.000000
                                -0.000000 -0.000007 -0.000000  0.000000  0.000002  0.000000 -0.000000

   2.1   0    -1.4006  -14.1535 -0.000000  0.000000 -0.000000  0.000000 -0.000000  0.000000 -0.000002  0.000009  0.000030 -0.000022
                                 0.000032 -0.000061 -0.000029  0.000164 -0.001289  0.002261 -0.001859 -0.004680  0.021083 -0.018022
                                -0.016367  0.003870  0.019975  0.003936  0.003221 -0.004196  0.002990 -0.001126  0.000424 -0.000107
                                 0.000019 -0.000012 -0.000000  0.000064  0.000000 -0.000230 -0.000000  0.000733  0.000000 -0.002467
                                -0.000000  0.013434  0.000000 -0.035306 -0.000000  0.033941  0.000000 -0.016822 -0.000000 -0.082617
                                -0.000000  0.463081  0.000000  0.592303  0.000000  0.138723  0.000000 -0.057272 -0.000000  0.053693
                                 0.000000 -0.016056 -0.000000  0.000776  0.000000  0.000068 -0.000000 -0.000058  0.000000 -0.000634
                                 0.000000  0.000000  0.008318 -0.000000 -0.000000  0.025113 -0.000000 -0.000000 -0.023117  0.000000
                                 0.000000  0.009802 -0.000000 -0.000000 -0.003326  0.000000  0.000000

   3.1   0    -1.3374  -13.9689 -0.000000  0.000000 -0.000000  0.000000 -0.000000  0.000000 -0.000000  0.000000  0.000000 -0.000000
                                 0.000000 -0.000000 -0.000000  0.000000  0.000000 -0.000000  0.000000  0.000000 -0.000000  0.000000
                                 0.000000  0.000000 -0.000000 -0.000000 -0.000000  0.000000 -0.000000  0.000000 -0.000000  0.000000
                                -0.000000  0.000000 -0.000013 -0.000000  0.000069  0.000000 -0.000246 -0.000000  0.000781  0.000000
                                -0.002618 -0.000000  0.014165  0.000000 -0.037060 -0.000000  0.035570  0.000000 -0.018154  0.000000
                                -0.077028 -0.000000  0.442556 -0.000000  0.592060 -0.000000  0.170395  0.000000 -0.106449 -0.000000
                                 0.123886  0.000000 -0.050812 -0.000000  0.007661  0.000000 -0.002412 -0.000000  0.000602  0.000000
                                 0.000000 -0.000394 -0.000000 -0.000000  0.005298 -0.000000 -0.000000  0.016696  0.000000  0.000000
                                -0.015205 -0.000000 -0.000000  0.006494  0.000000  0.000000 -0.002207

                                   1 2px     1 2px     1 2px     1 2px     1 2px     1 2px     1 2px     1 2px     1 2px     1 2px
                                   1 2px     1 2px     1 2px     1 2px     1 2px     1 2px     1 2px     1 2px     1 2px     1 2px
                                   1 2px     1 2px     1 2px     1 2px     1 2px     1 2px     1 4f1+    1 4f3+    1 4f1+    1 4f3+
                                   1 4f1+    1 4f3+    1 4f1+    1 4f3+    1 4f1+    1 4f3+    1 4f1+    1 4f3+    1 4f1+    1 4f3+
                                   1 4f1+    1 4f3+    1 4f1+    1 4f3+    1 4f1+    1 4f3+    1 4f1+    1 4f3+    1 4f1+    1 4f3+
                                   1 4f1+    1 4f3+    1 4f1+    1 4f3+    1 6h1+    1 6h3+    1 6h5+    1 6h1+    1 6h3+    1 6h5+
                                   1 6h1+    1 6h3+    1 6h5+

   1.2   2    -1.7163  -19.3534 -0.000000  0.000000 -0.000000  0.000000 -0.000000  0.000000 -0.000000  0.000000 -0.000000  0.000000
                                -0.000000  0.000000 -0.000000  0.000000 -0.000000 -0.000000  0.000000 -0.000000  0.000000  0.000000
                                 0.000000 -0.000000 -0.000000  0.000000 -0.000000  0.000000  0.000000 -0.000022 -0.000000  0.000114
                                -0.000000  0.000043 -0.000000  0.044370 -0.000000  0.029843 -0.000000  0.220063 -0.000000  0.269932
                                -0.000000  0.363145 -0.000000  0.310140 -0.000000  0.125871 -0.000000  0.003998 -0.000000  0.001996
                                 0.000000 -0.001469 -0.000000  0.000529 -0.000000  0.000637 -0.000000 -0.000000  0.002066 -0.000000
                                -0.000000  0.000800 -0.000000

   2.2   2    -1.7549  -19.4041  0.000000 -0.000000  0.000000 -0.000000  0.000000 -0.000000  0.000000 -0.000001  0.000002 -0.000011
                                 0.000176 -0.000553  0.001779 -0.004391  0.003921  0.003164 -0.005104  0.003102 -0.011605 -0.012322
                                -0.004572  0.000518  0.012217 -0.000271  0.000115 -0.000025 -0.000022 -0.000000  0.000115  0.000000
                                 0.000035  0.000000  0.044319  0.000000  0.029644  0.000000  0.219784  0.000000  0.269684  0.000000
                                 0.364971  0.000000  0.310830  0.000000  0.122176  0.000000  0.002707  0.000000  0.002503  0.000000
                                -0.001675 -0.000000  0.000591  0.000000  0.001140 -0.000000 -0.000000  0.003707 -0.000000  0.000000
                                 0.001387  0.000000 -0.000000

   3.2   2    -3.1017  -19.3282 -0.000000  0.000000 -0.000002  0.000007 -0.000022  0.000063 -0.000176  0.000486 -0.001471  0.005435
                                -0.049266  0.129619 -0.263139  0.536437 -0.668059  0.151302  0.693093  0.030469  0.348333 -0.045145
                                 0.013418  0.000901  0.045079 -0.001172  0.000519 -0.000117 -0.000002  0.000000  0.000009 -0.000000
                                -0.000038  0.000000  0.000746 -0.000000 -0.000366  0.000000  0.002689 -0.000000  0.001810 -0.000000
                                 0.005496 -0.000000  0.006007 -0.000000  0.000679 -0.000000  0.000025 -0.000000 -0.000035  0.000000
                                 0.000021 -0.000000 -0.000007  0.000000  0.000012  0.000000  0.000000  0.000049 -0.000000  0.000000
                                 0.000009  0.000000  0.000000

   4.2   0    -0.8385   -8.3421  0.000000 -0.000000  0.000000 -0.000002  0.000005 -0.000014  0.000038 -0.000106  0.000318 -0.001142
                                 0.007684 -0.014909  0.008422  0.082173 -0.198286  0.040040  0.448642 -0.166559  0.427619  4.903350
                                -0.745615 -0.653583 -4.847315  0.099855 -0.041385  0.008978 -0.000001  0.000000  0.000004 -0.000000
                                -0.000019  0.000000  0.000211 -0.000000 -0.000297  0.000000  0.000542 -0.000000 -0.000227 -0.000000
                                 0.002070 -0.000000  0.000694 -0.000000 -0.014619  0.000000 -0.014223  0.000000  0.003841 -0.000000
                                -0.002187  0.000000  0.000701 -0.000000 -0.000001 -0.000000  0.000000  0.000015 -0.000000 -0.000000
                                -0.000147  0.000000  0.000000

   5.2   0    -0.4906   -6.1492 -0.000000  0.000000 -0.000000  0.000000 -0.000001  0.000002 -0.000006  0.000016 -0.000050  0.000180
                                -0.001403  0.003214 -0.004600  0.000597  0.007917 -0.001723 -0.031066  0.015566 -0.025478 -1.672454
                                 0.090996 -0.018558  1.594735 -0.024948  0.009797 -0.002073 -0.000011 -0.000000  0.000067  0.000000
                                -0.000449 -0.000000 -0.005388 -0.000000 -0.013248 -0.000000 -0.038560 -0.000000 -0.060788 -0.000000
                                -0.060641 -0.000000 -0.042870 -0.000000  0.159481  0.000000  0.583954  0.000000  0.288181  0.000000
                                 0.136436  0.000000 -0.023266 -0.000000 -0.000181  0.000000 -0.000000 -0.001193  0.000000  0.000000
                                 0.003401 -0.000000 -0.000000

                                   1 2py     1 2py     1 2py     1 2py     1 2py     1 2py     1 2py     1 2py     1 2py     1 2py
                                   1 2py     1 2py     1 2py     1 2py     1 2py     1 2py     1 2py     1 2py     1 2py     1 2py
                                   1 2py     1 2py     1 2py     1 2py     1 2py     1 2py     1 4f1-    1 4f3-    1 4f1-    1 4f3-
                                   1 4f1-    1 4f3-    1 4f1-    1 4f3-    1 4f1-    1 4f3-    1 4f1-    1 4f3-    1 4f1-    1 4f3-
                                   1 4f1-    1 4f3-    1 4f1-    1 4f3-    1 4f1-    1 4f3-    1 4f1-    1 4f3-    1 4f1-    1 4f3-
                                   1 4f1-    1 4f3-    1 4f1-    1 4f3-    1 6h1-    1 6h3-    1 6h5-    1 6h1-    1 6h3-    1 6h5-
                                   1 6h1-    1 6h3-    1 6h5-

   1.3   2    -1.7163  -19.3534 -0.000000  0.000000 -0.000000  0.000000 -0.000000  0.000000 -0.000000  0.000000 -0.000000  0.000000
                                -0.000000  0.000000 -0.000000  0.000000 -0.000000 -0.000000  0.000000 -0.000000  0.000000  0.000000
                                 0.000000 -0.000000 -0.000000  0.000000 -0.000000  0.000000  0.000000 -0.000022 -0.000000  0.000114
                                -0.000000  0.000043 -0.000000  0.044370 -0.000000  0.029843 -0.000000  0.220063 -0.000000  0.269932
                                -0.000000  0.363145 -0.000000  0.310140 -0.000000  0.125871 -0.000000  0.003998 -0.000000  0.001996
                                 0.000000 -0.001469 -0.000000  0.000529 -0.000000  0.000637 -0.000000 -0.000000  0.002066 -0.000000
                                -0.000000  0.000800 -0.000000

   2.3   2    -1.7549  -19.4041  0.000000 -0.000000  0.000000 -0.000000  0.000000 -0.000000  0.000000 -0.000001  0.000002 -0.000011
                                 0.000176 -0.000553  0.001779 -0.004391  0.003921  0.003164 -0.005104  0.003102 -0.011605 -0.012322
                                -0.004572  0.000518  0.012217 -0.000271  0.000115 -0.000025 -0.000022 -0.000000  0.000115  0.000000
                                 0.000035  0.000000  0.044319  0.000000  0.029644  0.000000  0.219784  0.000000  0.269684  0.000000
                                 0.364971  0.000000  0.310830  0.000000  0.122176  0.000000  0.002707  0.000000  0.002503  0.000000
                                -0.001675 -0.000000  0.000591  0.000000  0.001140 -0.000000  0.000000  0.003707 -0.000000  0.000000
                                 0.001387  0.000000  0.000000

   3.3   2    -3.1017  -19.3282 -0.000000  0.000000 -0.000002  0.000007 -0.000022  0.000063 -0.000176  0.000486 -0.001471  0.005435
                                -0.049266  0.129619 -0.263139  0.536437 -0.668059  0.151302  0.693093  0.030469  0.348333 -0.045145
                                 0.013418  0.000901  0.045079 -0.001172  0.000519 -0.000117 -0.000002  0.000000  0.000009 -0.000000
                                -0.000038  0.000000  0.000746 -0.000000 -0.000366  0.000000  0.002689 -0.000000  0.001810 -0.000000
                                 0.005496 -0.000000  0.006007 -0.000000  0.000679 -0.000000  0.000025 -0.000000 -0.000035  0.000000
                                 0.000021 -0.000000 -0.000007  0.000000  0.000012  0.000000 -0.000000  0.000049 -0.000000  0.000000
                                 0.000009  0.000000 -0.000000

   4.3   0    -0.8385   -8.3421  0.000000 -0.000000  0.000000 -0.000002  0.000005 -0.000014  0.000038 -0.000106  0.000318 -0.001142
                                 0.007684 -0.014909  0.008422  0.082173 -0.198286  0.040040  0.448642 -0.166559  0.427619  4.903350
                                -0.745615 -0.653583 -4.847315  0.099855 -0.041385  0.008978 -0.000001  0.000000  0.000004 -0.000000
                                -0.000019  0.000000  0.000211 -0.000000 -0.000297  0.000000  0.000542 -0.000000 -0.000227 -0.000000
                                 0.002070 -0.000000  0.000694 -0.000000 -0.014619  0.000000 -0.014223  0.000000  0.003841 -0.000000
                                -0.002187  0.000000  0.000701 -0.000000 -0.000001 -0.000000 -0.000000  0.000015 -0.000000  0.000000
                                -0.000147  0.000000 -0.000000

   5.3   0    -0.4906   -6.1492 -0.000000  0.000000 -0.000000  0.000000 -0.000001  0.000002 -0.000006  0.000016 -0.000050  0.000180
                                -0.001403  0.003214 -0.004600  0.000597  0.007917 -0.001723 -0.031066  0.015566 -0.025478 -1.672454
                                 0.090996 -0.018558  1.594735 -0.024948  0.009797 -0.002073 -0.000011 -0.000000  0.000067  0.000000
                                -0.000449 -0.000000 -0.005388 -0.000000 -0.013248 -0.000000 -0.038560 -0.000000 -0.060788 -0.000000
                                -0.060641 -0.000000 -0.042870 -0.000000  0.159481  0.000000  0.583954  0.000000  0.288181  0.000000
                                 0.136436  0.000000 -0.023266 -0.000000 -0.000181  0.000000 -0.000000 -0.001193  0.000000  0.000000
                                 0.003401 -0.000000 -0.000000

                                   1 3d2-    1 3d2-    1 3d2-    1 3d2-    1 3d2-    1 3d2-    1 3d2-    1 3d2-    1 3d2-    1 3d2-
                                   1 3d2-    1 3d2-    1 3d2-    1 3d2-    1 3d2-    1 3d2-    1 3d2-    1 3d2-    1 3d2-    1 5g2-
                                   1 5g4-    1 5g2-    1 5g4-    1 5g2-    1 5g4-    1 5g2-    1 5g4-    1 5g2-    1 5g4-    1 5g2-
                                   1 5g4-

   1.4   0    -1.3374  -13.9689 -0.000013  0.000069 -0.000246  0.000781 -0.002618  0.014165 -0.037060  0.035570 -0.018154 -0.077028
                                 0.442556  0.592060  0.170395 -0.106449  0.123886 -0.050812  0.007661 -0.002412  0.000602 -0.000394
                                 0.000000  0.005298 -0.000000  0.016696 -0.000000 -0.015205  0.000000  0.006494 -0.000000 -0.002207
                                 0.000000

   2.4   0    -0.5770   -6.3492  0.000006 -0.000032  0.000114 -0.000362  0.001216 -0.006602  0.017351 -0.016829  0.009473  0.030928
                                -0.200234 -0.312020  0.332840  1.135742 -0.677740  0.373546 -0.051580  0.017660 -0.004584  0.000132
                                -0.000000 -0.002162  0.000000 -0.003448  0.000000  0.008347 -0.000000  0.000985 -0.000000  0.001259
                                -0.000000

                                   1 2pz     1 2pz     1 2pz     1 2pz     1 2pz     1 2pz     1 2pz     1 2pz     1 2pz     1 2pz
                                   1 2pz     1 2pz     1 2pz     1 2pz     1 2pz     1 2pz     1 2pz     1 2pz     1 2pz     1 2pz
                                   1 2pz     1 2pz     1 2pz     1 2pz     1 2pz     1 2pz     1 4f0     1 4f2+    1 4f0     1 4f2+
                                   1 4f0     1 4f2+    1 4f0     1 4f2+    1 4f0     1 4f2+    1 4f0     1 4f2+    1 4f0     1 4f2+
                                   1 4f0     1 4f2+    1 4f0     1 4f2+    1 4f0     1 4f2+    1 4f0     1 4f2+    1 4f0     1 4f2+
                                   1 4f0     1 4f2+    1 4f0     1 4f2+    1 6h2+    1 6h4+    1 6h0     1 6h2+    1 6h4+    1 6h0
                                   1 6h2+    1 6h4+    1 6h0

   1.5   2    -1.7405  -19.3855  0.000000 -0.000000  0.000000 -0.000000  0.000000 -0.000000  0.000000 -0.000000  0.000000 -0.000000
                                 0.000000 -0.000000  0.000000 -0.000000  0.000000 -0.000000 -0.000000 -0.000000 -0.000000  0.000000
                                 0.000000 -0.000000 -0.000000  0.000000 -0.000000  0.000000  0.000000 -0.000022 -0.000000  0.000114
                                -0.000000  0.000038 -0.000000  0.044339 -0.000000  0.029720 -0.000000  0.219893 -0.000000  0.269784
                                -0.000000  0.364289 -0.000000  0.310631 -0.000000  0.123598 -0.000000  0.003167 -0.000000  0.002325
                                 0.000000 -0.001604 -0.000000  0.000570  0.000955 -0.000000 -0.000000  0.003100 -0.000000 -0.000000
                                 0.001176 -0.000000 -0.000000

   2.5   2    -1.7602  -19.4118 -0.000000  0.000000 -0.000000  0.000000 -0.000000  0.000001 -0.000003  0.000009 -0.000026  0.000091
                                -0.000731  0.001813 -0.002873  0.004885 -0.007934  0.006780  0.007008  0.004097 -0.007614 -0.016056
                                -0.005068  0.000677  0.015922 -0.000356  0.000151 -0.000033 -0.000022 -0.000000  0.000115  0.000000
                                 0.000033  0.000000  0.044324  0.000000  0.029607  0.000000  0.219779  0.000000  0.269657  0.000000
                                 0.365266  0.000000  0.310930  0.000000  0.121681  0.000000  0.002567  0.000000  0.002550  0.000000
                                -0.001694 -0.000000  0.000597  0.000000  0.000000 -0.000000  0.001201  0.000000 -0.000000  0.003908
                                 0.000000 -0.000000  0.001455

   3.5   +    -3.2096  -19.4743 -0.000000  0.000001 -0.000002  0.000007 -0.000023  0.000068 -0.000189  0.000520 -0.001575  0.005823
                                -0.052628  0.138205 -0.279723  0.560348 -0.685419  0.151061  0.711462  0.032076  0.333324 -0.072154
                                 0.009211  0.002237  0.071832 -0.001756  0.000765 -0.000171 -0.000003 -0.000000  0.000020  0.000000
                                -0.000104  0.000000  0.000332  0.000000 -0.002126  0.000000 -0.001093  0.000000 -0.005397  0.000000
                                 0.001158  0.000000  0.004069  0.000000 -0.002822  0.000000  0.000042  0.000000 -0.000236  0.000000
                                 0.000142 -0.000000 -0.000049  0.000000 -0.000000 -0.000000 -0.000018 -0.000000 -0.000000  0.000009
                                 0.000000  0.000000 -0.000031

   4.5   0    -0.8583   -8.4621 -0.000000  0.000000 -0.000000  0.000001 -0.000003  0.000009 -0.000024  0.000067 -0.000200  0.000711
                                -0.004105  0.006121  0.007010 -0.103802  0.216831 -0.047574 -0.451288  0.128645 -0.384750 -4.687823
                                 0.779244  0.610611  4.631859 -0.094646  0.039154 -0.008486  0.000001 -0.000000 -0.000006  0.000000
                                 0.000027 -0.000000 -0.000285  0.000000  0.000427 -0.000000 -0.000698  0.000000  0.000363  0.000000
                                -0.002671  0.000000 -0.000725  0.000000  0.017935 -0.000000  0.016369 -0.000000 -0.004606  0.000000
                                 0.002535 -0.000000 -0.000812  0.000000  0.000000  0.000000  0.000001  0.000000  0.000000 -0.000018
                                -0.000000 -0.000000  0.000186

   5.5   0    -0.4918   -6.1554  0.000000 -0.000000  0.000000 -0.000000  0.000001 -0.000003  0.000009 -0.000025  0.000076 -0.000278
                                 0.002142 -0.004864  0.006749  0.000232 -0.013887  0.002696  0.051502 -0.024808  0.041850  2.675603
                                -0.149327  0.027968 -2.552246  0.039976 -0.015708  0.003324  0.000011  0.000000 -0.000067 -0.000000
                                 0.000447  0.000000  0.005405  0.000000  0.013224  0.000000  0.038606  0.000000  0.060782  0.000000
                                 0.060888  0.000000  0.042611  0.000000 -0.161851 -0.000000 -0.583504 -0.000000 -0.281784 -0.000000
                                -0.134578 -0.000000  0.023234  0.000000 -0.000000 -0.000000  0.000191  0.000000 -0.000000  0.001254
                                -0.000000  0.000000 -0.003600

                                   1 3d1+    1 3d1+    1 3d1+    1 3d1+    1 3d1+    1 3d1+    1 3d1+    1 3d1+    1 3d1+    1 3d1+
                                   1 3d1+    1 3d1+    1 3d1+    1 3d1+    1 3d1+    1 3d1+    1 3d1+    1 3d1+    1 3d1+    1 5g1+
                                   1 5g3+    1 5g1+    1 5g3+    1 5g1+    1 5g3+    1 5g1+    1 5g3+    1 5g1+    1 5g3+    1 5g1+
                                   1 5g3+

   1.6   0    -1.3839  -14.1079 -0.000013  0.000066 -0.000235  0.000749 -0.002516  0.013676 -0.035896  0.034496 -0.017264 -0.081070
                                 0.457993  0.592329  0.146781 -0.070135  0.071995 -0.025107  0.002566 -0.000576  0.000114 -0.000573
                                 0.000000  0.007572 -0.000000  0.023112 -0.000000 -0.021218  0.000000  0.009013 -0.000000 -0.003059
                                 0.000000

   2.6   0    -0.5858   -6.4125  0.000006 -0.000029  0.000104 -0.000330  0.001114 -0.006103  0.016156 -0.015740  0.008776  0.032893
                                -0.208359 -0.307906  0.376041  1.074060 -0.615297  0.330840 -0.044337  0.014951 -0.003855  0.000188
                                -0.000000 -0.003061  0.000000 -0.004270  0.000000  0.011442 -0.000000  0.001435 -0.000000  0.001639
                                -0.000000

                                   1 3d1-    1 3d1-    1 3d1-    1 3d1-    1 3d1-    1 3d1-    1 3d1-    1 3d1-    1 3d1-    1 3d1-
                                   1 3d1-    1 3d1-    1 3d1-    1 3d1-    1 3d1-    1 3d1-    1 3d1-    1 3d1-    1 3d1-    1 5g1-
                                   1 5g3-    1 5g1-    1 5g3-    1 5g1-    1 5g3-    1 5g1-    1 5g3-    1 5g1-    1 5g3-    1 5g1-
                                   1 5g3-

   1.7   0    -1.3839  -14.1079 -0.000013  0.000066 -0.000235  0.000749 -0.002516  0.013676 -0.035896  0.034496 -0.017264 -0.081070
                                 0.457993  0.592329  0.146781 -0.070135  0.071995 -0.025107  0.002566 -0.000576  0.000114 -0.000573
                                 0.000000  0.007572 -0.000000  0.023112 -0.000000 -0.021218  0.000000  0.009013 -0.000000 -0.003059
                                 0.000000

   2.7   0    -0.5858   -6.4125  0.000006 -0.000029  0.000104 -0.000330  0.001114 -0.006103  0.016156 -0.015740  0.008776  0.032893
                                -0.208359 -0.307906  0.376041  1.074060 -0.615297  0.330840 -0.044337  0.014951 -0.003855  0.000188
                                -0.000000 -0.003061  0.000000 -0.004270  0.000000  0.011442 -0.000000  0.001435 -0.000000  0.001639
                                -0.000000

                                   1 4f2-    1 4f2-    1 4f2-    1 4f2-    1 4f2-    1 4f2-    1 4f2-    1 4f2-    1 4f2-    1 4f2-
                                   1 4f2-    1 4f2-    1 4f2-    1 4f2-    1 6h4-    1 6h2-    1 6h4-    1 6h2-    1 6h4-    1 6h2-


   1.8   2    -1.7405  -19.3855 -0.000022  0.000114  0.000038  0.044339  0.029720  0.219893  0.269784  0.364289  0.310631  0.123598
                                 0.003167  0.002325 -0.001604  0.000570 -0.000000  0.000955 -0.000000  0.003100 -0.000000  0.001176

   2.8   0    -0.4873   -6.1083 -0.000011  0.000067 -0.000445 -0.005310 -0.013106 -0.038059 -0.060052 -0.059486 -0.043032  0.152344
                                 0.578031  0.300913  0.139895 -0.023099  0.000000 -0.000150  0.000000 -0.000994 -0.000000  0.002788

   3.8   0    -0.3123   -3.9244  0.000010 -0.000061  0.000392  0.003817  0.011011  0.029239  0.047763  0.044886  0.030021 -0.153169
                                -0.588642  0.124605  0.805479  0.190643 -0.000000  0.000116 -0.000000  0.000708  0.000000 -0.002396

 HOMO      1.8    -1.740535 =     -47.3624eV
 LUMO      2.1    -1.400635 =     -38.1132eV
 LUMO-HOMO         0.339899 =       9.2491eV


 **********************************************************************************************************************************
 DATASETS  * FILE   NREC   LENGTH (MB)   RECORD NAMES
              1      19       20.98       500      610      700      900      950      970     1000      129      960     1100
                                          VAR    BASINP    GEOM    SYMINP    ZMAT    AOBASIS   BASIS     P2S    ABASIS      S
                                         1400     1410     1420     1200     1210     1080     1600     1650     1700
                                           T        V       ECP      H0       H01     AOSYM     SMH    MOLCAS    OPER

              2       5        6.05       200      700     1000      520     4202
                                        OPTIONS   GEOM     BASIS   MCVARS     RHF

 PROGRAMS   *        TOTAL       RHF       INT
 CPU TIMES  *        65.89      1.99     63.36
 REAL TIME  *        72.01 SEC
 DISK USED  *         5.78 GB
 SF USED    *         0.09 MB
 GA USED    *         0.00 MB       (max)       0.00 MB       (current)
 **********************************************************************************************************************************
   -->
   <time start="11:14:56" end="11:16:07" cpu="65.89" system="5.42" real="72.01"/>
   <storage units="megabyte" memory="8001.84" sf="0.09" df="335.14" eaf="5443.34" ga="0.0"/>
  </jobstep><!--
  --><jobstep command="POP" commandset="POP">
   <!--


 PROGRAM * POP (Mulliken population analysis)


 Density matrix read from record         4202.2  Type=RHF/CHARGE (state 1.5)

 Population analysis by basis function type

 Unique atom        s        p        d        f        g    Total    Charge
   1  LU      1.99997  5.00030  0.00003 13.99942  0.00000 21.00000  + 4.00000


 **********************************************************************************************************************************
 DATASETS  * FILE   NREC   LENGTH (MB)   RECORD NAMES
              1      19       20.98       500      610      700      900      950      970     1000      129      960     1100
                                          VAR    BASINP    GEOM    SYMINP    ZMAT    AOBASIS   BASIS     P2S    ABASIS      S
                                         1400     1410     1420     1200     1210     1080     1600     1650     1700
                                           T        V       ECP      H0       H01     AOSYM     SMH    MOLCAS    OPER

              2       5        6.05       200      700     1000      520     4202
                                        OPTIONS   GEOM     BASIS   MCVARS     RHF

 PROGRAMS   *        TOTAL       POP       RHF       INT
 CPU TIMES  *        65.90      0.00      1.99     63.36
 REAL TIME  *        72.03 SEC
 DISK USED  *         5.78 GB
 SF USED    *         0.09 MB
 GA USED    *         0.00 MB       (max)       0.00 MB       (current)
 **********************************************************************************************************************************
   -->
   <time start="11:16:07" end="11:16:07" cpu="0.01" system="0.01" real="0.02"/>
   <storage units="megabyte" memory="8001.84" sf="0.09" df="335.14" eaf="5443.34" ga="0.0"/>
  </jobstep><!--
  --><jobstep command="MULTI" commandset="MULTI">
   <!--


 PROGRAM * MULTI (Direct Multiconfiguration SCF)       Authors: P.J. Knowles, H.-J. Werner (1984)     S.T. Elbert (1988)


 Number of closed-shell orbitals:   8 (   1   2   2   0   2   0   0   1 )
 Number of active  orbitals:        3 (   0   1   1   0   1   0   0   0 )
 Number of external orbitals:     378 (  86  60  60  31  60  31  31  19 )

 State symmetry 1

 Number of electrons:     5    Spin symmetry=Doublet   Space symmetry=5
 Number of states:        1
 Number of CSFs:          1   (1 determinants, 3 intermediate states)

 State symmetry 2

 Number of electrons:     5    Spin symmetry=Doublet   Space symmetry=3
 Number of states:        1
 Number of CSFs:          1   (1 determinants, 3 intermediate states)

 State symmetry 3

 Number of electrons:     5    Spin symmetry=Doublet   Space symmetry=2
 Number of states:        1
 Number of CSFs:          1   (1 determinants, 3 intermediate states)

 Molecular orbitals read from record     4202.2  Type=RHF/CANONICAL (state 1.5)
 *** IN SYMMETRY 1 ORBITAL  1 SYMMETRY CONTAMINATION OF 0.574D-02 HAS BEEN REMOVED

 EXTRA SYMMETRY OF MOS IN SYMMETRY 1:   1 2 3 1 2 3 1 2 3 1   4 6 5 2 3 1 4 6 2 3   5 1 2 3 1 1 2 3 1 4   6 2 5 3 1 4 6 5 1 3
                                        1 4 6 5 1 2 3 1 4 6   5 2 3 1 2 3 1 2 3 1   2 3 1 2 3 1 2 3 1 1   2 3 1 2 3 1 1 2 3 1
                                        1 1 1 1 1 1 2
 *** IN SYMMETRY 2 ORBITAL  1 SYMMETRY CONTAMINATION OF 0.255D-02 HAS BEEN REMOVED
 *** IN SYMMETRY 2 ORBITAL  2 SYMMETRY CONTAMINATION OF 0.487D-01 HAS BEEN REMOVED
 *** IN SYMMETRY 2 ORBITAL  3 SYMMETRY CONTAMINATION OF 0.600D-02 HAS BEEN REMOVED
 EXTRA SYMMETRY OF MOS IN SYMMETRY 2:   3 2 1 1 1 3 1 2 3 1   2 3 1 1 1 2 3 1 2 3   1 4 5 6 2 3 1 4 5 6   1 3 1 1 2 3 4 5 6 1
                                        2 3 1 1 2 3 1 2 3 1   1 2 3 1 2 3 1 1 1 1   1 2 2
 *** IN SYMMETRY 3 ORBITAL  1 SYMMETRY CONTAMINATION OF 0.255D-02 HAS BEEN REMOVED
 *** IN SYMMETRY 3 ORBITAL  2 SYMMETRY CONTAMINATION OF 0.487D-01 HAS BEEN REMOVED
 *** IN SYMMETRY 3 ORBITAL  3 SYMMETRY CONTAMINATION OF 0.600D-02 HAS BEEN REMOVED
 EXTRA SYMMETRY OF MOS IN SYMMETRY 3:   3 2 1 1 1 3 1 2 3 1   2 3 1 1 1 2 3 1 2 3   1 4 5 6 2 3 1 4 5 6   1 3 1 1 2 3 4 5 6 1
                                        2 3 1 1 2 3 1 2 3 1   1 2 3 1 2 3 1 1 1 1   1 2 2
 EXTRA SYMMETRY OF MOS IN SYMMETRY 4:   1 1 1 2 3 1 2 1 3 1   1 2 3 1 2 3 1 2 3 1   2 3 1 1 1 1 1 1 1 1   1
 *** IN SYMMETRY 5 ORBITAL  1 SYMMETRY CONTAMINATION OF 0.380D-02 HAS BEEN REMOVED
 *** IN SYMMETRY 5 ORBITAL  2 SYMMETRY CONTAMINATION OF 0.609D-01 HAS BEEN REMOVED
 *** IN SYMMETRY 5 ORBITAL  3 SYMMETRY CONTAMINATION OF 0.564D-02 HAS BEEN REMOVED
 EXTRA SYMMETRY OF MOS IN SYMMETRY 5:   3 2 1 1 1 3 1 2 3 1   2 3 1 1 1 2 3 1 2 3   1 6 4 5 2 3 1 6 4 5   1 3 1 1 2 3 6 4 5 1
                                        2 3 1 1 2 3 1 2 3 1   1 2 3 1 2 3 1 1 1 1   1 2 2
 EXTRA SYMMETRY OF MOS IN SYMMETRY 6:   1 1 1 2 3 1 2 3 1 1   1 2 3 1 2 3 1 2 3 1   2 3 1 1 1 1 1 1 1 1   1
 EXTRA SYMMETRY OF MOS IN SYMMETRY 7:   1 1 1 2 3 1 2 3 1 1   1 2 3 1 2 3 1 2 3 1   2 3 1 1 1 1 1 1 1 1   1
 *** IN SYMMETRY 8 ORBITAL  1 SYMMETRY CONTAMINATION OF 0.380D-02 HAS BEEN REMOVED
 EXTRA SYMMETRY OF MOS IN SYMMETRY 8:   1 1 1 1 1 1 3 2 1 3   2 1 1 3 2 1 1 1 1 1

 Wavefunction dump at record             5202.2

 Convergence thresholds  0.10E-01 (gradient)  0.10E-05 (energy)  0.10E-02 (step length)

 Weight factors for state symmetry  1:    0.33333
 Weight factors for state symmetry  2:    0.33333
 Weight factors for state symmetry  3:    0.33333

 Number of orbital rotations:      651   (     6 Core/Active    465 Core/Virtual   0 Active/Active    180 Active/Virtual)
 Total number of variables:        654


 ITER. MIC  NCI  NEG     ENERGY(VAR)     ENERGY(PROJ)   ENERGY CHANGE     GRAD(0)  GRAD(ORB)   GRAD(CI)     STEP       TIME

   1   36   12    0    -206.37087862    -206.37121894   -0.00034032    0.23372620 0.00000000 0.00000000  0.94D-02      0.86
   2   24   15    0    -206.37121814    -206.37121858   -0.00000044    0.26147064 0.00000001 0.00000000  0.54D-05      1.58

 ** WVFN ****  CONVERGENCE REACHED, FINAL GRADIENT:  0.68D-08



 Results for state 1.5
 =====================

 !MCSCF STATE 1.5 Energy             -206.371218578311
   --><property name="Energy" method="MCSCF" principal="true" stateSymmetry="5" stateNumber="1"
     value="-206.371218578311"/><!--
 Nuclear energy                         0.00000000
 Kinetic energy                       175.56308926
 One electron energy                 -364.35118811
 Two electron energy                  157.97996954
 Virial ratio                           2.17548181

 !MCSCF STATE 1.5 Dipole moment         0.00000000     0.00000000     0.00000000
 Dipole moment /Debye                   0.00000000     0.00000000     0.00000000
   --><property name="Dipole moment" method="MCSCF" principal="true" stateSymmetry="5"
     stateNumber="1" value="0.0 0.0 0.0"/><!--



 Results for state 1.3
 =====================

 !MCSCF STATE 1.3 Energy             -206.371218578311
   --><property name="Energy" method="MCSCF" principal="true" stateSymmetry="3" stateNumber="1"
     value="-206.371218578311"/><!--
 Nuclear energy                         0.00000000
 Kinetic energy                       175.56308926
 One electron energy                 -364.35118811
 Two electron energy                  157.97996954
 Virial ratio                           2.17548181

 !MCSCF STATE 1.3 Dipole moment         0.00000000     0.00000000     0.00000000
 Dipole moment /Debye                   0.00000000     0.00000000     0.00000000
   --><property name="Dipole moment" method="MCSCF" principal="true" stateSymmetry="3"
     stateNumber="1" value="0.0 0.0 0.0"/><!--



 Results for state 1.2
 =====================

 !MCSCF STATE 1.2 Energy             -206.371218578311
   --><property name="Energy" method="MCSCF" principal="true" stateSymmetry="2" stateNumber="1"
     value="-206.371218578311"/><!--
 Nuclear energy                         0.00000000
 Kinetic energy                       175.56308926
 One electron energy                 -364.35118811
 Two electron energy                  157.97996954
 Virial ratio                           2.17548181

 !MCSCF STATE 1.2 Dipole moment         0.00000000     0.00000000     0.00000000
 Dipole moment /Debye                   0.00000000     0.00000000     0.00000000
   --><property name="Dipole moment" method="MCSCF" principal="true" stateSymmetry="2"
     stateNumber="1" value="0.0 0.0 0.0"/><!--

 State-averaged charge density matrix saved on record  5202.2 (density set 1)


 NATURAL ORBITALS (state averaged)
 =================================

   Orb     Occ        Energy       Coefficients

                                   1 1s      1 1s      1 1s      1 1s      1 1s      1 1s      1 1s      1 1s      1 1s      1 1s
                                   1 1s      1 1s      1 1s      1 1s      1 1s      1 1s      1 1s      1 1s      1 1s      1 1s
                                   1 1s      1 1s      1 1s      1 1s      1 1s      1 1s      1 1s      1 1s      1 1s      1 1s
                                   1 1s      1 3d0     1 3d2+    1 3d0     1 3d2+    1 3d0     1 3d2+    1 3d0     1 3d2+    1 3d0
                                   1 3d2+    1 3d0     1 3d2+    1 3d0     1 3d2+    1 3d0     1 3d2+    1 3d0     1 3d2+    1 3d0
                                   1 3d2+    1 3d0     1 3d2+    1 3d0     1 3d2+    1 3d0     1 3d2+    1 3d0     1 3d2+    1 3d0
                                   1 3d2+    1 3d0     1 3d2+    1 3d0     1 3d2+    1 3d0     1 3d2+    1 3d0     1 3d2+    1 5g0
                                   1 5g4+    1 5g2+    1 5g0     1 5g4+    1 5g2+    1 5g0     1 5g4+    1 5g2+    1 5g0     1 5g4+
                                   1 5g2+    1 5g0     1 5g4+    1 5g2+    1 5g0     1 5g4+    1 5g2+

   1.1  2.00000    -4.207652    -0.000000  0.000001 -0.000004  0.000012 -0.000034  0.000096 -0.000321  0.001818  0.005992 -0.004329
                                 0.006624 -0.013067 -0.005651  0.036635 -0.197000  0.237248 -0.137423  0.471899 -1.063855  0.054636
                                 1.041737  0.332199  0.013446 -0.015992  0.029781 -0.047154  0.036115 -0.014490  0.005631 -0.001460
                                 0.000260  0.000000  0.000000  0.000000  0.000000  0.000000  0.000000  0.000000  0.000000  0.000000
                                 0.000000  0.000000  0.000000  0.000000  0.000000  0.000000  0.000000  0.000000  0.000000  0.000000
                                 0.000000  0.000000  0.000000  0.000000  0.000000  0.000000  0.000000  0.000000  0.000000  0.000000
                                 0.000000  0.000000  0.000000  0.000000  0.000000  0.000000  0.000000  0.000000  0.000000  0.000000
                                 0.000000  0.000000  0.000000  0.000000  0.000000  0.000000  0.000000  0.000000  0.000000  0.000000
                                 0.000000  0.000000  0.000000  0.000000  0.000000  0.000000  0.000000

                                   1 2px     1 2px     1 2px     1 2px     1 2px     1 2px     1 2px     1 2px     1 2px     1 2px
                                   1 2px     1 2px     1 2px     1 2px     1 2px     1 2px     1 2px     1 2px     1 2px     1 2px
                                   1 2px     1 2px     1 2px     1 2px     1 2px     1 2px     1 4f1+    1 4f3+    1 4f1+    1 4f3+
                                   1 4f1+    1 4f3+    1 4f1+    1 4f3+    1 4f1+    1 4f3+    1 4f1+    1 4f3+    1 4f1+    1 4f3+
                                   1 4f1+    1 4f3+    1 4f1+    1 4f3+    1 4f1+    1 4f3+    1 4f1+    1 4f3+    1 4f1+    1 4f3+
                                   1 4f1+    1 4f3+    1 4f1+    1 4f3+    1 6h1+    1 6h3+    1 6h5+    1 6h1+    1 6h3+    1 6h5+
                                   1 6h1+    1 6h3+    1 6h5+

   1.2  2.00000    -1.740452     0.000000  0.000000  0.000000  0.000000  0.000000  0.000000  0.000000  0.000000  0.000000  0.000000
                                 0.000000  0.000000  0.000000  0.000000  0.000000  0.000000  0.000000  0.000000  0.000000  0.000000
                                 0.000000  0.000000  0.000000  0.000000  0.000000  0.000000  0.000000 -0.000022  0.000000  0.000114
                                 0.000000  0.000038  0.000000  0.044340  0.000000  0.029722  0.000000  0.219900  0.000000  0.269794
                                 0.000000  0.364298  0.000000  0.310607  0.000000  0.123608  0.000000  0.003178  0.000000  0.002321
                                 0.000000 -0.001602  0.000000  0.000570  0.000000  0.000000  0.000000  0.000000  0.000000  0.000000
                                 0.000000  0.000000  0.000000

   2.2  2.00000    -1.740452     0.000000  0.000000  0.000000  0.000000  0.000000  0.000000  0.000000  0.000000  0.000000  0.000000
                                 0.000000  0.000000  0.000000  0.000000  0.000000  0.000000  0.000000  0.000000  0.000000  0.000000
                                 0.000000  0.000000  0.000000  0.000000  0.000000  0.000000 -0.000022  0.000000  0.000114  0.000000
                                 0.000038  0.000000  0.044340  0.000000  0.029722  0.000000  0.219900  0.000000  0.269794  0.000000
                                 0.364298  0.000000  0.310607  0.000000  0.123608  0.000000  0.003178  0.000000  0.002321  0.000000
                                -0.001602  0.000000  0.000570  0.000000  0.000000  0.000000  0.000000  0.000000  0.000000  0.000000
                                 0.000000  0.000000  0.000000

   3.2  1.66667    -3.020716    -0.000000  0.000001 -0.000002  0.000007 -0.000022  0.000064 -0.000179  0.000492 -0.001490  0.005507
                                -0.049895  0.131226 -0.266250  0.540937 -0.671331  0.151212  0.696525  0.031036  0.345422 -0.050467
                                 0.012552  0.001164  0.050351 -0.001287  0.000567 -0.000127  0.000000  0.000000  0.000000  0.000000
                                 0.000000  0.000000  0.000000  0.000000  0.000000  0.000000  0.000000  0.000000  0.000000  0.000000
                                 0.000000  0.000000  0.000000  0.000000  0.000000  0.000000  0.000000  0.000000  0.000000  0.000000
                                 0.000000  0.000000  0.000000  0.000000  0.000000  0.000000  0.000000  0.000000  0.000000  0.000000
                                 0.000000  0.000000  0.000000

                                   1 2py     1 2py     1 2py     1 2py     1 2py     1 2py     1 2py     1 2py     1 2py     1 2py
                                   1 2py     1 2py     1 2py     1 2py     1 2py     1 2py     1 2py     1 2py     1 2py     1 2py
                                   1 2py     1 2py     1 2py     1 2py     1 2py     1 2py     1 4f1-    1 4f3-    1 4f1-    1 4f3-
                                   1 4f1-    1 4f3-    1 4f1-    1 4f3-    1 4f1-    1 4f3-    1 4f1-    1 4f3-    1 4f1-    1 4f3-
                                   1 4f1-    1 4f3-    1 4f1-    1 4f3-    1 4f1-    1 4f3-    1 4f1-    1 4f3-    1 4f1-    1 4f3-
                                   1 4f1-    1 4f3-    1 4f1-    1 4f3-    1 6h1-    1 6h3-    1 6h5-    1 6h1-    1 6h3-    1 6h5-
                                   1 6h1-    1 6h3-    1 6h5-

   1.3  2.00000    -1.740452     0.000000  0.000000  0.000000  0.000000  0.000000  0.000000  0.000000  0.000000  0.000000  0.000000
                                 0.000000  0.000000  0.000000  0.000000  0.000000  0.000000  0.000000  0.000000  0.000000  0.000000
                                 0.000000  0.000000  0.000000  0.000000  0.000000  0.000000  0.000000 -0.000022  0.000000  0.000114
                                 0.000000  0.000038  0.000000  0.044340  0.000000  0.029722  0.000000  0.219900  0.000000  0.269794
                                 0.000000  0.364298  0.000000  0.310607  0.000000  0.123608  0.000000  0.003178  0.000000  0.002321
                                 0.000000 -0.001602  0.000000  0.000570  0.000000  0.000000  0.000000  0.000000  0.000000  0.000000
                                 0.000000  0.000000  0.000000

   2.3  2.00000    -1.740452     0.000000  0.000000  0.000000  0.000000  0.000000  0.000000  0.000000  0.000000  0.000000  0.000000
                                 0.000000  0.000000  0.000000  0.000000  0.000000  0.000000  0.000000  0.000000  0.000000  0.000000
                                 0.000000  0.000000  0.000000  0.000000  0.000000  0.000000 -0.000022  0.000000  0.000114  0.000000
                                 0.000038  0.000000  0.044340  0.000000  0.029722  0.000000  0.219900  0.000000  0.269794  0.000000
                                 0.364298  0.000000  0.310607  0.000000  0.123608  0.000000  0.003178  0.000000  0.002321  0.000000
                                -0.001602  0.000000  0.000570  0.000000  0.000000  0.000000  0.000000  0.000000  0.000000  0.000000
                                 0.000000  0.000000  0.000000

   3.3  1.66667    -3.020716    -0.000000  0.000001 -0.000002  0.000007 -0.000022  0.000064 -0.000179  0.000492 -0.001490  0.005507
                                -0.049895  0.131226 -0.266250  0.540937 -0.671331  0.151212  0.696525  0.031036  0.345422 -0.050467
                                 0.012552  0.001164  0.050351 -0.001287  0.000567 -0.000127  0.000000  0.000000  0.000000  0.000000
                                 0.000000  0.000000  0.000000  0.000000  0.000000  0.000000  0.000000  0.000000  0.000000  0.000000
                                 0.000000  0.000000  0.000000  0.000000  0.000000  0.000000  0.000000  0.000000  0.000000  0.000000
                                 0.000000  0.000000  0.000000  0.000000  0.000000  0.000000  0.000000  0.000000  0.000000  0.000000
                                 0.000000  0.000000  0.000000

                                   1 2pz     1 2pz     1 2pz     1 2pz     1 2pz     1 2pz     1 2pz     1 2pz     1 2pz     1 2pz
                                   1 2pz     1 2pz     1 2pz     1 2pz     1 2pz     1 2pz     1 2pz     1 2pz     1 2pz     1 2pz
                                   1 2pz     1 2pz     1 2pz     1 2pz     1 2pz     1 2pz     1 4f0     1 4f2+    1 4f0     1 4f2+
                                   1 4f0     1 4f2+    1 4f0     1 4f2+    1 4f0     1 4f2+    1 4f0     1 4f2+    1 4f0     1 4f2+
                                   1 4f0     1 4f2+    1 4f0     1 4f2+    1 4f0     1 4f2+    1 4f0     1 4f2+    1 4f0     1 4f2+
                                   1 4f0     1 4f2+    1 4f0     1 4f2+    1 6h2+    1 6h4+    1 6h0     1 6h2+    1 6h4+    1 6h0
                                   1 6h2+    1 6h4+    1 6h0

   1.5  2.00000    -1.740452     0.000000  0.000000  0.000000  0.000000  0.000000  0.000000  0.000000  0.000000  0.000000  0.000000
                                 0.000000  0.000000  0.000000  0.000000  0.000000  0.000000  0.000000  0.000000  0.000000  0.000000
                                 0.000000  0.000000  0.000000  0.000000  0.000000  0.000000  0.000000 -0.000022  0.000000  0.000114
                                 0.000000  0.000038  0.000000  0.044340  0.000000  0.029722  0.000000  0.219900  0.000000  0.269794
                                 0.000000  0.364298  0.000000  0.310607  0.000000  0.123608  0.000000  0.003178  0.000000  0.002321
                                 0.000000 -0.001602  0.000000  0.000570  0.000000  0.000000  0.000000  0.000000  0.000000  0.000000
                                 0.000000  0.000000  0.000000

   2.5  2.00000    -1.740452     0.000000  0.000000  0.000000  0.000000  0.000000  0.000000  0.000000  0.000000  0.000000  0.000000
                                 0.000000  0.000000  0.000000  0.000000  0.000000  0.000000  0.000000  0.000000  0.000000  0.000000
                                 0.000000  0.000000  0.000000  0.000000  0.000000  0.000000 -0.000022  0.000000  0.000114  0.000000
                                 0.000038  0.000000  0.044340  0.000000  0.029722  0.000000  0.219900  0.000000  0.269794  0.000000
                                 0.364298  0.000000  0.310607  0.000000  0.123608  0.000000  0.003178  0.000000  0.002321  0.000000
                                -0.001602  0.000000  0.000570  0.000000  0.000000  0.000000  0.000000  0.000000  0.000000  0.000000
                                 0.000000  0.000000  0.000000

   3.5  1.66667    -3.020716    -0.000000  0.000001 -0.000002  0.000007 -0.000022  0.000064 -0.000179  0.000492 -0.001490  0.005507
                                -0.049895  0.131226 -0.266250  0.540937 -0.671331  0.151212  0.696525  0.031036  0.345422 -0.050467
                                 0.012552  0.001164  0.050351 -0.001287  0.000567 -0.000127 -0.000000  0.000000  0.000000  0.000000
                                 0.000000  0.000000  0.000000  0.000000  0.000000  0.000000  0.000000  0.000000  0.000000  0.000000
                                 0.000000  0.000000  0.000000  0.000000  0.000000  0.000000  0.000000  0.000000  0.000000  0.000000
                                -0.000000  0.000000  0.000000  0.000000  0.000000  0.000000  0.000000  0.000000  0.000000  0.000000
                                 0.000000  0.000000  0.000000

                                   1 4f2-    1 4f2-    1 4f2-    1 4f2-    1 4f2-    1 4f2-    1 4f2-    1 4f2-    1 4f2-    1 4f2-
                                   1 4f2-    1 4f2-    1 4f2-    1 4f2-    1 6h4-    1 6h2-    1 6h4-    1 6h2-    1 6h4-    1 6h2-


   1.8  2.00000    -1.740452    -0.000022  0.000114  0.000038  0.044340  0.029722  0.219900  0.269794  0.364298  0.310607  0.123608
                                 0.003178  0.002321 -0.001602  0.000570  0.000000  0.000000  0.000000  0.000000  0.000000  0.000000

 Total charge:   4.000000000000


 EXTRA SYMMETRY OF MOS IN SYMMETRY 1:   1 2 3 1 3 2 1 3 2 1   5 6 4 3 2 1 6 5 4 3   2 1 3 2 1 1 2 3 1 6   4 5 3 2 1 6 5 4 2 3
                                        1 6 4 5 1 2 3 1 6 4   5 3 2 1 3 2 1 3 2 1   3 2 1 3 2 1 3 2 1 1   2 3 1 2 3 1 1 2 3 1
                                        1 1 1 1 1 1 1
 EXTRA SYMMETRY OF MOS IN SYMMETRY 2:   3 2 1 1 3 2 1 3 2 1   2 3 1 1 1 3 2 1 3 2   1 6 5 4 3 2 1 6 5 4   3 2 1 1 3 2 6 5 4 1
                                        3 2 1 1 3 2 1 3 2 1   1 2 3 1 2 3 1 1 1 1   1 1 1
 EXTRA SYMMETRY OF MOS IN SYMMETRY 3:   3 2 1 1 2 3 1 2 3 1   3 2 1 1 1 2 3 1 2 3   1 6 5 4 2 3 1 6 5 4   3 2 1 1 3 2 6 5 4 1
                                        3 2 1 1 3 2 1 3 2 1   1 3 2 1 3 2 1 1 1 1   1 1 1
 EXTRA SYMMETRY OF MOS IN SYMMETRY 4:   1 1 1 3 2 1 3 2 1 1   1 3 2 1 3 2 1 3 2 1   3 2 1 1 1 1 1 1 1 1   1
 EXTRA SYMMETRY OF MOS IN SYMMETRY 5:   3 2 1 1 2 3 1 3 2 1   2 3 1 1 1 2 3 1 3 2   1 4 6 5 3 2 1 6 4 5   2 3 1 1 2 3 6 4 5 1
                                        2 3 1 1 2 3 1 2 3 1   1 2 3 1 3 2 1 1 1 1   1 1 1
 EXTRA SYMMETRY OF MOS IN SYMMETRY 6:   1 1 1 3 2 1 2 3 1 1   1 2 3 1 2 3 1 2 3 1   2 3 1 1 1 1 1 1 1 1   1
 EXTRA SYMMETRY OF MOS IN SYMMETRY 7:   1 1 1 2 3 1 3 2 1 1   1 2 3 1 2 3 1 2 3 1   2 3 1 1 1 1 1 1 1 1   1
 EXTRA SYMMETRY OF MOS IN SYMMETRY 8:   1 1 1 1 1 1 3 2 1 3   2 1 1 2 3 1 1 1 1 1

 Natural orbital dump (state averaged) at molpro section  5202.2    (Orbital set 2)


 CI vector for state symmetry 1
 ==============================

 2 2 a           1.0000000

 TOTAL ENERGIES                      -206.37121858

 CI vector for state symmetry 2
 ==============================

 2 a 2           1.0000000

 TOTAL ENERGIES                      -206.37121858

 CI vector for state symmetry 3
 ==============================

 a 2 2           1.0000000

 TOTAL ENERGIES                      -206.37121858



 **********************************************************************************************************************************
 DATASETS  * FILE   NREC   LENGTH (MB)   RECORD NAMES
              1      20       36.87       500      610      700      900      950      970     1000      129      960     1100
                                          VAR    BASINP    GEOM    SYMINP    ZMAT    AOBASIS   BASIS     P2S    ABASIS      S
                                         1400     1410     1420     1200     1210     1080     1600     1650     1700     1380
                                           T        V       ECP      H0       H01     AOSYM     SMH    MOLCAS    OPER     JKOP

              2       6        9.38       200      700     1000      520     4202     5202
                                        OPTIONS   GEOM     BASIS   MCVARS     RHF     MCSCF

 PROGRAMS   *        TOTAL     MULTI       POP       RHF       INT
 CPU TIMES  *        68.50      2.58      0.00      1.99     63.36
 REAL TIME  *        74.83 SEC
 DISK USED  *         5.78 GB
 SF USED    *        61.27 MB
 GA USED    *         0.00 MB       (max)       0.00 MB       (current)
 **********************************************************************************************************************************
   -->
   <time start="11:16:07" end="11:16:10" cpu="2.6" system="0.18" real="2.8"/>
   <storage units="megabyte" memory="8001.84" sf="61.27" df="335.14" eaf="5443.34" ga="0.0"/>
  </jobstep><!--
  --><jobstep command="RHF-SCF" commandset="SCFPRO">
   <!--


 PROGRAM * RHF-SCF (OPEN SHELL)       Authors: W. Meyer, H.-J. Werner


 NUMBER OF ELECTRONS:      11+   10-    SPACE SYMMETRY=5    SPIN SYMMETRY: Doublet
 CONVERGENCE THRESHOLDS:    1.00E-05 (Density)    1.00E-07 (Energy)
 MAX. NUMBER OF ITERATIONS:        0
 INTERPOLATION TYPE:            DIIS
 INTERPOLATION STEPS:              2 (START)      1 (STEP)
 LEVEL SHIFTS:                 -0.60 (CLOSED) -0.30 (OPEN)

 Number of closed-shell orbitals:   10 (   1   3   3   0   2   0   0   1 )
 Number of open-shell orbitals:      1 (   0   0   0   0   1   0   0   0 )


 Molecular orbitals read from record     5202.2  Type=MCSCF/NATURAL (state averaged)

 Molecular orbital dump at record        2126.2

 ITERATION    DDIFF          GRAD             ENERGY        2-EL.EN.            DIPOLE MOMENTS         DIIS   ORB.
    1      0.000D+00      0.000D+00      -206.37121858    315.959939    0.00000    0.00000    0.00000    0    start

 Final alpha occupancy:   1   3   3   0   3   0   0   1
 Final beta  occupancy:   1   3   3   0   2   0   0   1

 !RHF STATE 1.5 Energy               -206.371218578312
   --><property name="Energy" method="RHF" principal="true" stateSymmetry="5" stateNumber="1"
     value="-206.371218578312"/><!--
 Nuclear energy                         0.00000000
 One-electron energy                 -364.35118811
 Two-electron energy                  157.97996954
 Virial quotient                       -1.17548181
 !RHF STATE 1.5 Dipole moment           0.00000000     0.00000000     0.00000000
 Dipole moment /Debye                   0.00000000     0.00000000     0.00000000
   --><property name="Dipole moment" method="RHF" principal="true" stateSymmetry="5"
     stateNumber="1" value="0.0 0.0 0.0"/><!--

 Orbital energies:

         1.1          2.1          3.1
     -4.207652    -1.335198    -1.335198

         1.2          2.2          3.2          4.2          5.2
     -1.740452    -1.740452    -3.020716    -0.841431    -0.486947

         1.3          2.3          3.3          4.3          5.3
     -1.740452    -1.740452    -3.020716    -0.841431    -0.486947

         1.4          2.4
     -1.335198    -0.579778

         1.5          2.5          3.5          4.5          5.5
     -1.740452    -1.740452    -3.020716    -0.841431    -0.486947

         1.6          2.6
     -1.335198    -0.579778

         1.7          2.7
     -1.335198    -0.579778

         1.8          2.8          3.8
     -1.740452    -0.486947    -0.312089

 HOMO      1.8    -1.740452 =     -47.3601eV
 LUMO      2.1    -1.335198 =     -36.3326eV
 LUMO-HOMO         0.405254 =      11.0275eV


 **********************************************************************************************************************************
 DATASETS  * FILE   NREC   LENGTH (MB)   RECORD NAMES
              1      20       36.87       500      610      700      900      950      970     1000      129      960     1100
                                          VAR    BASINP    GEOM    SYMINP    ZMAT    AOBASIS   BASIS     P2S    ABASIS      S
                                         1400     1410     1420     1200     1210     1080     1600     1650     1700     1380
                                           T        V       ECP      H0       H01     AOSYM     SMH    MOLCAS    OPER     JKOP

              2       7       12.90       200      700     1000      520     4202     5202     2126
                                        OPTIONS   GEOM     BASIS   MCVARS     RHF     MCSCF     RHF

 PROGRAMS   *        TOTAL       RHF     MULTI       POP       RHF       INT
 CPU TIMES  *        68.85      0.31      2.58      0.00      1.99     63.36
 REAL TIME  *        75.21 SEC
 DISK USED  *         5.78 GB
 SF USED    *        61.27 MB
 GA USED    *         0.00 MB       (max)       0.00 MB       (current)
 **********************************************************************************************************************************
   -->
   <time start="11:16:10" end="11:16:10" cpu="0.35" system="0.02" real="0.38"/>
   <storage units="megabyte" memory="8001.84" sf="61.27" df="335.14" eaf="5443.34" ga="0.0"/>
  </jobstep><!--
 SETTING SCF(12)        =      -206.37121858  AU
 SETTING _CC_NORM_MAX   =         2.00000000
  --><jobstep command="RCCSD(T)" commandset="CCSD">
   <!--


 PROGRAM * CCSD (Restricted open-shell coupled cluster)     Authors: C. Hampel, H.-J. Werner, 1991, M. Deegan, P.J. Knowles, 1992


 Convergence thresholds:  THRVAR = 1.00D-08  THRDEN = 1.00D-06

 CCSD(T)     terms to be evaluated (factor= 1.000)


 Number of closed-shell orbitals:  10 (   1   3   3   0   2   0   0   1 )
 Number of active  orbitals:        1 (   0   0   0   0   1   0   0   0 )
 Number of external orbitals:     378 (  86  60  60  31  60  31  31  19 )

 Memory could be reduced to 130.95 Mwords without degradation in triples

 Number of N-1 electron functions:              21
 Number of N-2 electron functions:             210
 Number of singly external CSFs:              1235
 Number of doubly external CSFs:           2899273
 Total number of CSFs:                     2900508

 Molecular orbitals read from record     2126.2  Type=RHF/CANONICAL (state 1.5)

 Integral transformation finished. Total CPU:   3.35 sec, npass=  1  Memory used:  24.55 MW

 Starting RMP2 calculation

 Wavefunction is spin-projected

 ITER.      SQ.NORM     CORR.ENERGY   TOTAL ENERGY   ENERGY CHANGE        DEN1      VAR(S)    VAR(P)  DIIS     TIME
   1      1.68467464    -2.43383260  -208.80505118    -2.43383260    -0.04786419  0.27D-04  0.29D-01  1  1     4.73
   2      1.78838698    -2.49253352  -208.86375210    -0.05870092    -0.00240092  0.22D-05  0.22D-02  2  2     5.03
   3      1.82573680    -2.50428087  -208.87549945    -0.01174735    -0.00028224  0.16D-04  0.45D-03  3  3     5.40
   4      1.83678391    -2.50530511  -208.87652369    -0.00102424    -0.00008508  0.18D-03  0.22D-03  4  4     5.76
   5      1.84359850    -2.50578641  -208.87700499    -0.00048130    -0.00006117  0.60D-04  0.12D-03  5  5     6.09
   6      1.86316060    -2.50685372  -208.87807230    -0.00106731    -0.00000586  0.16D-07  0.91D-05  6  6     6.60
   7      1.86472579    -2.50691753  -208.87813611    -0.00006381    -0.00000329  0.80D-09  0.54D-05  6  1     7.46
   8      1.86611054    -2.50693777  -208.87815635    -0.00002024    -0.00000069  0.25D-09  0.10D-05  6  2     7.93
   9      1.86664360    -2.50694531  -208.87816389    -0.00000754    -0.00000018  0.12D-10  0.28D-06  6  3     8.41
  10      1.86682457    -2.50695843  -208.87817701    -0.00001312    -0.00000008  0.45D-08  0.14D-06  6  5     8.90
  11      1.86686045    -2.50696565  -208.87818422    -0.00000721    -0.00000003  0.48D-07  0.80D-07  6  6     9.41
  12      1.86686218    -2.50696838  -208.87818696    -0.00000273    -0.00000003  0.54D-08  0.51D-07  6  4     9.99
  13      1.86684780    -2.50696661  -208.87818519     0.00000177    -0.00000001  0.15D-10  0.19D-07  6  1    10.47
  14      1.86686892    -2.50696303  -208.87818161     0.00000358    -0.00000001  0.49D-11  0.90D-08  6  2    10.95
  15      1.86693538    -2.50696522  -208.87818379    -0.00000219    -0.00000000  0.74D-12  0.32D-08  6  3    11.43
  16      1.86698684    -2.50696945  -208.87818802    -0.00000423    -0.00000000  0.12D-12  0.14D-08  6  5    11.91
  17      1.86700232    -2.50697038  -208.87818896    -0.00000093    -0.00000000  0.53D-11  0.66D-09  6  6    12.41

 Norm of t1 vector:      0.04071164      S-energy:    -0.00659744      T1 diagnostic:  0.00391271
 Norm of t2 vector:      0.93023915      P-energy:    -2.50037294
                                         Alpha-Beta:  -1.66612275
                                         Alpha-Alpha: -0.42938629
                                         Beta-Beta:   -0.40486390

 Spin contamination <S**2-Sz**2-Sz>     0.00000000
  Reference energy                   -206.371218578312
   --><property name="energy" method="Reference" stateSymmetry="1" stateNumber="1"
     value="-206.371218578312"/><!--
  RHF-RMP2 correlation energy          -2.506970379521
   --><property name="energy" method="RHF-RMP2 correlation" stateSymmetry="1" stateNumber="1"
     value="-2.50697037952129"/><!--
 !RHF-RMP2 energy                    -208.878188957833
   --><property name="energy" method="RHF-RMP2" principal="true" stateSymmetry="5"
     stateNumber="1" value="-208.878188957833"/><!--
 (NB above energy spin projected)

 Starting RCCSD calculation

 ITER.      SQ.NORM     CORR.ENERGY   TOTAL ENERGY   ENERGY CHANGE        DEN1      VAR(S)    VAR(P)  DIIS     TIME
   1      1.25202251    -1.55884770  -207.93006628    -1.55884770    -0.28517347  0.18D-02  0.66D-01  0  0    15.47
   2      1.40295519    -1.84240698  -208.21362556    -0.28355928    -0.05317186  0.63D-03  0.23D-01  0  0    17.82
   3      1.42941669    -1.74707436  -208.11829294     0.09533262    -0.01636303  0.29D-03  0.14D-01  1  1    19.93
   4      1.51987689    -1.78216569  -208.15338426    -0.03509133    -0.01219719  0.11D-03  0.18D-01  2  2    22.17
   5      1.38979652    -1.77320375  -208.14442232     0.00896194    -0.00594927  0.34D-02  0.85D-02  3  3    24.44
   6      1.35344502    -1.76935142  -208.14057000     0.00385233    -0.00438511  0.87D-03  0.48D-02  4  4    26.99
   7      1.37853446    -1.77052382  -208.14174240    -0.00117240    -0.00221981  0.15D-04  0.23D-02  5  5    30.74
   8      1.42414254    -1.77455895  -208.14577753    -0.00403513    -0.00207692  0.24D-05  0.30D-02  6  6    33.24
   9      1.41200655    -1.77389307  -208.14511165     0.00066588    -0.00180142  0.28D-05  0.24D-02  7  7    35.60
  10      1.41627155    -1.77480192  -208.14602050    -0.00090885    -0.00083435  0.85D-05  0.11D-02  8  8    38.94
  11      1.43099640    -1.77641946  -208.14763804    -0.00161754    -0.00074959  0.18D-05  0.11D-02  9  9    42.94
  12      1.42884710    -1.77604840  -208.14726698     0.00037105    -0.00055633  0.98D-05  0.75D-03 10 10    48.17
  13      1.43163945    -1.77595451  -208.14717309     0.00009389    -0.00020262  0.15D-04  0.24D-03 11 11    53.08
  14      1.43638723    -1.77615668  -208.14737525    -0.00020216    -0.00022728  0.70D-06  0.29D-03 12 12    57.46
  15      1.43659845    -1.77584856  -208.14706714     0.00030811    -0.00014447  0.36D-05  0.16D-03 13 13    63.88
  16      1.44520538    -1.77592901  -208.14714759    -0.00008045    -0.00008020  0.43D-05  0.78D-04 14 14    68.90
  17      1.45028704    -1.77595375  -208.14717233    -0.00002474    -0.00004686  0.28D-05  0.48D-04 15 15    75.30
  18      1.45234348    -1.77609003  -208.14730861    -0.00013628    -0.00004492  0.49D-06  0.55D-04 15  4    84.07
  19      1.45248460    -1.77607264  -208.14729122     0.00001739    -0.00003761  0.52D-05  0.44D-04 15  1    90.58
  20      1.45301181    -1.77611220  -208.14733078    -0.00003956    -0.00003033  0.41D-05  0.32D-04 15  3    99.79
  21      1.45752070    -1.77622464  -208.14744322    -0.00011244    -0.00001470  0.21D-06  0.14D-04 15 13   106.65
  22      1.46163827    -1.77617569  -208.14739427     0.00004895    -0.00000792  0.38D-07  0.98D-05 15  2   112.10
  23      1.46212809    -1.77625149  -208.14747007    -0.00007580    -0.00000904  0.23D-07  0.13D-04 15  5   118.47
  24      1.46205437    -1.77623113  -208.14744970     0.00002037    -0.00000896  0.29D-07  0.13D-04 15  6   128.42
  25      1.46256339    -1.77620692  -208.14742550     0.00002421    -0.00000592  0.71D-07  0.74D-05 15  9   135.89
  26      1.46382333    -1.77622204  -208.14744062    -0.00001512    -0.00000474  0.25D-07  0.92D-05 15  7   143.41
  27      1.46428343    -1.77621806  -208.14743664     0.00000398    -0.00000308  0.19D-07  0.40D-05 15  8   150.05
  28      1.46472565    -1.77614865  -208.14736722     0.00006941    -0.00000404  0.23D-07  0.63D-05 15 10   159.56
  29      1.46526488    -1.77618160  -208.14740018    -0.00003296    -0.00000364  0.28D-07  0.53D-05 15 11   166.69
  30      1.46510825    -1.77622026  -208.14743884    -0.00003866    -0.00000357  0.56D-07  0.64D-05 15  8   173.58
  31      1.46454675    -1.77620381  -208.14742238     0.00001646    -0.00000211  0.79D-07  0.26D-05 15  3   181.38
  32      1.46498200    -1.77634714  -208.14756572    -0.00014333    -0.00000126  0.76D-08  0.15D-05 15  1   188.35
  33      1.46555543    -1.77632037  -208.14753895     0.00002677    -0.00000136  0.17D-07  0.18D-05 15 14   196.42
  34      1.46552673    -1.77630500  -208.14752358     0.00001537    -0.00000135  0.18D-07  0.19D-05 15  9   203.73
  35      1.46523963    -1.77632649  -208.14754507    -0.00002149    -0.00000119  0.26D-07  0.15D-05 15  3   213.49
  36      1.46527692    -1.77632930  -208.14754788    -0.00000281    -0.00000119  0.24D-07  0.15D-05 15  8   221.17
  37      1.46511187    -1.77633654  -208.14755511    -0.00000723    -0.00000111  0.52D-07  0.13D-05 15 13   233.67
  38      1.46470284    -1.77636246  -208.14758103    -0.00002592    -0.00000068  0.25D-06  0.82D-06 15 12   240.30
  39      1.46495819    -1.77638757  -208.14760614    -0.00002511    -0.00000049  0.64D-08  0.67D-06 15  7   248.71
  40      1.46426215    -1.77639043  -208.14760901    -0.00000287    -0.00000067  0.11D-06  0.79D-06 15 15   256.18
  41      1.46418637    -1.77639536  -208.14761393    -0.00000492    -0.00000079  0.28D-07  0.99D-06 15  4   262.26
  42      1.46429807    -1.77637686  -208.14759544     0.00001849    -0.00000057  0.14D-07  0.59D-06 15  2   270.99
  43      1.46436548    -1.77635783  -208.14757641     0.00001903    -0.00000051  0.72D-08  0.62D-06 15  6   275.20
  44      1.46439356    -1.77636637  -208.14758495    -0.00000854    -0.00000046  0.11D-07  0.54D-06 15  5   282.56
  45      1.46438714    -1.77636794  -208.14758651    -0.00000156    -0.00000046  0.23D-07  0.51D-06 15  2   290.79
  46      1.46448868    -1.77636267  -208.14758125     0.00000526    -0.00000049  0.44D-08  0.59D-06 15 15   300.38
  47      1.46449984    -1.77636506  -208.14758363    -0.00000238    -0.00000048  0.69D-08  0.57D-06 15 11   305.44
  48      1.46449011    -1.77636562  -208.14758420    -0.00000057    -0.00000048  0.52D-08  0.57D-06 15 10   314.37
  49      1.46448302    -1.77636077  -208.14757935     0.00000485    -0.00000048  0.16D-08  0.57D-06 15  7   322.54
  50      1.46449688    -1.77635814  -208.14757671     0.00000263    -0.00000047  0.12D-08  0.56D-06 15  8   328.32
  51      1.46453272    -1.77636255  -208.14758112    -0.00000441    -0.00000046  0.11D-08  0.56D-06 15 13   337.30
  52      1.46457157    -1.77636545  -208.14758402    -0.00000290    -0.00000045  0.13D-08  0.53D-06 15 14   345.35
  53      1.46457476    -1.77636488  -208.14758345     0.00000057    -0.00000045  0.12D-08  0.54D-06 15 12   350.85
  54      1.46462362    -1.77636577  -208.14758435    -0.00000089    -0.00000045  0.80D-09  0.54D-06 15  1   360.34
  55      1.46453068    -1.77637865  -208.14759723    -0.00001288    -0.00000041  0.32D-08  0.47D-06 15  3   365.19
  56      1.46415398    -1.77637456  -208.14759313     0.00000409    -0.00000037  0.15D-08  0.44D-06 15  9   371.11
  57      1.46415526    -1.77638906  -208.14760763    -0.00001450    -0.00000036  0.13D-08  0.42D-06 15 14   376.50
  58      1.46416974    -1.77638405  -208.14760263     0.00000500    -0.00000039  0.51D-08  0.50D-06 15  5   380.96
  59      1.46422192    -1.77636467  -208.14758325     0.00001938    -0.00000041  0.31D-08  0.55D-06 15 14   386.02
  60      1.46417949    -1.77638469  -208.14760327    -0.00002002    -0.00000039  0.37D-08  0.49D-06 15  9   392.16
  61      1.46417691    -1.77638298  -208.14760156     0.00000171    -0.00000040  0.50D-08  0.50D-06 15 14   397.68
  62      1.46420889    -1.77637322  -208.14759180     0.00000976    -0.00000040  0.26D-08  0.51D-06 15  9   401.81
  63      1.46408113    -1.77639360  -208.14761217    -0.00002038    -0.00000036  0.22D-07  0.45D-06 15  6   406.70
  64      1.46401774    -1.77639632  -208.14761489    -0.00000272    -0.00000037  0.34D-08  0.45D-06 15 13   413.64
  65      1.46400289    -1.77638759  -208.14760617     0.00000873    -0.00000033  0.66D-08  0.38D-06 15 15   418.39
  66      1.46398526    -1.77638405  -208.14760262     0.00000354    -0.00000032  0.23D-07  0.39D-06 15  7   427.80
  67      1.46387624    -1.77637720  -208.14759578     0.00000685    -0.00000028  0.26D-07  0.34D-06 15  2   436.21
  68      1.46387284    -1.77637519  -208.14759377     0.00000201    -0.00000033  0.48D-08  0.44D-06 15  4   442.42
  69      1.46382592    -1.77637344  -208.14759201     0.00000176    -0.00000030  0.99D-08  0.39D-06 15 12   447.87
  70      1.46384173    -1.77637886  -208.14759744    -0.00000542    -0.00000030  0.10D-07  0.38D-06 15  6   453.67
  71      1.46382108    -1.77637671  -208.14759528     0.00000215    -0.00000030  0.57D-08  0.38D-06 15 10   459.13
  72      1.46382263    -1.77637446  -208.14759303     0.00000225    -0.00000030  0.86D-08  0.38D-06 15 11   464.36
  73      1.46383087    -1.77637519  -208.14759377    -0.00000074    -0.00000030  0.71D-08  0.38D-06 15  8   469.57
  74      1.46382626    -1.77637327  -208.14759185     0.00000193    -0.00000030  0.79D-08  0.37D-06 15  5   477.37
  75      1.46388020    -1.77637372  -208.14759230    -0.00000045    -0.00000028  0.42D-08  0.36D-06 15  1   485.82
  76      1.46389222    -1.77637070  -208.14758928     0.00000301    -0.00000030  0.79D-08  0.38D-06 15  3   491.47
  77      1.46382467    -1.77637261  -208.14759118    -0.00000190    -0.00000029  0.68D-08  0.37D-06 15  8   498.23
  78      1.46378653    -1.77637649  -208.14759506    -0.00000388    -0.00000033  0.55D-08  0.45D-06 15 12   503.59
  79      1.46375876    -1.77637635  -208.14759493     0.00000013    -0.00000029  0.80D-08  0.36D-06 15 15   508.19
  80      1.46404231    -1.77639346  -208.14761204    -0.00001711    -0.00000022  0.19D-07  0.31D-06 15  7   513.00
  81      1.46411360    -1.77639346  -208.14761204     0.00000000    -0.00000021  0.16D-07  0.29D-06 15 13   521.25
  82      1.46412514    -1.77639171  -208.14761029     0.00000175    -0.00000021  0.16D-07  0.30D-06 15 14   526.75
  83      1.46411119    -1.77639128  -208.14760985     0.00000043    -0.00000021  0.15D-07  0.30D-06 15 15   532.29
  84      1.46410312    -1.77640112  -208.14761970    -0.00000984    -0.00000018  0.10D-07  0.25D-06 15 11   538.25
  85      1.46435351    -1.77640341  -208.14762199    -0.00000229    -0.00000015  0.15D-07  0.23D-06 15  9   544.40
  86      1.46452465    -1.77641250  -208.14763107    -0.00000909    -0.00000010  0.55D-07  0.14D-06 15  6   548.85
  87      1.46459698    -1.77642867  -208.14764725    -0.00001617    -0.00000010  0.92D-09  0.15D-06 15  4   555.37
  88      1.46468784    -1.77641903  -208.14763761     0.00000964    -0.00000009  0.58D-08  0.14D-06 15  2   562.39
  89      1.46469340    -1.77642790  -208.14764648    -0.00000887    -0.00000008  0.80D-08  0.99D-07 15 15   570.97
  90      1.46470594    -1.77642900  -208.14764758    -0.00000110    -0.00000007  0.56D-08  0.10D-06 15 14   576.87
  91      1.46475716    -1.77642396  -208.14764254     0.00000504    -0.00000007  0.41D-08  0.11D-06 15  4   583.64
  92      1.46478950    -1.77641712  -208.14763570     0.00000684    -0.00000008  0.20D-08  0.12D-06 15  6   589.00
  93      1.46477219    -1.77642471  -208.14764329    -0.00000759    -0.00000007  0.30D-08  0.10D-06 15  9   598.90
  94      1.46475751    -1.77643730  -208.14765587    -0.00001258    -0.00000005  0.15D-08  0.69D-07 15 15   604.48
  95      1.46468893    -1.77643989  -208.14765847    -0.00000260    -0.00000004  0.77D-08  0.61D-07 15 14   615.36
  96      1.46468646    -1.77644037  -208.14765895    -0.00000048    -0.00000004  0.65D-08  0.63D-07 15 10   620.33
  97      1.46472681    -1.77643926  -208.14765783     0.00000111    -0.00000004  0.29D-08  0.59D-07 15  3   632.30
  98      1.46474526    -1.77644600  -208.14766458    -0.00000675    -0.00000004  0.40D-09  0.54D-07 15 11   641.27
  99      1.46474534    -1.77644259  -208.14766117     0.00000341    -0.00000005  0.21D-08  0.65D-07 15 13   649.28

 Norm of t1 vector:      0.05600271      S-energy:    -0.00614674      T1 diagnostic:  0.00744810
                                                                       D1 diagnostic:  0.01451612
 Norm of t2 vector:      0.67941816      P-energy:    -1.77029586
                                         Alpha-Beta:  -1.29468209
                                         Alpha-Alpha: -0.24803560
                                         Beta-Beta:   -0.22757817

 Doubles amplitudes (print threshold =  0.500E-01):

         I         J         SYM. A    SYM. B    A         B      T(IJ, AB) [Alpha-Beta]

         2         2         1         1         2         2     -0.06814422
         2         2         4         4         1         1     -0.06814424
         3         3         1         1         1         1     -0.05285072
         3         3         5         5         2         1     -0.07297134
         3         3         6         6         1         1     -0.07248743
         5         5         1         1         2         2     -0.06814423
         5         5         4         4         1         1     -0.06814422
         6         6         1         1         1         1     -0.05285073
         6         6         5         5         2         1     -0.07297140
         6         6         7         7         1         1     -0.07248745
         8         8         1         1         2         2     -0.05757756
         8         8         5         5         2         1     -0.05946435
         8         8         6         6         1         1     -0.05433379
         8         8         7         7         1         1     -0.05433412
         9         9         1         1         1         1     -0.08392552
         9         9         5         5         2         1     -0.07710036
        11        11         4         4         1         1     -0.05757755
        11        11         5         5         2         1     -0.05946431
        11        11         6         6         1         1     -0.05433395
        11        11         7         7         1         1     -0.05433396

 ?CONVERGENCE NOT REACHED AFTER MAX. ITERATIONS

 ?ERROR: NO CONVERGENCE. TRIPLES WILL NOT BE DONE. THIS CAN BE AVOIDED USING THE NOCHECK OPTION.

 Spin contamination <S**2-Sz**2-Sz>     0.00000000


 RESULTS
 =======

  Reference energy                   -206.371218578312
   --><property name="energy" method="Reference" stateSymmetry="1" stateNumber="1"
     value="-206.371218578312"/><!--
  RCCSD singles energy                 -0.006146736795
   --><property name="energy" method="RCCSD singles" stateSymmetry="1" stateNumber="1"
     value="-0.614673679516753E-02"/><!--
  RCCSD pair energy                    -1.770295856687
   --><property name="energy" method="RCCSD pair" stateSymmetry="1" stateNumber="1"
     value="-1.77029585668737"/><!--
  RCCSD correlation energy             -1.776442593483
   --><property name="energy" method="RCCSD correlation" stateSymmetry="1" stateNumber="1"
     value="-1.77644259348254"/><!--

 !RHF-RCCSD energy                   -208.147661171794
   --><property name="energy" method="RHF-RCCSD" principal="true" stateSymmetry="1"
     stateNumber="1" value="-208.147661171794"/><!--

 Program statistics:

 Available memory in ccsd:               999998822
 Min. memory needed in ccsd:               8414451
 Max. memory used in ccsd:                11995148
 Max. memory used in cckext:               9114574 (99 integral passes)
 Max. memory used in cckint:              24550212 ( 1 integral passes)


 ? Error
 ? No convergence. This error exit can be avoided using the NOCHECK option
 ? The problem occurs in ccsd
   --><error type="Error" location="ccsd"
     message="No convergence. This error exit can be avoided using the NOCHECK option"/><!--
  --></jobstep><!--
  -->
  <input>
  <!--
 --></job><!--
--></molpro>
