<?xml version="1.0"?>
<molpro xmlns="http://www.molpro.net/schema/molpro-output"
  xmlns:xsd="http://www.w3.org/1999/XMLSchema"
  xmlns:cml="http://www.xml-cml.org/schema"
  xmlns:stm="http://www.xml-cml.org/schema"
  xmlns:xhtml="http://www.w3.org/1999/xhtml">
 <!--

 Nodes     nprocs
 nid12888    11
 Number of processes for MPI-2 version of Molpro:   nprocs(total)=   12   nprocs(compute)=   11   nprocs(helper)=    1

 Using customized tuning parameters: mindgm=7; mindgv=16; mindgc=1; mindgr=1; noblas=0; minvec=7
 default implementation of scratch files=sf

 --><job>
  <!--

 Variables initialized (889), CPU time= 0.02 sec
 Commands  initialized (702), CPU time= 0.01 sec, 572 directives.
 Default parameters read. Elapsed time= 0.14 sec

 Checking input...
 Passed
1


                                         ***  PROGRAM SYSTEM MOLPRO  ***
                                       Copyright, TTI GmbH Stuttgart, 2015
                                    Version 2015.1 linked Dec 29 2018 15:55:43


 **********************************************************************************************************************************
 LABEL *   Calculation for Lu atom, singlet and triplet
  64 bit mpp version                                                                     DATE: 30-Mar-23          TIME: 06:19:45
 **********************************************************************************************************************************

 SHA1:             19cd028119e0e09f93f0674bd8af7968d9b3eff6
 **********************************************************************************************************************************
  -->
  <!--

 THRESHOLDS:

 ZERO    =  1.00D-12  ONEINT  =  1.00D-12  TWOINT  =  1.00D-15  PREFAC  =  1.00D-14  LOCALI  =  1.00D-09  EORDER  =  1.00D-04
 ENERGY  =  0.00D+00  ETEST   =  0.00D+00  EDENS   =  0.00D+00  THRDEDEF=  1.00D-06  GRADIENT=  1.00D-02  STEP    =  1.00D-03
 ORBITAL =  1.00D-05  CIVEC   =  1.00D-05  COEFF   =  1.00D-04  PRINTCI =  5.00D-02  PUNCHCI =  9.90D+01  OPTGRAD =  3.00D-04
 OPTENERG=  1.00D-06  OPTSTEP =  3.00D-04  THRGRAD =  1.00D-10  COMPRESS=  1.00D-11  VARMIN  =  1.00D-07  VARMAX  =  1.00D-03
 THRDOUB =  0.00D+00  THRDIV  =  1.00D-05  THRRED  =  1.00D-07  THRPSP  =  1.00D+00  THRDC   =  1.00D-10  THRCS   =  1.00D-10
 THRNRM  =  1.00D-08  THREQ   =  0.00D+00  THRDE   =  1.00D+00  THRREF  =  1.00D-05  SPARFAC =  1.00D+00  THRDLP  =  1.00D-07
 THRDIA  =  1.00D-10  THRDLS  =  1.00D-07  THRGPS  =  0.00D+00  THRKEX  =  0.00D+00  THRDIS  =  2.00D-01  THRVAR  =  1.00D-10
 THRLOC  =  1.00D-06  THRGAP  =  1.00D-06  THRLOCT = -1.00D+00  THRGAPT = -1.00D+00  THRORB  =  1.00D-06  THRMLTP =  0.00D+00
 THRCPQCI=  1.00D-10  KEXTA   =  0.00D+00  THRCOARS=  0.00D+00  SYMTOL  =  1.00D-06  GRADTOL =  1.00D-06  THROVL  =  1.00D-08
 THRORTH =  1.00D-08  GRID    =  1.00D-06  GRIDMAX =  1.00D-03  DTMAX   =  0.00D+00  THROCCDE=  1.00D-01  THROCCDE=  1.00D-01



 THRESHOLDS:

 ZERO    =  1.00D-12  ONEINT  =  1.00D-15  TWOINT  =  1.00D-15  PREFAC  =  1.00D-14  LOCALI  =  1.00D-09  EORDER  =  1.00D-04
 ENERGY  =  0.00D+00  ETEST   =  0.00D+00  EDENS   =  0.00D+00  THRDEDEF=  1.00D-06  GRADIENT=  1.00D-02  STEP    =  1.00D-03
 ORBITAL =  1.00D-05  CIVEC   =  1.00D-05  COEFF   =  1.00D-04  PRINTCI =  5.00D-02  PUNCHCI =  9.90D+01  OPTGRAD =  3.00D-04
 OPTENERG=  1.00D-06  OPTSTEP =  3.00D-04  THRGRAD =  1.00D-10  COMPRESS=  1.00D-11  VARMIN  =  1.00D-07  VARMAX  =  1.00D-03
 THRDOUB =  0.00D+00  THRDIV  =  1.00D-05  THRRED  =  1.00D-07  THRPSP  =  1.00D+00  THRDC   =  1.00D-10  THRCS   =  1.00D-10
 THRNRM  =  1.00D-08  THREQ   =  0.00D+00  THRDE   =  1.00D+00  THRREF  =  1.00D-05  SPARFAC =  1.00D+00  THRDLP  =  1.00D-07
 THRDIA  =  1.00D-10  THRDLS  =  1.00D-07  THRGPS  =  0.00D+00  THRKEX  =  0.00D+00  THRDIS  =  2.00D-01  THRVAR  =  1.00D-10
 THRLOC  =  1.00D-06  THRGAP  =  1.00D-06  THRLOCT = -1.00D+00  THRGAPT = -1.00D+00  THRORB  =  1.00D-06  THRMLTP =  0.00D+00
 THRCPQCI=  1.00D-10  KEXTA   =  0.00D+00  THRCOARS=  0.00D+00  SYMTOL  =  1.00D-06  GRADTOL =  1.00D-06  THROVL  =  1.00D-08
 THRORTH =  1.00D-08  GRID    =  1.00D-06  GRIDMAX =  1.00D-03  DTMAX   =  0.00D+00  THROCCDE=  1.00D-01  THROCCDE=  1.00D-01



Geometry recognized as XYZ


 Variable memory set to 1000000000 words,  buffer space   230000 words

 SETTING BASIS          =    USERDEF

 DO I                   =        12.00000000

 Running procedure=VIIP5
  --><jobstep command="RHF-SCF" commandset="SCFPRO">
   <!--


 Recomputing integrals since basis changed


 Using spherical harmonics



 PROGRAM * SEWARD (Integral evaluation for generally contracted gaussian basis sets)     Author: Roland Lindh, 1990

 Geometry written to block  1 of record 700

 Orientation using atomic masses
 Molecule type: Atom
 Symmetry elements: X,Y,Z
 Rotational constants:       0.0000000      0.0000000      0.0000000 GHz  (calculated with average atomic masses)

 Point group  D2h


   --><cml:molecule>
    <cml:symmetry pointGroup="D2h"/>
    <cml:atomArray>
     <cml:atom id="a1" elementType="Lu" x3="0.0" y3="0.0" z3="0.0"/>
    </cml:atomArray>
    <cml:bondArray>
    </cml:bondArray>
   </cml:molecule><!--

 ATOMIC COORDINATES

 NR  ATOM    CHARGE       X              Y              Z

   1  LU     25.00    0.000000000    0.000000000    0.000000000

 NUCLEAR CHARGE:                   25
 NUMBER OF PRIMITIVE AOS:         581
 NUMBER OF SYMMETRY AOS:          442
 NUMBER OF CONTRACTIONS:          442   ( 103Ag  +  70B3u +  70B2u +  36B1g +  70B1u +  36B2g +  36B3g +  21Au  )
 NUMBER OF CORE ORBITALS:           0   (   0Ag  +   0B3u +   0B2u +   0B1g +   0B1u +   0B2g +   0B3g +   0Au  )
 NUMBER OF VALENCE ORBITALS:       17   (   4Ag  +   3B3u +   3B2u +   1B1g +   3B1u +   1B2g +   1B3g +   1Au  )


 NUCLEAR REPULSION ENERGY    0.00000000

 EXTRA SYMMETRY OF AOS IN SYMMETRY 1:   1 1 1 1 1 1 1 1 1 1   1 1 1 1 1 1 1 1 1 1   1 1 1 1 1 1 1 1 1 1   1 1 1 1 1 1 1 1 2 3
                                        2 3 2 3 2 3 2 3 2 3   2 3 2 3 2 3 2 3 2 3   2 3 2 3 2 3 2 3 2 3   2 3 2 3 2 3 2 3 2 3
                                        2 3 4 5 6 4 5 6 4 5   6 4 5 6 4 5 6 4 5 6   4 5 6
 EXTRA SYMMETRY OF AOS IN SYMMETRY 2:   1 1 1 1 1 1 1 1 1 1   1 1 1 1 1 1 1 1 1 1   1 1 1 1 1 1 1 1 1 1   1 2 3 2 3 2 3 2 3 2
                                        3 2 3 2 3 2 3 2 3 2   3 2 3 2 3 2 3 2 3 2   3 4 5 6 4 5 6 4 5 6
 EXTRA SYMMETRY OF AOS IN SYMMETRY 3:   1 1 1 1 1 1 1 1 1 1   1 1 1 1 1 1 1 1 1 1   1 1 1 1 1 1 1 1 1 1   1 2 3 2 3 2 3 2 3 2
                                        3 2 3 2 3 2 3 2 3 2   3 2 3 2 3 2 3 2 3 2   3 4 5 6 4 5 6 4 5 6
 EXTRA SYMMETRY OF AOS IN SYMMETRY 4:   1 1 1 1 1 1 1 1 1 1   1 1 1 1 1 1 1 1 1 1   1 1 2 3 2 3 2 3 2 3   2 3 2 3 2 3
 EXTRA SYMMETRY OF AOS IN SYMMETRY 5:   1 1 1 1 1 1 1 1 1 1   1 1 1 1 1 1 1 1 1 1   1 1 1 1 1 1 1 1 1 1   1 2 3 2 3 2 3 2 3 2
                                        3 2 3 2 3 2 3 2 3 2   3 2 3 2 3 2 3 2 3 2   3 4 5 6 4 5 6 4 5 6
 EXTRA SYMMETRY OF AOS IN SYMMETRY 6:   1 1 1 1 1 1 1 1 1 1   1 1 1 1 1 1 1 1 1 1   1 1 2 3 2 3 2 3 2 3   2 3 2 3 2 3
 EXTRA SYMMETRY OF AOS IN SYMMETRY 7:   1 1 1 1 1 1 1 1 1 1   1 1 1 1 1 1 1 1 1 1   1 1 2 3 2 3 2 3 2 3   2 3 2 3 2 3
 EXTRA SYMMETRY OF AOS IN SYMMETRY 8:   1 1 1 1 1 1 1 1 1 1   1 1 1 1 1 2 3 2 3 2   3

 Eigenvalues of metric

         1 0.333E-06 0.964E-06 0.340E-05 0.186E-04 0.475E-04 0.703E-04 0.799E-04 0.799E-04
         2 0.960E-06 0.179E-05 0.251E-04 0.110E-03 0.525E-03 0.525E-03 0.534E-03 0.156E-02
         3 0.960E-06 0.179E-05 0.251E-04 0.110E-03 0.525E-03 0.525E-03 0.534E-03 0.156E-02
         4 0.799E-04 0.144E-03 0.223E-02 0.632E-02 0.897E-02 0.238E-01 0.240E-01 0.240E-01
         5 0.960E-06 0.179E-05 0.251E-04 0.110E-03 0.525E-03 0.525E-03 0.534E-03 0.156E-02
         6 0.799E-04 0.144E-03 0.223E-02 0.632E-02 0.897E-02 0.238E-01 0.240E-01 0.240E-01
         7 0.799E-04 0.144E-03 0.223E-02 0.632E-02 0.897E-02 0.238E-01 0.240E-01 0.240E-01
         8 0.525E-03 0.142E-01 0.219E-01 0.528E-01 0.103E+00 0.167E+00 0.268E+00 0.268E+00


 Contracted 2-electron integrals neglected if value below      1.0D-15
 AO integral compression algorithm  1   Integral accuracy      1.0D-15

     3531.604 MB (compressed) written to integral file ( 42.0%)

     Node minimum: 171.442 MB, node maximum: 442.761 MB


 NUMBER OF SORTED TWO-ELECTRON INTEGRALS:   55663847.     BUFFER LENGTH:  32768
 NUMBER OF SEGMENTS:   2  SEGMENT LENGTH:   31999613      RECORD LENGTH: 524288

 Memory used in sort:      32.56 MW

 SORT1 READ  1050599776. AND WROTE    32122433. INTEGRALS IN     93 RECORDS. CPU TIME:    25.42 SEC, REAL TIME:    29.63 SEC
 SORT2 READ   352987961. AND WROTE   613618504. INTEGRALS IN  11990 RECORDS. CPU TIME:     1.34 SEC, REAL TIME:     1.99 SEC

 Node minimum:    55639389.  Node maximum:    55868715. integrals

 OPERATOR DM      FOR CENTER  0  COORDINATES:    0.000000    0.000000    0.000000


 **********************************************************************************************************************************
 DATASETS  * FILE   NREC   LENGTH (MB)   RECORD NAMES
              1      19       21.26       500      610      700      900      950      970     1000      129      960     1100
                                          VAR    BASINP    GEOM    SYMINP    ZMAT    AOBASIS   BASIS     P2S    ABASIS      S
                                         1400     1410     1420     1200     1210     1080     1600     1650     1700
                                           T        V       ECP      H0       H01     AOSYM     SMH    MOLCAS    OPER

 PROGRAMS   *        TOTAL       INT
 CPU TIMES  *       163.57    163.17
 REAL TIME  *       170.56 SEC
 DISK USED  *         7.78 GB
 GA USED    *         0.00 MB       (max)       0.00 MB       (current)
 **********************************************************************************************************************************


 PROGRAM * RHF-SCF (OPEN SHELL)       Authors: W. Meyer, H.-J. Werner


 NUMBER OF ELECTRONS:      11+   10-    SPACE SYMMETRY=5    SPIN SYMMETRY: Doublet
 CONVERGENCE THRESHOLDS:    1.00E-05 (Density)    1.00E-07 (Energy)
 MAX. NUMBER OF ITERATIONS:       60
 INTERPOLATION TYPE:            DIIS
 INTERPOLATION STEPS:              2 (START)      1 (STEP)
 LEVEL SHIFTS:                 -0.60 (CLOSED) -0.30 (OPEN)

 Number of closed-shell orbitals:   10 (   1   3   3   0   2   0   0   1 )
 Number of open-shell orbitals:      1 (   0   0   0   0   1   0   0   0 )



 Extra symmetries of mos in symmetry 2:   3   2   1
 Extra symmetries of mos in symmetry 3:   3   2   1
 Extra symmetries of mos in symmetry 5:   3   2   1
 Guess basis ATOMIC-GUESS,LU=ECP46_GUESS not found. No density guess!


 Molecular orbital dump at record        4202.2

 ITERATION    DDIFF          GRAD             ENERGY        2-EL.EN.            DIPOLE MOMENTS         DIIS   ORB.
    1      0.000D+00      0.000D+00      -172.34444240    459.298687    0.00000    0.00000    0.00000    0    start
    2      0.000D+00      0.401D+00      -140.45526931    110.919000    0.00000    0.00000    0.00000    0    diag,B
    3      0.133D+00      0.214D+00      -179.50962578    443.057752    0.00000    0.00000    0.00000    1    diag,B
    4      0.845D-01      0.362D+00      -194.59327588    401.567965    0.00000    0.00000    0.00000    2    diag,B
    5      0.511D-01      0.225D+00      -203.04969545    362.805850    0.00000    0.00000    0.00000    3    diag,B
    6      0.326D-01      0.118D+00      -203.88655434    294.201405    0.00000    0.00000    0.00000    4    diag,B
    7      0.280D-01      0.141D-01      -205.98354289    322.857991    0.00000    0.00000    0.00000    5    fixocc
    8      0.136D-01      0.267D-01      -206.12083538    322.743913    0.00000    0.00000    0.00000    6    diag,B
    9      0.247D-02      0.226D-01      -206.34613323    319.547942    0.00000    0.00000    0.00000    7    diag,B
   10      0.632D-02      0.886D-02      -206.36647738    319.374916    0.00000    0.00000    0.00000    8    orth
   11      0.102D-02      0.816D-02      -206.36609291    319.119092    0.00000    0.00000    0.00000    9    diag,B
   12      0.178D-03      0.750D-02      -206.37545140    317.365934    0.00000    0.00000    0.00000    9    diag,B
   13      0.822D-03      0.361D-02      -206.37411772    316.025215    0.00000    0.00000    0.00000    9    diag,B
   14      0.833D-03      0.208D-03      -206.37413648    315.998193    0.00000    0.00000    0.00000    9    diag,B
   15      0.476D-04      0.142D-03      -206.37412877    315.946875    0.00000    0.00000    0.00000    9    diag,B
   16      0.333D-04      0.981D-05      -206.37412884    315.949473    0.00000    0.00000    0.00000    9    diag,B
   17      0.550D-05      0.658D-05      -206.37412885    315.945979    0.00000    0.00000    0.00000    0    orth

 Final alpha occupancy:   1   3   3   0   3   0   0   1
 Final beta  occupancy:   1   3   3   0   2   0   0   1

 !RHF STATE 1.5 Energy               -206.374128845206
   --><property name="Energy" method="RHF" principal="true" stateSymmetry="5" stateNumber="1"
     value="-206.374128845206"/><!--
 Nuclear energy                         0.00000000
 One-electron energy                 -364.34711846
 Two-electron energy                  157.97298961
 Virial quotient                       -1.17551139
 !RHF STATE 1.5 Dipole moment           0.00000000     0.00000000     0.00000000
 Dipole moment /Debye                   0.00000000     0.00000000     0.00000000
   --><property name="Dipole moment" method="RHF" principal="true" stateSymmetry="5"
     stateNumber="1" value="0.0 0.0 0.0"/><!--

 ELECTRON ORBITALS
 =================


   Orb  Occ    Energy  Couls-En    Coefficients

                                   1 1s      1 1s      1 1s      1 1s      1 1s      1 1s      1 1s      1 1s      1 1s      1 1s
                                   1 1s      1 1s      1 1s      1 1s      1 1s      1 1s      1 1s      1 1s      1 1s      1 1s
                                   1 1s      1 1s      1 1s      1 1s      1 1s      1 1s      1 1s      1 1s      1 1s      1 1s
                                   1 1s      1 1s      1 1s      1 1s      1 1s      1 1s      1 1s      1 1s      1 3d0     1 3d2+
                                   1 3d0     1 3d2+    1 3d0     1 3d2+    1 3d0     1 3d2+    1 3d0     1 3d2+    1 3d0     1 3d2+
                                   1 3d0     1 3d2+    1 3d0     1 3d2+    1 3d0     1 3d2+    1 3d0     1 3d2+    1 3d0     1 3d2+
                                   1 3d0     1 3d2+    1 3d0     1 3d2+    1 3d0     1 3d2+    1 3d0     1 3d2+    1 3d0     1 3d2+
                                   1 3d0     1 3d2+    1 3d0     1 3d2+    1 3d0     1 3d2+    1 3d0     1 3d2+    1 3d0     1 3d2+
                                   1 3d0     1 3d2+    1 5g0     1 5g4+    1 5g2+    1 5g0     1 5g4+    1 5g2+    1 5g0     1 5g4+
                                   1 5g2+    1 5g0     1 5g4+    1 5g2+    1 5g0     1 5g4+    1 5g2+    1 5g0     1 5g4+    1 5g2+
                                   1 5g0     1 5g4+    1 5g2+

   1.1   2    -4.2077  -22.2819  0.000000 -0.000000  0.000000 -0.000000  0.000000 -0.000000  0.000000 -0.000001  0.000002 -0.000005
                                 0.000013 -0.000035  0.000098 -0.000324  0.001828  0.006009 -0.004336  0.006630 -0.013073 -0.005672
                                 0.036647 -0.197050  0.237309 -0.137457  0.471929 -1.063887  0.054650  1.041780  0.332141  0.013459
                                -0.016000  0.029791 -0.047168  0.036125 -0.014494  0.005633 -0.001460  0.000260  0.000000  0.000000
                                -0.000000 -0.000000  0.000000  0.000000 -0.000001 -0.000000  0.000003  0.000000 -0.000011 -0.000000
                                 0.000033  0.000000 -0.000104 -0.000000  0.000517  0.000000 -0.001280 -0.000000  0.001204  0.000000
                                -0.000693 -0.000000  0.000744  0.000000 -0.001728  0.000000 -0.003190 -0.000000  0.000956  0.000000
                                -0.003364 -0.000000  0.004827  0.000000 -0.002412 -0.000000  0.000480  0.000000 -0.000173 -0.000000
                                 0.000046  0.000000 -0.000000 -0.000000 -0.000000  0.000004 -0.000000 -0.000000 -0.000002  0.000000
                                -0.000000 -0.000019  0.000000 -0.000000  0.000019 -0.000000  0.000000 -0.000007  0.000000 -0.000000
                                 0.000002 -0.000000  0.000000

   2.1   0    -1.4006  -14.1535  0.000000 -0.000000  0.000000 -0.000000  0.000000 -0.000000  0.000000 -0.000000  0.000000 -0.000000
                                 0.000000 -0.000000  0.000000 -0.000002  0.000009  0.000030 -0.000022  0.000032 -0.000061 -0.000029
                                 0.000165 -0.001289  0.002262 -0.001860 -0.004680  0.021083 -0.018022 -0.016367  0.003870  0.019975
                                 0.003936  0.003221 -0.004196  0.002990 -0.001126  0.000424 -0.000107  0.000019  0.000000 -0.000000
                                -0.000001  0.000000  0.000005 -0.000000 -0.000022  0.000000  0.000078 -0.000000 -0.000247  0.000000
                                 0.000756 -0.000000 -0.002499  0.000000  0.013506 -0.000000 -0.035418  0.000000  0.034013 -0.000000
                                -0.016839  0.000000 -0.082610  0.000001  0.463078 -0.000005  0.592305 -0.000006  0.138719 -0.000001
                                -0.057258  0.000001  0.053673 -0.000001 -0.016046  0.000000  0.000774 -0.000000  0.000069  0.000000
                                -0.000058 -0.000000  0.000205 -0.000000  0.000000 -0.000778  0.000000 -0.000000  0.008397  0.000000
                                 0.000000  0.025089  0.000000  0.000000 -0.023086 -0.000000 -0.000000  0.009787  0.000000  0.000000
                                -0.003320 -0.000000 -0.000000

   3.1   0    -1.3374  -13.9689  0.000000 -0.000000  0.000000 -0.000000  0.000000 -0.000000  0.000000 -0.000000  0.000000 -0.000000
                                 0.000000 -0.000000  0.000000 -0.000000  0.000000  0.000000 -0.000000  0.000000 -0.000000 -0.000000
                                 0.000000 -0.000000  0.000000 -0.000000 -0.000000  0.000001 -0.000001 -0.000001 -0.000000  0.000001
                                 0.000000  0.000000 -0.000000  0.000000 -0.000000  0.000000 -0.000000  0.000000  0.000000  0.000000
                                -0.000000 -0.000001  0.000000  0.000005 -0.000000 -0.000023  0.000000  0.000083 -0.000000 -0.000264
                                 0.000000  0.000805 -0.000000 -0.002652  0.000000  0.014241 -0.000000 -0.037179  0.000000  0.035646
                                -0.000000 -0.018173 -0.000001 -0.077020  0.000005  0.442553  0.000006  0.592062  0.000002  0.170391
                                -0.000001 -0.106435  0.000001  0.123866 -0.000000 -0.050802  0.000000  0.007659 -0.000000 -0.002411
                                 0.000000  0.000602  0.000000  0.000000  0.000130 -0.000000 -0.000000 -0.000485  0.000000  0.000000
                                 0.005348  0.000000  0.000001  0.016681 -0.000000 -0.000001 -0.015185  0.000000  0.000000  0.006485
                                -0.000000 -0.000000 -0.002203

                                   1 2px     1 2px     1 2px     1 2px     1 2px     1 2px     1 2px     1 2px     1 2px     1 2px
                                   1 2px     1 2px     1 2px     1 2px     1 2px     1 2px     1 2px     1 2px     1 2px     1 2px
                                   1 2px     1 2px     1 2px     1 2px     1 2px     1 2px     1 2px     1 2px     1 2px     1 2px
                                   1 2px     1 4f1+    1 4f3+    1 4f1+    1 4f3+    1 4f1+    1 4f3+    1 4f1+    1 4f3+    1 4f1+
                                   1 4f3+    1 4f1+    1 4f3+    1 4f1+    1 4f3+    1 4f1+    1 4f3+    1 4f1+    1 4f3+    1 4f1+
                                   1 4f3+    1 4f1+    1 4f3+    1 4f1+    1 4f3+    1 4f1+    1 4f3+    1 4f1+    1 4f3+    1 4f1+
                                   1 4f3+    1 6h1+    1 6h3+    1 6h5+    1 6h1+    1 6h3+    1 6h5+    1 6h1+    1 6h3+    1 6h5+


   1.2   2    -1.7163  -19.3534 -0.000000  0.000000 -0.000000  0.000000 -0.000000  0.000000 -0.000000  0.000000 -0.000000  0.000000
                                -0.000000  0.000000 -0.000000  0.000000 -0.000000  0.000000 -0.000000  0.000000 -0.000000  0.000000
                                 0.000000 -0.000000  0.000000 -0.000001 -0.000000 -0.000000  0.000000  0.000000 -0.000000  0.000000
                                -0.000000  0.000000  0.000004 -0.000000 -0.000027  0.000000  0.000121  0.000000  0.000031  0.000001
                                 0.044407  0.000000  0.029797  0.000003  0.220085  0.000004  0.269924  0.000006  0.363149  0.000005
                                 0.310137  0.000002  0.125873  0.000000  0.003996  0.000000  0.001997 -0.000000 -0.001470  0.000000
                                 0.000529  0.000000  0.000637  0.000000  0.000000  0.002066  0.000000  0.000000  0.000800  0.000000

   2.2   2    -1.7549  -19.4041 -0.000000  0.000000 -0.000000  0.000000 -0.000000  0.000000 -0.000000  0.000000 -0.000000  0.000000
                                -0.000000  0.000000 -0.000001  0.000002 -0.000011  0.000176 -0.000552  0.001779 -0.004391  0.003921
                                 0.003164 -0.005104  0.003101 -0.011605 -0.012322 -0.004572  0.000518  0.012216 -0.000271  0.000115
                                -0.000025  0.000004 -0.000000 -0.000028  0.000000  0.000123 -0.000000  0.000023 -0.000000  0.044356
                                -0.000001  0.029598 -0.000000  0.219806 -0.000003  0.269676 -0.000004  0.364975 -0.000006  0.310827
                                -0.000005  0.122177 -0.000002  0.002706 -0.000000  0.002504 -0.000000 -0.001676  0.000000  0.000592
                                -0.000000  0.001140  0.000000 -0.000000  0.003707  0.000000  0.000000  0.001387 -0.000000 -0.000000

   3.2   2    -3.1017  -19.3282  0.000000 -0.000000  0.000000 -0.000000  0.000000 -0.000000  0.000001 -0.000002  0.000007 -0.000022
                                 0.000063 -0.000176  0.000486 -0.001471  0.005435 -0.049268  0.129622 -0.263143  0.536440 -0.668060
                                 0.151302  0.693093  0.030469  0.348333 -0.045145  0.013418  0.000901  0.045078 -0.001172  0.000519
                                -0.000117  0.000000  0.000000 -0.000002 -0.000000  0.000009  0.000000 -0.000039 -0.000000  0.000748
                                 0.000000 -0.000369 -0.000000  0.002691  0.000000  0.001810  0.000000  0.005496  0.000000  0.006007
                                 0.000000  0.000679  0.000000  0.000025  0.000000 -0.000035 -0.000000  0.000021  0.000000 -0.000007
                                -0.000000  0.000012 -0.000000  0.000000  0.000049  0.000000 -0.000000  0.000009 -0.000000  0.000000

   4.2   0    -0.8385   -8.3421 -0.000000  0.000000 -0.000000  0.000000 -0.000000  0.000000 -0.000000  0.000000 -0.000002  0.000005
                                -0.000014  0.000038 -0.000106  0.000318 -0.001142  0.007684 -0.014910  0.008422  0.082173 -0.198286
                                 0.040041  0.448642 -0.166558  0.427618  4.903345 -0.745616 -0.653582 -4.847311  0.099855 -0.041385
                                 0.008978  0.000000  0.000000 -0.000001 -0.000000  0.000004  0.000000 -0.000019 -0.000000  0.000212
                                 0.000000 -0.000299 -0.000000  0.000543  0.000000 -0.000227  0.000000  0.002070  0.000000  0.000694
                                 0.000000 -0.014619 -0.000000 -0.014223 -0.000000  0.003841  0.000000 -0.002187 -0.000000  0.000701
                                 0.000000 -0.000001  0.000000 -0.000000  0.000015  0.000000 -0.000000 -0.000147 -0.000000  0.000000

   5.2   0    -0.4906   -6.1492  0.000000 -0.000000  0.000000 -0.000000  0.000000 -0.000000  0.000000 -0.000000  0.000000 -0.000001
                                 0.000002 -0.000006  0.000016 -0.000050  0.000180 -0.001403  0.003214 -0.004600  0.000597  0.007917
                                -0.001723 -0.031066  0.015566 -0.025477 -1.672453  0.090996 -0.018558  1.594734 -0.024948  0.009797
                                -0.002073  0.000002 -0.000000 -0.000014  0.000000  0.000071 -0.000000 -0.000455  0.000000 -0.005369
                                 0.000000 -0.013271  0.000000 -0.038549  0.000000 -0.060792  0.000000 -0.060639  0.000000 -0.042871
                                 0.000000  0.159482 -0.000001  0.583953 -0.000003  0.288181 -0.000002  0.136436 -0.000001 -0.023266
                                 0.000000 -0.000181 -0.000000 -0.000000 -0.001193 -0.000000 -0.000000  0.003401  0.000000 -0.000000

                                   1 2py     1 2py     1 2py     1 2py     1 2py     1 2py     1 2py     1 2py     1 2py     1 2py
                                   1 2py     1 2py     1 2py     1 2py     1 2py     1 2py     1 2py     1 2py     1 2py     1 2py
                                   1 2py     1 2py     1 2py     1 2py     1 2py     1 2py     1 2py     1 2py     1 2py     1 2py
                                   1 2py     1 4f1-    1 4f3-    1 4f1-    1 4f3-    1 4f1-    1 4f3-    1 4f1-    1 4f3-    1 4f1-
                                   1 4f3-    1 4f1-    1 4f3-    1 4f1-    1 4f3-    1 4f1-    1 4f3-    1 4f1-    1 4f3-    1 4f1-
                                   1 4f3-    1 4f1-    1 4f3-    1 4f1-    1 4f3-    1 4f1-    1 4f3-    1 4f1-    1 4f3-    1 4f1-
                                   1 4f3-    1 6h1-    1 6h3-    1 6h5-    1 6h1-    1 6h3-    1 6h5-    1 6h1-    1 6h3-    1 6h5-


   1.3   2    -1.7163  -19.3534 -0.000000  0.000000 -0.000000  0.000000 -0.000000  0.000000 -0.000000  0.000000 -0.000000  0.000000
                                -0.000000  0.000000 -0.000000  0.000000 -0.000000  0.000000 -0.000000  0.000000 -0.000000  0.000000
                                 0.000000 -0.000000  0.000000 -0.000001 -0.000000 -0.000000  0.000000  0.000000 -0.000000  0.000000
                                -0.000000  0.000000  0.000004 -0.000000 -0.000027  0.000000  0.000121  0.000000  0.000031  0.000001
                                 0.044407  0.000000  0.029797  0.000003  0.220085  0.000004  0.269924  0.000006  0.363149  0.000005
                                 0.310137  0.000002  0.125873  0.000000  0.003996  0.000000  0.001997 -0.000000 -0.001470  0.000000
                                 0.000529  0.000000  0.000637  0.000000  0.000000  0.002066  0.000000  0.000000  0.000800  0.000000

   2.3   2    -1.7549  -19.4041 -0.000000  0.000000 -0.000000  0.000000 -0.000000  0.000000 -0.000000  0.000000 -0.000000  0.000000
                                -0.000000  0.000000 -0.000001  0.000002 -0.000011  0.000176 -0.000553  0.001779 -0.004391  0.003921
                                 0.003164 -0.005104  0.003101 -0.011605 -0.012322 -0.004572  0.000518  0.012217 -0.000271  0.000115
                                -0.000025  0.000004 -0.000000 -0.000028  0.000000  0.000123 -0.000000  0.000023 -0.000000  0.044356
                                -0.000001  0.029598 -0.000000  0.219806 -0.000003  0.269676 -0.000004  0.364975 -0.000006  0.310827
                                -0.000005  0.122177 -0.000002  0.002706 -0.000000  0.002504 -0.000000 -0.001676  0.000000  0.000592
                                -0.000000  0.001140  0.000000 -0.000000  0.003707  0.000000  0.000000  0.001387 -0.000000 -0.000000

   3.3   2    -3.1017  -19.3282  0.000000 -0.000000  0.000000 -0.000000  0.000000 -0.000000  0.000001 -0.000002  0.000007 -0.000022
                                 0.000063 -0.000176  0.000486 -0.001471  0.005435 -0.049268  0.129622 -0.263143  0.536440 -0.668060
                                 0.151302  0.693093  0.030469  0.348333 -0.045145  0.013418  0.000901  0.045078 -0.001172  0.000519
                                -0.000117  0.000000  0.000000 -0.000002 -0.000000  0.000009  0.000000 -0.000039 -0.000000  0.000748
                                 0.000000 -0.000369 -0.000000  0.002691  0.000000  0.001810  0.000000  0.005497  0.000000  0.006007
                                 0.000000  0.000679  0.000000  0.000025  0.000000 -0.000035 -0.000000  0.000021  0.000000 -0.000007
                                -0.000000  0.000012 -0.000000  0.000000  0.000049  0.000000 -0.000000  0.000009 -0.000000  0.000000

   4.3   0    -0.8385   -8.3421 -0.000000  0.000000 -0.000000  0.000000 -0.000000  0.000000 -0.000000  0.000000 -0.000002  0.000005
                                -0.000014  0.000038 -0.000106  0.000318 -0.001142  0.007684 -0.014910  0.008422  0.082172 -0.198285
                                 0.040040  0.448642 -0.166559  0.427619  4.903352 -0.745615 -0.653583 -4.847318  0.099855 -0.041385
                                 0.008978  0.000000  0.000000 -0.000001 -0.000000  0.000004  0.000000 -0.000019 -0.000000  0.000212
                                 0.000000 -0.000299 -0.000000  0.000543  0.000000 -0.000227  0.000000  0.002070  0.000000  0.000694
                                 0.000000 -0.014619 -0.000000 -0.014223 -0.000000  0.003841  0.000000 -0.002187 -0.000000  0.000701
                                 0.000000 -0.000001  0.000000 -0.000000  0.000015  0.000000 -0.000000 -0.000147 -0.000000  0.000000

   5.3   0    -0.4906   -6.1492  0.000000 -0.000000  0.000000 -0.000000  0.000000 -0.000000  0.000000 -0.000000  0.000000 -0.000001
                                 0.000002 -0.000006  0.000016 -0.000050  0.000180 -0.001403  0.003214 -0.004600  0.000597  0.007917
                                -0.001723 -0.031066  0.015566 -0.025478 -1.672451  0.090995 -0.018558  1.594732 -0.024948  0.009797
                                -0.002073  0.000002 -0.000000 -0.000014  0.000000  0.000071 -0.000000 -0.000455  0.000000 -0.005369
                                 0.000000 -0.013271  0.000000 -0.038549  0.000000 -0.060792  0.000000 -0.060638  0.000000 -0.042871
                                 0.000000  0.159482 -0.000001  0.583953 -0.000003  0.288182 -0.000002  0.136436 -0.000001 -0.023266
                                 0.000000 -0.000181 -0.000000  0.000000 -0.001193 -0.000000  0.000000  0.003401  0.000000 -0.000000

                                   1 3d2-    1 3d2-    1 3d2-    1 3d2-    1 3d2-    1 3d2-    1 3d2-    1 3d2-    1 3d2-    1 3d2-
                                   1 3d2-    1 3d2-    1 3d2-    1 3d2-    1 3d2-    1 3d2-    1 3d2-    1 3d2-    1 3d2-    1 3d2-
                                   1 3d2-    1 3d2-    1 5g2-    1 5g4-    1 5g2-    1 5g4-    1 5g2-    1 5g4-    1 5g2-    1 5g4-
                                   1 5g2-    1 5g4-    1 5g2-    1 5g4-    1 5g2-    1 5g4-

   1.4   0    -1.3374  -13.9689  0.000000 -0.000001  0.000005 -0.000023  0.000083 -0.000264  0.000805 -0.002652  0.014241 -0.037179
                                 0.035646 -0.018173 -0.077020  0.442553  0.592062  0.170391 -0.106435  0.123866 -0.050802  0.007659
                                -0.002411  0.000602  0.000130  0.000000 -0.000485 -0.000000  0.005348  0.000000  0.016681  0.000001
                                -0.015185 -0.000001  0.006485  0.000000 -0.002203 -0.000000

   2.4   0    -0.5770   -6.3492 -0.000000  0.000000 -0.000003  0.000011 -0.000038  0.000122 -0.000373  0.001232 -0.006637  0.017407
                                -0.016865  0.009482  0.030924 -0.200232 -0.312021  0.332842  1.135734 -0.677727  0.373539 -0.051579
                                 0.017660 -0.004584 -0.000048 -0.000000  0.000166  0.000000 -0.002182 -0.000000 -0.003445 -0.000000
                                 0.008341  0.000000  0.000989  0.000000  0.001258  0.000000

                                   1 2pz     1 2pz     1 2pz     1 2pz     1 2pz     1 2pz     1 2pz     1 2pz     1 2pz     1 2pz
                                   1 2pz     1 2pz     1 2pz     1 2pz     1 2pz     1 2pz     1 2pz     1 2pz     1 2pz     1 2pz
                                   1 2pz     1 2pz     1 2pz     1 2pz     1 2pz     1 2pz     1 2pz     1 2pz     1 2pz     1 2pz
                                   1 2pz     1 4f0     1 4f2+    1 4f0     1 4f2+    1 4f0     1 4f2+    1 4f0     1 4f2+    1 4f0
                                   1 4f2+    1 4f0     1 4f2+    1 4f0     1 4f2+    1 4f0     1 4f2+    1 4f0     1 4f2+    1 4f0
                                   1 4f2+    1 4f0     1 4f2+    1 4f0     1 4f2+    1 4f0     1 4f2+    1 4f0     1 4f2+    1 4f0
                                   1 4f2+    1 6h2+    1 6h4+    1 6h0     1 6h2+    1 6h4+    1 6h0     1 6h2+    1 6h4+    1 6h0


   1.5   2    -1.7405  -19.3855  0.000000 -0.000000  0.000000 -0.000000  0.000000 -0.000000  0.000000 -0.000000  0.000000 -0.000000
                                 0.000000 -0.000000  0.000000 -0.000000  0.000000 -0.000000  0.000001 -0.000002  0.000004 -0.000005
                                 0.000001  0.000005  0.000001  0.000001 -0.000002 -0.000000  0.000000  0.000002 -0.000000  0.000000
                                -0.000000  0.000000  0.000004 -0.000000 -0.000028  0.000000  0.000122 -0.000000  0.000026  0.000004
                                 0.044376  0.000002  0.029674  0.000018  0.219915  0.000022  0.269777  0.000030  0.364293  0.000026
                                 0.310629  0.000010  0.123600  0.000000  0.003166  0.000000  0.002326 -0.000000 -0.001605  0.000000
                                 0.000570  0.000955  0.000000  0.000000  0.003100  0.000000  0.000000  0.001176  0.000000  0.000000

   2.5   2    -1.7602  -19.4118  0.000000 -0.000000  0.000000 -0.000000  0.000000 -0.000000  0.000000 -0.000000  0.000000 -0.000000
                                 0.000001 -0.000003  0.000009 -0.000026  0.000091 -0.000731  0.001813 -0.002873  0.004885 -0.007934
                                 0.006780  0.007008  0.004097 -0.007614 -0.016056 -0.005068  0.000677  0.015922 -0.000356  0.000151
                                -0.000033  0.000004 -0.000000 -0.000028  0.000000  0.000123 -0.000000  0.000021 -0.000000  0.044361
                                -0.000004  0.029560 -0.000002  0.219802 -0.000018  0.269650 -0.000022  0.365271 -0.000030  0.310928
                                -0.000025  0.121683 -0.000010  0.002566 -0.000000  0.002551 -0.000000 -0.001695  0.000000  0.000597
                                -0.000000 -0.000000 -0.000000  0.001201 -0.000000 -0.000000  0.003908 -0.000000 -0.000000  0.001455

   3.5   +    -3.2096  -19.4743  0.000000 -0.000000  0.000000 -0.000000  0.000000 -0.000000  0.000001 -0.000002  0.000007 -0.000023
                                 0.000068 -0.000189  0.000520 -0.001575  0.005823 -0.052630  0.138209 -0.279727  0.560352 -0.685421
                                 0.151061  0.711461  0.032077  0.333324 -0.072153  0.009211  0.002237  0.071831 -0.001756  0.000765
                                -0.000171  0.000001 -0.000000 -0.000004  0.000000  0.000021 -0.000000 -0.000106 -0.000000  0.000338
                                -0.000000 -0.002133 -0.000000 -0.001089 -0.000001 -0.005398 -0.000002  0.001158 -0.000002  0.004069
                                -0.000002 -0.002822 -0.000001  0.000041 -0.000000 -0.000236 -0.000000  0.000142  0.000000 -0.000049
                                -0.000000  0.000000 -0.000000 -0.000018  0.000000  0.000000  0.000009 -0.000000 -0.000000 -0.000031

   4.5   0    -0.8583   -8.4621  0.000000 -0.000000  0.000000 -0.000000  0.000000 -0.000000  0.000000 -0.000000  0.000001 -0.000003
                                 0.000009 -0.000024  0.000067 -0.000200  0.000711 -0.004105  0.006121  0.007009 -0.103802  0.216831
                                -0.047574 -0.451288  0.128645 -0.384750 -4.687823  0.779244  0.610610  4.631858 -0.094646  0.039154
                                -0.008486 -0.000000 -0.000000  0.000001  0.000000 -0.000006 -0.000000  0.000027  0.000000 -0.000287
                                -0.000000  0.000429  0.000000 -0.000699 -0.000000  0.000363 -0.000000 -0.002671 -0.000000 -0.000725
                                -0.000000  0.017935  0.000001  0.016369  0.000000 -0.004606 -0.000000  0.002535  0.000000 -0.000812
                                -0.000000 -0.000000 -0.000000  0.000001 -0.000000 -0.000000 -0.000018  0.000000 -0.000000  0.000186

   5.5   0    -0.4918   -6.1554  0.000000 -0.000000  0.000000 -0.000000  0.000000 -0.000000  0.000000 -0.000000  0.000000 -0.000001
                                 0.000003 -0.000009  0.000025 -0.000076  0.000278 -0.002142  0.004865 -0.006749 -0.000231  0.013887
                                -0.002696 -0.051502  0.024808 -0.041850 -2.675599  0.149327 -0.027968  2.552242 -0.039976  0.015708
                                -0.003324  0.000002 -0.000000 -0.000014  0.000000  0.000071 -0.000000 -0.000453  0.000000 -0.005387
                                 0.000000 -0.013248  0.000000 -0.038595  0.000001 -0.060786  0.000002 -0.060886  0.000002 -0.042612
                                 0.000001  0.161852 -0.000005  0.583503 -0.000019  0.281784 -0.000009  0.134577 -0.000004 -0.023234
                                 0.000001 -0.000000  0.000000 -0.000191  0.000000  0.000000 -0.001254 -0.000000 -0.000000  0.003600

                                   1 3d1+    1 3d1+    1 3d1+    1 3d1+    1 3d1+    1 3d1+    1 3d1+    1 3d1+    1 3d1+    1 3d1+
                                   1 3d1+    1 3d1+    1 3d1+    1 3d1+    1 3d1+    1 3d1+    1 3d1+    1 3d1+    1 3d1+    1 3d1+
                                   1 3d1+    1 3d1+    1 5g1+    1 5g3+    1 5g1+    1 5g3+    1 5g1+    1 5g3+    1 5g1+    1 5g3+
                                   1 5g1+    1 5g3+    1 5g1+    1 5g3+    1 5g1+    1 5g3+

   1.6   0    -1.3839  -14.1079  0.000000 -0.000001  0.000005 -0.000022  0.000079 -0.000253  0.000771 -0.002548  0.013749 -0.036011
                                 0.034569 -0.017282 -0.081062  0.457991  0.592331  0.146776 -0.070120  0.071974 -0.025096  0.002564
                                -0.000576  0.000113  0.000187  0.000000 -0.000704 -0.000000  0.007643  0.000000  0.023090  0.000001
                                -0.021190 -0.000001  0.008999  0.000000 -0.003054 -0.000000

   2.6   0    -0.5858   -6.4125 -0.000000  0.000000 -0.000002  0.000010 -0.000035  0.000111 -0.000340  0.001128 -0.006136  0.016206
                                -0.015773  0.008784  0.032889 -0.208358 -0.307907  0.376045  1.074049 -0.615283  0.330832 -0.044335
                                 0.014950 -0.003855 -0.000067 -0.000000  0.000236  0.000000 -0.003089 -0.000000 -0.004265 -0.000000
                                 0.011433  0.000000  0.001439  0.000000  0.001637  0.000000

                                   1 3d1-    1 3d1-    1 3d1-    1 3d1-    1 3d1-    1 3d1-    1 3d1-    1 3d1-    1 3d1-    1 3d1-
                                   1 3d1-    1 3d1-    1 3d1-    1 3d1-    1 3d1-    1 3d1-    1 3d1-    1 3d1-    1 3d1-    1 3d1-
                                   1 3d1-    1 3d1-    1 5g1-    1 5g3-    1 5g1-    1 5g3-    1 5g1-    1 5g3-    1 5g1-    1 5g3-
                                   1 5g1-    1 5g3-    1 5g1-    1 5g3-    1 5g1-    1 5g3-

   1.7   0    -1.3839  -14.1079  0.000000 -0.000001  0.000005 -0.000022  0.000079 -0.000253  0.000771 -0.002548  0.013749 -0.036011
                                 0.034569 -0.017282 -0.081062  0.457990  0.592331  0.146778 -0.070122  0.071977 -0.025098  0.002564
                                -0.000576  0.000113  0.000187  0.000000 -0.000704 -0.000000  0.007643  0.000000  0.023090  0.000001
                                -0.021190 -0.000001  0.008999  0.000000 -0.003054 -0.000000

   2.7   0    -0.5858   -6.4125 -0.000000  0.000000 -0.000002  0.000010 -0.000035  0.000111 -0.000340  0.001128 -0.006136  0.016206
                                -0.015773  0.008784  0.032889 -0.208357 -0.307907  0.376043  1.074052 -0.615286  0.330834 -0.044336
                                 0.014950 -0.003855 -0.000067 -0.000000  0.000236  0.000000 -0.003089 -0.000000 -0.004265 -0.000000
                                 0.011433  0.000000  0.001439  0.000000  0.001637  0.000000

                                   1 4f2-    1 4f2-    1 4f2-    1 4f2-    1 4f2-    1 4f2-    1 4f2-    1 4f2-    1 4f2-    1 4f2-
                                   1 4f2-    1 4f2-    1 4f2-    1 4f2-    1 4f2-    1 6h4-    1 6h2-    1 6h4-    1 6h2-    1 6h4-
                                   1 6h2-

   1.8   2    -1.7405  -19.3855  0.000004 -0.000028  0.000122  0.000026  0.044376  0.029674  0.219915  0.269777  0.364293  0.310629
                                 0.123600  0.003166  0.002326 -0.001605  0.000570  0.000000  0.000955  0.000000  0.003100  0.000000
                                 0.001176

   2.8   0    -0.4873   -6.1083  0.000002 -0.000014  0.000070 -0.000451 -0.005291 -0.013129 -0.038048 -0.060056 -0.059484 -0.043034
                                 0.152345  0.578030  0.300914  0.139894 -0.023099 -0.000000 -0.000150 -0.000000 -0.000994  0.000000
                                 0.002788

   3.8   0    -0.3123   -3.9244 -0.000002  0.000013 -0.000064  0.000397  0.003800  0.011032  0.029229  0.047766  0.044884  0.030022
                                -0.153170 -0.588641  0.124604  0.805480  0.190642  0.000000  0.000116  0.000000  0.000708 -0.000000
                                -0.002396

 HOMO      1.8    -1.740535 =     -47.3624eV
 LUMO      2.1    -1.400637 =     -38.1133eV
 LUMO-HOMO         0.339898 =       9.2491eV


 **********************************************************************************************************************************
 DATASETS  * FILE   NREC   LENGTH (MB)   RECORD NAMES
              1      19       21.31       500      610      700      900      950      970     1000      129      960     1100
                                          VAR    BASINP    GEOM    SYMINP    ZMAT    AOBASIS   BASIS     P2S    ABASIS      S
                                         1400     1410     1420     1200     1210     1080     1600     1650     1700
                                           T        V       ECP      H0       H01     AOSYM     SMH    MOLCAS    OPER

              2       5        6.25       200      700     1000      520     4202
                                        OPTIONS   GEOM     BASIS   MCVARS     RHF

 PROGRAMS   *        TOTAL       RHF       INT
 CPU TIMES  *       166.51      2.93    163.17
 REAL TIME  *       173.82 SEC
 DISK USED  *         8.13 GB
 SF USED    *         0.12 MB
 GA USED    *         0.00 MB       (max)       0.00 MB       (current)
 **********************************************************************************************************************************
   -->
   <time start="06:19:45" end="06:22:38" cpu="166.51" system="7.02" real="173.82"/>
   <storage units="megabyte" memory="8001.84" sf="0.12" df="352.05" eaf="7781.59" ga="0.0"/>
  </jobstep><!--
  --><jobstep command="POP" commandset="POP">
   <!--


 PROGRAM * POP (Mulliken population analysis)


 Density matrix read from record         4202.2  Type=RHF/CHARGE (state 1.5)

 Population analysis by basis function type

 Unique atom        s        p        d        f        g    Total    Charge
   1  LU      1.99997  5.00030  0.00003 13.99942  0.00000 21.00000  + 4.00000


 **********************************************************************************************************************************
 DATASETS  * FILE   NREC   LENGTH (MB)   RECORD NAMES
              1      19       21.31       500      610      700      900      950      970     1000      129      960     1100
                                          VAR    BASINP    GEOM    SYMINP    ZMAT    AOBASIS   BASIS     P2S    ABASIS      S
                                         1400     1410     1420     1200     1210     1080     1600     1650     1700
                                           T        V       ECP      H0       H01     AOSYM     SMH    MOLCAS    OPER

              2       5        6.25       200      700     1000      520     4202
                                        OPTIONS   GEOM     BASIS   MCVARS     RHF

 PROGRAMS   *        TOTAL       POP       RHF       INT
 CPU TIMES  *       166.52      0.01      2.93    163.17
 REAL TIME  *       173.83 SEC
 DISK USED  *         8.13 GB
 SF USED    *         0.12 MB
 GA USED    *         0.00 MB       (max)       0.00 MB       (current)
 **********************************************************************************************************************************
   -->
   <time start="06:22:38" end="06:22:38" cpu="0.01" system="0.0" real="0.01"/>
   <storage units="megabyte" memory="8001.84" sf="0.12" df="352.05" eaf="7781.59" ga="0.0"/>
  </jobstep><!--
  --><jobstep command="MULTI" commandset="MULTI">
   <!--


 PROGRAM * MULTI (Direct Multiconfiguration SCF)       Authors: P.J. Knowles, H.-J. Werner (1984)     S.T. Elbert (1988)


 Number of closed-shell orbitals:   8 (   1   2   2   0   2   0   0   1 )
 Number of active  orbitals:        3 (   0   1   1   0   1   0   0   0 )
 Number of external orbitals:     431 ( 102  67  67  36  67  36  36  20 )

 State symmetry 1

 Number of electrons:     5    Spin symmetry=Doublet   Space symmetry=5
 Number of states:        1
 Number of CSFs:          1   (1 determinants, 3 intermediate states)

 State symmetry 2

 Number of electrons:     5    Spin symmetry=Doublet   Space symmetry=3
 Number of states:        1
 Number of CSFs:          1   (1 determinants, 3 intermediate states)

 State symmetry 3

 Number of electrons:     5    Spin symmetry=Doublet   Space symmetry=2
 Number of states:        1
 Number of CSFs:          1   (1 determinants, 3 intermediate states)

 Molecular orbitals read from record     4202.2  Type=RHF/CANONICAL (state 1.5)
 *** IN SYMMETRY 1 ORBITAL  1 SYMMETRY CONTAMINATION OF 0.575D-02 HAS BEEN REMOVED

 EXTRA SYMMETRY OF MOS IN SYMMETRY 1:   1 2 3 1 2 3 1 2 3 1   4 6 5 2 3 1 4 6 2 3   5 1 2 3 1 1 2 3 1 4   6 2 5 3 1 4 6 5 1 3
                                        1 4 6 5 1 2 3 1 4 6   5 2 3 1 2 3 4 6 5 1   2 3 1 2 3 1 2 3 1 2   3 1 1 2 3 1 2 3 1 1
                                        2 3 1 2 3 1 1 2 3 1   1 2 3 1 1 1 1 1 1 1   1 1 2
 *** IN SYMMETRY 2 ORBITAL  1 SYMMETRY CONTAMINATION OF 0.257D-02 HAS BEEN REMOVED
 *** IN SYMMETRY 2 ORBITAL  2 SYMMETRY CONTAMINATION OF 0.487D-01 HAS BEEN REMOVED
 *** IN SYMMETRY 2 ORBITAL  3 SYMMETRY CONTAMINATION OF 0.600D-02 HAS BEEN REMOVED
 EXTRA SYMMETRY OF MOS IN SYMMETRY 2:   3 2 1 1 1 3 1 2 3 1   2 3 1 1 1 2 3 1 2 3   1 4 5 6 2 3 1 4 5 6   1 3 1 1 2 3 4 5 6 1
                                        2 3 1 1 2 3 1 2 3 1   1 2 3 1 2 3 1 1 2 3   1 1 1 1 1 1 1 1 2 2
 *** IN SYMMETRY 3 ORBITAL  1 SYMMETRY CONTAMINATION OF 0.257D-02 HAS BEEN REMOVED
 *** IN SYMMETRY 3 ORBITAL  2 SYMMETRY CONTAMINATION OF 0.487D-01 HAS BEEN REMOVED
 *** IN SYMMETRY 3 ORBITAL  3 SYMMETRY CONTAMINATION OF 0.600D-02 HAS BEEN REMOVED
 EXTRA SYMMETRY OF MOS IN SYMMETRY 3:   3 2 1 1 1 3 1 2 3 1   2 3 1 1 1 2 3 1 2 3   1 4 5 6 2 3 1 4 5 6   1 3 1 1 2 3 4 5 6 1
                                        2 3 1 1 2 3 1 2 3 1   1 2 3 1 2 3 1 1 2 3   1 1 1 1 1 1 1 1 2 2
 EXTRA SYMMETRY OF MOS IN SYMMETRY 4:   1 1 1 2 3 1 2 1 3 1   1 2 3 1 2 3 1 2 3 1   2 3 1 1 2 3 1 1 1 1   1 1 1 1 1 1
 *** IN SYMMETRY 5 ORBITAL  1 SYMMETRY CONTAMINATION OF 0.390D-02 HAS BEEN REMOVED
 *** IN SYMMETRY 5 ORBITAL  2 SYMMETRY CONTAMINATION OF 0.609D-01 HAS BEEN REMOVED
 *** IN SYMMETRY 5 ORBITAL  3 SYMMETRY CONTAMINATION OF 0.565D-02 HAS BEEN REMOVED
 EXTRA SYMMETRY OF MOS IN SYMMETRY 5:   3 2 1 1 1 3 1 2 3 1   2 3 1 1 1 2 3 1 2 3   1 6 4 5 2 3 1 6 4 5   1 3 1 1 2 3 6 4 5 1
                                        2 3 1 1 2 3 1 2 3 1   1 2 3 1 2 3 1 1 2 3   1 1 1 1 1 1 1 1 2 2
 EXTRA SYMMETRY OF MOS IN SYMMETRY 6:   1 1 1 2 3 1 2 3 1 1   1 2 3 1 2 3 1 2 3 1   2 3 1 1 2 3 1 1 1 1   1 1 1 1 1 1
 EXTRA SYMMETRY OF MOS IN SYMMETRY 7:   1 1 1 2 3 1 2 3 1 1   1 2 3 1 2 3 1 2 3 1   2 3 1 1 2 3 1 1 1 1   1 1 1 1 1 1
 *** IN SYMMETRY 8 ORBITAL  1 SYMMETRY CONTAMINATION OF 0.380D-02 HAS BEEN REMOVED
 EXTRA SYMMETRY OF MOS IN SYMMETRY 8:   1 1 1 1 1 1 3 2 1 3   2 1 1 3 2 1 1 1 1 1   1

 Wavefunction dump at record             5202.2

 Convergence thresholds  0.10E-01 (gradient)  0.10E-05 (energy)  0.10E-02 (step length)

 Weight factors for state symmetry  1:    0.33333
 Weight factors for state symmetry  2:    0.33333
 Weight factors for state symmetry  3:    0.33333

 Number of orbital rotations:      731   (     6 Core/Active    524 Core/Virtual   0 Active/Active    201 Active/Virtual)
 Total number of variables:        734


 ITER. MIC  NCI  NEG     ENERGY(VAR)     ENERGY(PROJ)   ENERGY CHANGE     GRAD(0)  GRAD(ORB)   GRAD(CI)     STEP       TIME

   1   60   12    0    -206.37087895    -206.37129096   -0.00041201    2.81986942 0.16583689 0.00000000  0.94D-02      0.98
   2   57   15    0    -206.33234340    -206.37121891   -0.03887551   *********** 0.00061097 0.00000000  0.39D-04      1.92
   3   40   15    0    -206.37121891    -206.37121891   -0.00000000    0.00061097 0.00000473 0.00000000  0.28D-07      2.88

 ** WVFN ****  CONVERGENCE REACHED, FINAL GRADIENT:  0.47D-05



 Results for state 1.5
 =====================

 !MCSCF STATE 1.5 Energy             -206.371218907867
   --><property name="Energy" method="MCSCF" principal="true" stateSymmetry="5" stateNumber="1"
     value="-206.371218907867"/><!--
 Nuclear energy                         0.00000000
 Kinetic energy                       175.56308775
 One electron energy                 -364.35118888
 Two electron energy                  157.97996997
 Virial ratio                           2.17548183

 !MCSCF STATE 1.5 Dipole moment         0.00000000     0.00000000     0.00000000
 Dipole moment /Debye                   0.00000000     0.00000000     0.00000000
   --><property name="Dipole moment" method="MCSCF" principal="true" stateSymmetry="5"
     stateNumber="1" value="0.0 0.0 0.0"/><!--



 Results for state 1.3
 =====================

 !MCSCF STATE 1.3 Energy             -206.371218907867
   --><property name="Energy" method="MCSCF" principal="true" stateSymmetry="3" stateNumber="1"
     value="-206.371218907867"/><!--
 Nuclear energy                         0.00000000
 Kinetic energy                       175.56308775
 One electron energy                 -364.35118888
 Two electron energy                  157.97996997
 Virial ratio                           2.17548183

 !MCSCF STATE 1.3 Dipole moment         0.00000000     0.00000000     0.00000000
 Dipole moment /Debye                   0.00000000     0.00000000     0.00000000
   --><property name="Dipole moment" method="MCSCF" principal="true" stateSymmetry="3"
     stateNumber="1" value="0.0 0.0 0.0"/><!--



 Results for state 1.2
 =====================

 !MCSCF STATE 1.2 Energy             -206.371218907867
   --><property name="Energy" method="MCSCF" principal="true" stateSymmetry="2" stateNumber="1"
     value="-206.371218907867"/><!--
 Nuclear energy                         0.00000000
 Kinetic energy                       175.56308775
 One electron energy                 -364.35118888
 Two electron energy                  157.97996997
 Virial ratio                           2.17548183

 !MCSCF STATE 1.2 Dipole moment         0.00000000     0.00000000     0.00000000
 Dipole moment /Debye                   0.00000000     0.00000000     0.00000000
   --><property name="Dipole moment" method="MCSCF" principal="true" stateSymmetry="2"
     stateNumber="1" value="0.0 0.0 0.0"/><!--

 State-averaged charge density matrix saved on record  5202.2 (density set 1)


 NATURAL ORBITALS (state averaged)
 =================================

   Orb     Occ        Energy       Coefficients

                                   1 1s      1 1s      1 1s      1 1s      1 1s      1 1s      1 1s      1 1s      1 1s      1 1s
                                   1 1s      1 1s      1 1s      1 1s      1 1s      1 1s      1 1s      1 1s      1 1s      1 1s
                                   1 1s      1 1s      1 1s      1 1s      1 1s      1 1s      1 1s      1 1s      1 1s      1 1s
                                   1 1s      1 1s      1 1s      1 1s      1 1s      1 1s      1 1s      1 1s      1 3d0     1 3d2+
                                   1 3d0     1 3d2+    1 3d0     1 3d2+    1 3d0     1 3d2+    1 3d0     1 3d2+    1 3d0     1 3d2+
                                   1 3d0     1 3d2+    1 3d0     1 3d2+    1 3d0     1 3d2+    1 3d0     1 3d2+    1 3d0     1 3d2+
                                   1 3d0     1 3d2+    1 3d0     1 3d2+    1 3d0     1 3d2+    1 3d0     1 3d2+    1 3d0     1 3d2+
                                   1 3d0     1 3d2+    1 3d0     1 3d2+    1 3d0     1 3d2+    1 3d0     1 3d2+    1 3d0     1 3d2+
                                   1 3d0     1 3d2+    1 5g0     1 5g4+    1 5g2+    1 5g0     1 5g4+    1 5g2+    1 5g0     1 5g4+
                                   1 5g2+    1 5g0     1 5g4+    1 5g2+    1 5g0     1 5g4+    1 5g2+    1 5g0     1 5g4+    1 5g2+
                                   1 5g0     1 5g4+    1 5g2+

   1.1  2.00000    -4.207652     0.000000 -0.000000  0.000000 -0.000000  0.000000 -0.000000  0.000000 -0.000001  0.000002 -0.000005
                                 0.000013 -0.000035  0.000098 -0.000324  0.001827  0.006008 -0.004335  0.006629 -0.013072 -0.005671
                                 0.036642 -0.197023  0.237272 -0.137432  0.471903 -1.063856  0.054637  1.041737  0.332199  0.013445
                                -0.015992  0.029780 -0.047152  0.036114 -0.014490  0.005631 -0.001460  0.000260  0.000000  0.000000
                                 0.000000  0.000000  0.000000  0.000000  0.000000  0.000000  0.000000  0.000000  0.000000  0.000000
                                 0.000000  0.000000  0.000000  0.000000  0.000000  0.000000  0.000000  0.000000  0.000000  0.000000
                                 0.000000  0.000000  0.000000  0.000000  0.000000  0.000000  0.000000  0.000000  0.000000  0.000000
                                 0.000000  0.000000  0.000000  0.000000  0.000000  0.000000  0.000000  0.000000  0.000000  0.000000
                                 0.000000  0.000000  0.000000  0.000000  0.000000  0.000000  0.000000  0.000000  0.000000  0.000000
                                 0.000000  0.000000  0.000000  0.000000  0.000000  0.000000  0.000000  0.000000  0.000000  0.000000
                                 0.000000  0.000000  0.000000

                                   1 2px     1 2px     1 2px     1 2px     1 2px     1 2px     1 2px     1 2px     1 2px     1 2px
                                   1 2px     1 2px     1 2px     1 2px     1 2px     1 2px     1 2px     1 2px     1 2px     1 2px
                                   1 2px     1 2px     1 2px     1 2px     1 2px     1 2px     1 2px     1 2px     1 2px     1 2px
                                   1 2px     1 4f1+    1 4f3+    1 4f1+    1 4f3+    1 4f1+    1 4f3+    1 4f1+    1 4f3+    1 4f1+
                                   1 4f3+    1 4f1+    1 4f3+    1 4f1+    1 4f3+    1 4f1+    1 4f3+    1 4f1+    1 4f3+    1 4f1+
                                   1 4f3+    1 4f1+    1 4f3+    1 4f1+    1 4f3+    1 4f1+    1 4f3+    1 4f1+    1 4f3+    1 4f1+
                                   1 4f3+    1 6h1+    1 6h3+    1 6h5+    1 6h1+    1 6h3+    1 6h5+    1 6h1+    1 6h3+    1 6h5+


   1.2  2.00000    -1.740452     0.000000  0.000000  0.000000  0.000000  0.000000  0.000000  0.000000  0.000000  0.000000  0.000000
                                 0.000000  0.000000  0.000000  0.000000  0.000000  0.000000  0.000000  0.000000  0.000000  0.000000
                                 0.000000  0.000000  0.000000  0.000000  0.000000  0.000000  0.000000  0.000000  0.000000  0.000000
                                 0.000000  0.000004  0.000000 -0.000028  0.000000  0.000122  0.000000  0.000026  0.000000  0.044377
                                 0.000000  0.029676  0.000000  0.219922  0.000000  0.269786  0.000000  0.364302  0.000000  0.310605
                                 0.000000  0.123610  0.000000  0.003176  0.000000  0.002322  0.000000 -0.001603  0.000000  0.000570
                                 0.000000  0.000000  0.000000  0.000000  0.000000  0.000000  0.000000  0.000000  0.000000  0.000000

   2.2  2.00000    -1.740452     0.000000  0.000000  0.000000  0.000000  0.000000  0.000000  0.000000  0.000000  0.000000  0.000000
                                 0.000000  0.000000  0.000000  0.000000  0.000000  0.000000  0.000000  0.000000  0.000000  0.000000
                                 0.000000  0.000000  0.000000  0.000000  0.000000  0.000000  0.000000  0.000000  0.000000  0.000000
                                 0.000000  0.000000  0.000004  0.000000 -0.000028  0.000000  0.000122  0.000000  0.000026  0.000000
                                 0.044377  0.000000  0.029676  0.000000  0.219922  0.000000  0.269786  0.000000  0.364302  0.000000
                                 0.310605  0.000000  0.123610  0.000000  0.003176  0.000000  0.002322  0.000000 -0.001603  0.000000
                                 0.000570  0.000000  0.000000  0.000000  0.000000  0.000000  0.000000  0.000000  0.000000  0.000000

   3.2  1.66667    -3.020716     0.000000 -0.000000  0.000000 -0.000000  0.000000 -0.000000  0.000001 -0.000002  0.000007 -0.000022
                                 0.000064 -0.000179  0.000492 -0.001490  0.005508 -0.049896  0.131229 -0.266254  0.540940 -0.671333
                                 0.151213  0.696525  0.031036  0.345422 -0.050467  0.012552  0.001164  0.050350 -0.001287  0.000567
                                -0.000127  0.000000  0.000000  0.000000  0.000000  0.000000  0.000000  0.000000  0.000000  0.000000
                                 0.000000  0.000000  0.000000  0.000000  0.000000  0.000000  0.000000  0.000000  0.000000  0.000000
                                 0.000000  0.000000  0.000000  0.000000  0.000000  0.000000  0.000000  0.000000  0.000000  0.000000
                                 0.000000  0.000000  0.000000  0.000000  0.000000  0.000000  0.000000  0.000000  0.000000  0.000000

                                   1 2py     1 2py     1 2py     1 2py     1 2py     1 2py     1 2py     1 2py     1 2py     1 2py
                                   1 2py     1 2py     1 2py     1 2py     1 2py     1 2py     1 2py     1 2py     1 2py     1 2py
                                   1 2py     1 2py     1 2py     1 2py     1 2py     1 2py     1 2py     1 2py     1 2py     1 2py
                                   1 2py     1 4f1-    1 4f3-    1 4f1-    1 4f3-    1 4f1-    1 4f3-    1 4f1-    1 4f3-    1 4f1-
                                   1 4f3-    1 4f1-    1 4f3-    1 4f1-    1 4f3-    1 4f1-    1 4f3-    1 4f1-    1 4f3-    1 4f1-
                                   1 4f3-    1 4f1-    1 4f3-    1 4f1-    1 4f3-    1 4f1-    1 4f3-    1 4f1-    1 4f3-    1 4f1-
                                   1 4f3-    1 6h1-    1 6h3-    1 6h5-    1 6h1-    1 6h3-    1 6h5-    1 6h1-    1 6h3-    1 6h5-


   1.3  2.00000    -1.740452     0.000000  0.000000  0.000000  0.000000  0.000000  0.000000  0.000000  0.000000  0.000000  0.000000
                                 0.000000  0.000000  0.000000  0.000000  0.000000  0.000000  0.000000  0.000000  0.000000  0.000000
                                 0.000000  0.000000  0.000000  0.000000  0.000000  0.000000  0.000000  0.000000  0.000000  0.000000
                                 0.000000  0.000000  0.000004  0.000000 -0.000028  0.000000  0.000122  0.000000  0.000026  0.000000
                                 0.044377  0.000000  0.029676  0.000000  0.219922  0.000000  0.269786  0.000000  0.364302  0.000000
                                 0.310605  0.000000  0.123610  0.000000  0.003176  0.000000  0.002322  0.000000 -0.001603  0.000000
                                 0.000570  0.000000  0.000000  0.000000  0.000000  0.000000  0.000000  0.000000  0.000000  0.000000

   2.3  2.00000    -1.740452     0.000000  0.000000  0.000000  0.000000  0.000000  0.000000  0.000000  0.000000  0.000000  0.000000
                                 0.000000  0.000000  0.000000  0.000000  0.000000  0.000000  0.000000  0.000000  0.000000  0.000000
                                 0.000000  0.000000  0.000000  0.000000  0.000000  0.000000  0.000000  0.000000  0.000000  0.000000
                                 0.000000  0.000004  0.000000 -0.000028  0.000000  0.000122  0.000000  0.000026  0.000000  0.044377
                                 0.000000  0.029676  0.000000  0.219922  0.000000  0.269786  0.000000  0.364302  0.000000  0.310605
                                 0.000000  0.123610  0.000000  0.003176  0.000000  0.002322  0.000000 -0.001603  0.000000  0.000570
                                 0.000000  0.000000  0.000000  0.000000  0.000000  0.000000  0.000000  0.000000  0.000000  0.000000

   3.3  1.66667    -3.020716     0.000000 -0.000000  0.000000 -0.000000  0.000000 -0.000000  0.000001 -0.000002  0.000007 -0.000022
                                 0.000064 -0.000179  0.000492 -0.001490  0.005508 -0.049896  0.131229 -0.266254  0.540940 -0.671333
                                 0.151213  0.696525  0.031036  0.345422 -0.050467  0.012552  0.001164  0.050350 -0.001287  0.000567
                                -0.000127  0.000000  0.000000  0.000000  0.000000  0.000000  0.000000  0.000000  0.000000  0.000000
                                 0.000000  0.000000  0.000000  0.000000  0.000000  0.000000  0.000000  0.000000  0.000000  0.000000
                                 0.000000  0.000000  0.000000  0.000000  0.000000  0.000000  0.000000  0.000000  0.000000  0.000000
                                 0.000000  0.000000  0.000000  0.000000  0.000000  0.000000  0.000000  0.000000  0.000000  0.000000

                                   1 2pz     1 2pz     1 2pz     1 2pz     1 2pz     1 2pz     1 2pz     1 2pz     1 2pz     1 2pz
                                   1 2pz     1 2pz     1 2pz     1 2pz     1 2pz     1 2pz     1 2pz     1 2pz     1 2pz     1 2pz
                                   1 2pz     1 2pz     1 2pz     1 2pz     1 2pz     1 2pz     1 2pz     1 2pz     1 2pz     1 2pz
                                   1 2pz     1 4f0     1 4f2+    1 4f0     1 4f2+    1 4f0     1 4f2+    1 4f0     1 4f2+    1 4f0
                                   1 4f2+    1 4f0     1 4f2+    1 4f0     1 4f2+    1 4f0     1 4f2+    1 4f0     1 4f2+    1 4f0
                                   1 4f2+    1 4f0     1 4f2+    1 4f0     1 4f2+    1 4f0     1 4f2+    1 4f0     1 4f2+    1 4f0
                                   1 4f2+    1 6h2+    1 6h4+    1 6h0     1 6h2+    1 6h4+    1 6h0     1 6h2+    1 6h4+    1 6h0


   1.5  2.00000    -1.740452     0.000000  0.000000  0.000000  0.000000  0.000000  0.000000  0.000000  0.000000  0.000000  0.000000
                                 0.000000  0.000000  0.000000  0.000000  0.000000  0.000000  0.000000  0.000000  0.000000  0.000000
                                 0.000000  0.000000  0.000000  0.000000  0.000000  0.000000  0.000000  0.000000  0.000000  0.000000
                                 0.000000  0.000000  0.000004  0.000000 -0.000028  0.000000  0.000122  0.000000  0.000026  0.000000
                                 0.044377  0.000000  0.029676  0.000000  0.219922  0.000000  0.269786  0.000000  0.364302  0.000000
                                 0.310605  0.000000  0.123610  0.000000  0.003176  0.000000  0.002322  0.000000 -0.001603  0.000000
                                 0.000570  0.000000  0.000000  0.000000  0.000000  0.000000  0.000000  0.000000  0.000000  0.000000

   2.5  2.00000    -1.740452     0.000000  0.000000  0.000000  0.000000  0.000000  0.000000  0.000000  0.000000  0.000000  0.000000
                                 0.000000  0.000000  0.000000  0.000000  0.000000  0.000000  0.000000  0.000000  0.000000  0.000000
                                 0.000000  0.000000  0.000000  0.000000  0.000000  0.000000  0.000000  0.000000  0.000000  0.000000
                                 0.000000  0.000004  0.000000 -0.000028  0.000000  0.000122  0.000000  0.000026  0.000000  0.044377
                                 0.000000  0.029676  0.000000  0.219922  0.000000  0.269786  0.000000  0.364302  0.000000  0.310605
                                 0.000000  0.123610  0.000000  0.003176  0.000000  0.002322  0.000000 -0.001603  0.000000  0.000570
                                 0.000000  0.000000  0.000000  0.000000  0.000000  0.000000  0.000000  0.000000  0.000000  0.000000

   3.5  1.66667    -3.020716     0.000000 -0.000000  0.000000 -0.000000  0.000000 -0.000000  0.000001 -0.000002  0.000007 -0.000022
                                 0.000064 -0.000179  0.000492 -0.001490  0.005508 -0.049896  0.131229 -0.266254  0.540940 -0.671333
                                 0.151213  0.696525  0.031036  0.345422 -0.050467  0.012552  0.001164  0.050350 -0.001287  0.000567
                                -0.000127  0.000000  0.000000 -0.000000  0.000000  0.000000  0.000000  0.000000  0.000000  0.000000
                                 0.000000  0.000000  0.000000  0.000000  0.000000  0.000000  0.000000  0.000000  0.000000  0.000000
                                 0.000000  0.000000  0.000000  0.000000  0.000000  0.000000  0.000000 -0.000000  0.000000  0.000000
                                 0.000000  0.000000  0.000000  0.000000  0.000000  0.000000  0.000000  0.000000  0.000000  0.000000

                                   1 4f2-    1 4f2-    1 4f2-    1 4f2-    1 4f2-    1 4f2-    1 4f2-    1 4f2-    1 4f2-    1 4f2-
                                   1 4f2-    1 4f2-    1 4f2-    1 4f2-    1 4f2-    1 6h4-    1 6h2-    1 6h4-    1 6h2-    1 6h4-
                                   1 6h2-

   1.8  2.00000    -1.740452     0.000004 -0.000028  0.000122  0.000026  0.044377  0.029676  0.219922  0.269786  0.364302  0.310605
                                 0.123610  0.003176  0.002322 -0.001603  0.000570  0.000000  0.000000  0.000000  0.000000  0.000000
                                 0.000000

 Total charge:   4.000000000000


 EXTRA SYMMETRY OF MOS IN SYMMETRY 1:   1 2 3 1 2 3 1 3 2 1   5 6 4 2 3 1 4 5 6 3   2 1 3 2 1 1 2 3 1 4   5 6 2 3 1 5 6 4 2 3
                                        1 5 6 4 1 2 3 1 5 6   4 2 3 1 2 3 5 6 4 1   2 3 1 2 3 1 2 3 1 2   3 1 1 2 3 1 2 3 1 1
                                        2 3 1 3 2 1 1 3 2 1   1 3 2 1 1 1 1 1 1 1   1 1 1
 EXTRA SYMMETRY OF MOS IN SYMMETRY 2:   2 3 1 1 2 3 1 3 2 1   2 3 1 1 1 3 2 1 3 2   1 5 4 6 2 3 1 5 6 4   2 3 1 1 2 3 4 6 5 1
                                        3 2 1 1 3 2 1 2 3 1   1 3 2 1 2 3 1 1 2 3   1 1 1 1 1 1 1 1 1 1
 EXTRA SYMMETRY OF MOS IN SYMMETRY 3:   3 2 1 1 2 3 1 3 2 1   2 3 1 1 1 2 3 1 2 3   1 4 5 6 2 3 1 5 4 6   2 3 1 1 3 2 5 4 6 1
                                        3 2 1 1 3 2 1 3 2 1   1 3 2 1 3 2 1 1 2 3   1 1 1 1 1 1 1 1 1 1
 EXTRA SYMMETRY OF MOS IN SYMMETRY 4:   1 1 1 3 2 1 2 3 1 1   1 2 3 1 3 2 1 3 2 1   3 2 1 1 3 2 1 1 1 1   1 1 1 1 1 1
 EXTRA SYMMETRY OF MOS IN SYMMETRY 5:   3 2 1 1 2 3 1 3 2 1   2 3 1 1 1 2 3 1 2 3   1 6 4 5 3 2 1 6 5 4   2 3 1 1 2 3 5 6 4 1
                                        2 3 1 1 2 3 1 2 3 1   1 2 3 1 2 3 1 1 2 3   1 1 1 1 1 1 1 1 1 1
 EXTRA SYMMETRY OF MOS IN SYMMETRY 6:   1 1 1 3 2 1 3 2 1 1   1 3 2 1 2 3 1 2 3 1   2 3 1 1 2 3 1 1 1 1   1 1 1 1 1 1
 EXTRA SYMMETRY OF MOS IN SYMMETRY 7:   1 1 1 2 3 1 2 3 1 1   1 2 3 1 2 3 1 3 2 1   3 2 1 1 3 2 1 1 1 1   1 1 1 1 1 1
 EXTRA SYMMETRY OF MOS IN SYMMETRY 8:   1 1 1 1 1 1 3 2 1 3   2 1 1 2 3 1 1 1 1 1   1

 Natural orbital dump (state averaged) at molpro section  5202.2    (Orbital set 2)


 CI vector for state symmetry 1
 ==============================

 2 2 a           1.0000000

 TOTAL ENERGIES                      -206.37121891

 CI vector for state symmetry 2
 ==============================

 2 a 2           1.0000000

 TOTAL ENERGIES                      -206.37121891

 CI vector for state symmetry 3
 ==============================

 a 2 2           1.0000000

 TOTAL ENERGIES                      -206.37121891



 **********************************************************************************************************************************
 DATASETS  * FILE   NREC   LENGTH (MB)   RECORD NAMES
              1      20       41.81       500      610      700      900      950      970     1000      129      960     1100
                                          VAR    BASINP    GEOM    SYMINP    ZMAT    AOBASIS   BASIS     P2S    ABASIS      S
                                         1400     1410     1420     1200     1210     1080     1600     1650     1700     1380
                                           T        V       ECP      H0       H01     AOSYM     SMH    MOLCAS    OPER     JKOP

              2       6        9.83       200      700     1000      520     4202     5202
                                        OPTIONS   GEOM     BASIS   MCVARS     RHF     MCSCF

 PROGRAMS   *        TOTAL     MULTI       POP       RHF       INT
 CPU TIMES  *       171.01      4.49      0.01      2.93    163.17
 REAL TIME  *       178.66 SEC
 DISK USED  *         8.13 GB
 SF USED    *        76.43 MB
 GA USED    *         0.00 MB       (max)       0.00 MB       (current)
 **********************************************************************************************************************************
   -->
   <time start="06:22:38" end="06:22:43" cpu="4.49" system="0.3" real="4.83"/>
   <storage units="megabyte" memory="8001.84" sf="76.43" df="352.05" eaf="7781.59" ga="0.0"/>
  </jobstep><!--
  --><jobstep command="RHF-SCF" commandset="SCFPRO">
   <!--


 PROGRAM * RHF-SCF (OPEN SHELL)       Authors: W. Meyer, H.-J. Werner


 NUMBER OF ELECTRONS:      11+   10-    SPACE SYMMETRY=5    SPIN SYMMETRY: Doublet
 CONVERGENCE THRESHOLDS:    1.00E-05 (Density)    1.00E-07 (Energy)
 MAX. NUMBER OF ITERATIONS:        0
 INTERPOLATION TYPE:            DIIS
 INTERPOLATION STEPS:              2 (START)      1 (STEP)
 LEVEL SHIFTS:                 -0.60 (CLOSED) -0.30 (OPEN)

 Number of closed-shell orbitals:   10 (   1   3   3   0   2   0   0   1 )
 Number of open-shell orbitals:      1 (   0   0   0   0   1   0   0   0 )


 Molecular orbitals read from record     5202.2  Type=MCSCF/NATURAL (state averaged)

 Molecular orbital dump at record        2126.2

 ITERATION    DDIFF          GRAD             ENERGY        2-EL.EN.            DIPOLE MOMENTS         DIIS   ORB.
    1      0.000D+00      0.000D+00      -206.37121891    315.959940    0.00000    0.00000    0.00000    0    start

 Final alpha occupancy:   1   3   3   0   3   0   0   1
 Final beta  occupancy:   1   3   3   0   2   0   0   1

 !RHF STATE 1.5 Energy               -206.371218907867
   --><property name="Energy" method="RHF" principal="true" stateSymmetry="5" stateNumber="1"
     value="-206.371218907867"/><!--
 Nuclear energy                         0.00000000
 One-electron energy                 -364.35118888
 Two-electron energy                  157.97996997
 Virial quotient                       -1.17548183
 !RHF STATE 1.5 Dipole moment           0.00000000     0.00000000     0.00000000
 Dipole moment /Debye                   0.00000000     0.00000000     0.00000000
   --><property name="Dipole moment" method="RHF" principal="true" stateSymmetry="5"
     stateNumber="1" value="0.0 0.0 0.0"/><!--

 Orbital energies:

         1.1          2.1          3.1
     -4.207652    -1.335198    -1.335198

         1.2          2.2          3.2          4.2          5.2
     -1.740452    -1.740452    -3.020716    -0.841431    -0.486947

         1.3          2.3          3.3          4.3          5.3
     -1.740452    -1.740452    -3.020716    -0.841431    -0.486947

         1.4          2.4
     -1.335198    -0.579778

         1.5          2.5          3.5          4.5          5.5
     -1.740452    -1.740452    -3.020716    -0.841431    -0.486947

         1.6          2.6
     -1.335198    -0.579778

         1.7          2.7
     -1.335198    -0.579778

         1.8          2.8          3.8
     -1.740452    -0.486947    -0.312089

 HOMO      1.8    -1.740452 =     -47.3601eV
 LUMO      2.1    -1.335198 =     -36.3326eV
 LUMO-HOMO         0.405254 =      11.0275eV


 **********************************************************************************************************************************
 DATASETS  * FILE   NREC   LENGTH (MB)   RECORD NAMES
              1      20       41.81       500      610      700      900      950      970     1000      129      960     1100
                                          VAR    BASINP    GEOM    SYMINP    ZMAT    AOBASIS   BASIS     P2S    ABASIS      S
                                         1400     1410     1420     1200     1210     1080     1600     1650     1700     1380
                                           T        V       ECP      H0       H01     AOSYM     SMH    MOLCAS    OPER     JKOP

              2       7       13.66       200      700     1000      520     4202     5202     2126
                                        OPTIONS   GEOM     BASIS   MCVARS     RHF     MCSCF     RHF

 PROGRAMS   *        TOTAL       RHF     MULTI       POP       RHF       INT
 CPU TIMES  *       171.23      0.21      4.49      0.01      2.93    163.17
 REAL TIME  *       178.91 SEC
 DISK USED  *         8.13 GB
 SF USED    *        76.43 MB
 GA USED    *         0.00 MB       (max)       0.00 MB       (current)
 **********************************************************************************************************************************
   -->
   <time start="06:22:43" end="06:22:43" cpu="0.22" system="0.01" real="0.25"/>
   <storage units="megabyte" memory="8001.84" sf="76.43" df="352.05" eaf="7781.59" ga="0.0"/>
  </jobstep><!--
 SETTING SCF(12)        =      -206.37121891  AU
 SETTING _CC_NORM_MAX   =         2.00000000
  --><jobstep command="RCCSD(T)" commandset="CCSD">
   <!--


 PROGRAM * CCSD (Restricted open-shell coupled cluster)     Authors: C. Hampel, H.-J. Werner, 1991, M. Deegan, P.J. Knowles, 1992


 Convergence thresholds:  THRVAR = 1.00D-08  THRDEN = 1.00D-06

 CCSD(T)     terms to be evaluated (factor= 1.000)


 Number of closed-shell orbitals:  10 (   1   3   3   0   2   0   0   1 )
 Number of active  orbitals:        1 (   0   0   0   0   1   0   0   0 )
 Number of external orbitals:     431 ( 102  67  67  36  67  36  36  20 )

 Memory could be reduced to 193.03 Mwords without degradation in triples

 Number of N-1 electron functions:              21
 Number of N-2 electron functions:             210
 Number of singly external CSFs:              1388
 Number of doubly external CSFs:           3763753
 Total number of CSFs:                     3765141

 Molecular orbitals read from record     2126.2  Type=RHF/CANONICAL (state 1.5)

 Integral transformation finished. Total CPU:   5.20 sec, npass=  1  Memory used:  36.42 MW

 Starting RMP2 calculation

 Wavefunction is spin-projected

 ITER.      SQ.NORM     CORR.ENERGY   TOTAL ENERGY   ENERGY CHANGE        DEN1      VAR(S)    VAR(P)  DIIS     TIME
   1      1.68504760    -2.44292528  -208.81414419    -2.44292528    -0.04787681  0.27D-04  0.29D-01  1  1     6.18
   2      1.78875478    -2.50163531  -208.87285422    -0.05871003    -0.00240211  0.22D-05  0.22D-02  2  2     6.65
   3      1.82611486    -2.51338749  -208.88460639    -0.01175218    -0.00028226  0.16D-04  0.45D-03  3  3     7.08
   4      1.83716096    -2.51441181  -208.88563072    -0.00102432    -0.00008514  0.18D-03  0.22D-03  4  4     7.54
   5      1.84397361    -2.51489300  -208.88611191    -0.00048119    -0.00006118  0.60D-04  0.12D-03  5  5     8.07
   6      1.86353775    -2.51596049  -208.88717940    -0.00106749    -0.00000586  0.16D-07  0.91D-05  6  6     8.66
   7      1.86510542    -2.51602441  -208.88724332    -0.00006392    -0.00000329  0.80D-09  0.54D-05  6  1     9.19
   8      1.86649007    -2.51604463  -208.88726354    -0.00002022    -0.00000069  0.25D-09  0.10D-05  6  2     9.73
   9      1.86702316    -2.51605218  -208.88727108    -0.00000754    -0.00000018  0.12D-10  0.28D-06  6  3    10.27
  10      1.86720419    -2.51606530  -208.88728421    -0.00001313    -0.00000008  0.45D-08  0.14D-06  6  5    10.86
  11      1.86724017    -2.51607253  -208.88729144    -0.00000723    -0.00000003  0.48D-07  0.80D-07  6  6    11.41
  12      1.86724191    -2.51607527  -208.88729417    -0.00000273    -0.00000003  0.54D-08  0.51D-07  6  4    11.96
  13      1.86722752    -2.51607350  -208.88729241     0.00000177    -0.00000001  0.15D-10  0.19D-07  6  1    12.53
  14      1.86724855    -2.51606991  -208.88728882     0.00000359    -0.00000001  0.49D-11  0.90D-08  6  2    13.05
  15      1.86731498    -2.51607209  -208.88729100    -0.00000218    -0.00000000  0.74D-12  0.32D-08  6  3    13.61
  16      1.86736646    -2.51607633  -208.88729523    -0.00000423    -0.00000000  0.12D-12  0.14D-08  6  5    14.15
  17      1.86738196    -2.51607726  -208.88729617    -0.00000093    -0.00000000  0.53D-11  0.66D-09  6  6    14.70

 Norm of t1 vector:      0.04071164      S-energy:    -0.00659745      T1 diagnostic:  0.00391272
 Norm of t2 vector:      0.93044319      P-energy:    -2.50947981
                                         Alpha-Beta:  -1.67197447
                                         Alpha-Alpha: -0.43102711
                                         Beta-Beta:   -0.40647824

 Spin contamination <S**2-Sz**2-Sz>     0.00000000
  Reference energy                   -206.371218907867
   --><property name="energy" method="Reference" stateSymmetry="1" stateNumber="1"
     value="-206.371218907867"/><!--
  RHF-RMP2 correlation energy          -2.516077259258
   --><property name="energy" method="RHF-RMP2 correlation" stateSymmetry="1" stateNumber="1"
     value="-2.51607725925824"/><!--
 !RHF-RMP2 energy                    -208.887296167125
   --><property name="energy" method="RHF-RMP2" principal="true" stateSymmetry="5"
     stateNumber="1" value="-208.887296167125"/><!--
 (NB above energy spin projected)

 Starting RCCSD calculation

 ITER.      SQ.NORM     CORR.ENERGY   TOTAL ENERGY   ENERGY CHANGE        DEN1      VAR(S)    VAR(P)  DIIS     TIME
   1      1.25125623    -1.56421840  -207.93543731    -1.56421840    -0.28661264  0.17D-02  0.66D-01  0  0    18.14
   2      1.40268633    -1.84953036  -208.22074927    -0.28531196    -0.05359483  0.62D-03  0.23D-01  0  0    21.18
   3      1.42849281    -1.75334445  -208.12456336     0.09618591    -0.01640454  0.29D-03  0.14D-01  1  1    24.33
   4      1.51859147    -1.78865227  -208.15987118    -0.03530782    -0.01211939  0.11D-03  0.18D-01  2  2    27.45
   5      1.39204511    -1.77996740  -208.15118631     0.00868487    -0.00610687  0.31D-02  0.87D-02  3  3    30.64
   6      1.35391236    -1.77606163  -208.14728053     0.00390578    -0.00440033  0.96D-03  0.49D-02  4  4    33.85
   7      1.37642157    -1.77683109  -208.14805000    -0.00076947    -0.00226067  0.15D-04  0.23D-02  5  5    37.23
   8      1.42331744    -1.78108269  -208.15230160    -0.00425160    -0.00206012  0.25D-05  0.30D-02  6  6    40.55
   9      1.41161084    -1.78044966  -208.15166857     0.00063303    -0.00179760  0.29D-05  0.24D-02  7  7    43.85
  10      1.41556237    -1.78122791  -208.15244682    -0.00077824    -0.00084399  0.65D-05  0.11D-02  8  8    47.22
  11      1.43042289    -1.78288195  -208.15410086    -0.00165404    -0.00074476  0.17D-05  0.11D-02  9  9    50.67
  12      1.42845736    -1.78251271  -208.15373162     0.00036924    -0.00056430  0.83D-05  0.77D-03 10 10    54.21
  13      1.43072373    -1.78243657  -208.15365547     0.00007614    -0.00020445  0.14D-04  0.24D-03 11 11    57.77
  14      1.43572673    -1.78263591  -208.15385482    -0.00019934    -0.00022707  0.57D-06  0.29D-03 12 12    61.54
  15      1.43569122    -1.78233314  -208.15355205     0.00030276    -0.00014501  0.40D-05  0.16D-03 13 13    65.29
  16      1.44432653    -1.78238980  -208.15360871    -0.00005665    -0.00007979  0.57D-05  0.78D-04 14 14    69.04
  17      1.44930271    -1.78241104  -208.15362995    -0.00002124    -0.00004486  0.13D-04  0.49D-04 15 15    72.78
  18      1.45040928    -1.78248183  -208.15370074    -0.00007079    -0.00004227  0.71D-05  0.49D-04 15  4    76.57
  19      1.45150336    -1.78255012  -208.15376903    -0.00006829    -0.00004619  0.38D-06  0.57D-04 15  1    80.33
  20      1.45227452    -1.78256342  -208.15378233    -0.00001331    -0.00003263  0.48D-06  0.34D-04 15  2    84.18
  21      1.45278522    -1.78257101  -208.15378991    -0.00000758    -0.00003307  0.45D-06  0.44D-04 15  9    88.03
  22      1.45666238    -1.78270507  -208.15392398    -0.00013407    -0.00001329  0.86D-07  0.12D-04 15  3    91.81
  23      1.45903402    -1.78278803  -208.15400694    -0.00008296    -0.00001366  0.36D-07  0.29D-04 15  6    95.63
  24      1.45989913    -1.78290452  -208.15412343    -0.00011649    -0.00000758  0.15D-06  0.91D-05 15 15    99.37
  25      1.46005142    -1.78289802  -208.15411693     0.00000650    -0.00000823  0.12D-06  0.11D-04 15  3   103.16
  26      1.46026195    -1.78287248  -208.15409138     0.00002555    -0.00000920  0.74D-07  0.13D-04 15  5   106.94
  27      1.46102371    -1.78289132  -208.15411023    -0.00001885    -0.00000536  0.17D-07  0.68D-05 15  7   110.72
  28      1.46211292    -1.78308040  -208.15429931    -0.00018908    -0.00000312  0.28D-06  0.39D-05 15  8   114.47
  29      1.46275175    -1.78299125  -208.15421016     0.00008915    -0.00000236  0.12D-07  0.32D-05 15 13   118.29
  30      1.46258327    -1.78301267  -208.15423158    -0.00002142    -0.00000235  0.47D-08  0.33D-05 15 15   122.07
  31      1.46265523    -1.78298325  -208.15420216     0.00002942    -0.00000232  0.65D-08  0.33D-05 15  4   125.83
  32      1.46262010    -1.78297741  -208.15419632     0.00000584    -0.00000235  0.55D-08  0.34D-05 15  1   129.61
  33      1.46256846    -1.78300448  -208.15422339    -0.00002706    -0.00000269  0.14D-07  0.39D-05 15 10   133.34
  34      1.46289945    -1.78300035  -208.15421926     0.00000413    -0.00000223  0.58D-07  0.31D-05 15 11   137.03
  35      1.46292999    -1.78300177  -208.15422068    -0.00000142    -0.00000220  0.76D-07  0.30D-05 15  7   140.76
  36      1.46299586    -1.78298949  -208.15420839     0.00001229    -0.00000198  0.24D-06  0.27D-05 15 14   144.50
  37      1.46302740    -1.78291034  -208.15412925     0.00007914    -0.00000203  0.12D-07  0.29D-05 15  2   148.29
  38      1.46304984    -1.78291259  -208.15413149    -0.00000224    -0.00000196  0.93D-08  0.28D-05 15  3   152.13
  39      1.46316017    -1.78290210  -208.15412101     0.00001048    -0.00000187  0.12D-06  0.29D-05 15  5   155.88
  40      1.46330240    -1.78288380  -208.15410271     0.00001830    -0.00000152  0.24D-06  0.21D-05 15  8   159.62
  41      1.46316612    -1.78287189  -208.15409080     0.00001192    -0.00000139  0.35D-07  0.20D-05 15 12   163.34
  42      1.46326647    -1.78287169  -208.15409060     0.00000020    -0.00000146  0.70D-07  0.20D-05 15  9   167.07
  43      1.46326292    -1.78286067  -208.15407958     0.00001102    -0.00000139  0.32D-07  0.19D-05 15  6   170.84
  44      1.46308510    -1.78286703  -208.15408593    -0.00000635    -0.00000154  0.23D-07  0.23D-05 15  8   174.64
  45      1.46286779    -1.78284176  -208.15406067     0.00002527    -0.00000136  0.21D-07  0.18D-05 15  3   178.31
  46      1.46288427    -1.78283651  -208.15405541     0.00000525    -0.00000138  0.20D-07  0.18D-05 15  2   182.10
  47      1.46272011    -1.78284538  -208.15406429    -0.00000888    -0.00000140  0.94D-08  0.18D-05 15  3   185.85
  48      1.46274056    -1.78285523  -208.15407414    -0.00000985    -0.00000135  0.17D-07  0.17D-05 15  4   189.59
  49      1.46275501    -1.78285007  -208.15406898     0.00000516    -0.00000134  0.19D-07  0.17D-05 15 10   193.31
  50      1.46276294    -1.78285393  -208.15407284    -0.00000386    -0.00000133  0.16D-07  0.17D-05 15 15   197.06
  51      1.46286710    -1.78286109  -208.15408000    -0.00000717    -0.00000131  0.12D-07  0.16D-05 15 11   200.79
  52      1.46285705    -1.78286721  -208.15408612    -0.00000612    -0.00000130  0.61D-08  0.16D-05 15  1   204.58
  53      1.46287967    -1.78286243  -208.15408134     0.00000478    -0.00000134  0.88D-08  0.17D-05 15  4   208.34
  54      1.46302096    -1.78288058  -208.15409949    -0.00001815    -0.00000133  0.40D-08  0.16D-05 15 13   212.09
  55      1.46326483    -1.78287369  -208.15409260     0.00000689    -0.00000125  0.10D-07  0.15D-05 15  3   216.05
  56      1.46341429    -1.78284420  -208.15406311     0.00002949    -0.00000127  0.46D-08  0.16D-05 15  7   219.77
  57      1.46337072    -1.78284342  -208.15406232     0.00000079    -0.00000123  0.27D-07  0.15D-05 15 14   223.50
  58      1.46346033    -1.78285356  -208.15407247    -0.00001015    -0.00000132  0.14D-07  0.17D-05 15  5   227.20
  59      1.46354050    -1.78284646  -208.15406536     0.00000711    -0.00000109  0.39D-07  0.13D-05 15  6   230.97
  60      1.46355221    -1.78284616  -208.15406507     0.00000030    -0.00000109  0.55D-08  0.13D-05 15  8   234.77
  61      1.46371685    -1.78286072  -208.15407963    -0.00001456    -0.00000097  0.75D-07  0.13D-05 15  9   238.57
  62      1.46369593    -1.78285048  -208.15406939     0.00001024    -0.00000106  0.20D-07  0.13D-05 15  7   242.36
  63      1.46389371    -1.78287336  -208.15409227    -0.00002288    -0.00000096  0.30D-07  0.12D-05 15  5   246.11
  64      1.46390245    -1.78288030  -208.15409920    -0.00000694    -0.00000098  0.64D-08  0.12D-05 15 14   249.90
  65      1.46386911    -1.78289529  -208.15411420    -0.00001500    -0.00000090  0.19D-07  0.11D-05 15  6   253.67
  66      1.46385684    -1.78287005  -208.15408896     0.00002525    -0.00000096  0.55D-07  0.12D-05 15 12   257.42
  67      1.46383542    -1.78286751  -208.15408642     0.00000254    -0.00000096  0.93D-07  0.12D-05 15 13   261.23
  68      1.46393815    -1.78287732  -208.15409622    -0.00000981    -0.00000094  0.55D-07  0.12D-05 15 12   265.05
  69      1.46400942    -1.78287566  -208.15409457     0.00000166    -0.00000097  0.58D-08  0.12D-05 15  3   268.93
  70      1.46377272    -1.78286881  -208.15408772     0.00000685    -0.00000099  0.18D-07  0.12D-05 15 12   272.62
  71      1.46384340    -1.78286963  -208.15408854    -0.00000082    -0.00000097  0.47D-08  0.12D-05 15  3   276.50
  72      1.46377913    -1.78287248  -208.15409139    -0.00000285    -0.00000095  0.21D-08  0.12D-05 15 13   280.30
  73      1.46367426    -1.78285368  -208.15407259     0.00001880    -0.00000107  0.16D-07  0.14D-05 15  3   284.04
  74      1.46380356    -1.78286011  -208.15407902    -0.00000643    -0.00000101  0.23D-08  0.12D-05 15 13   287.78
  75      1.46374944    -1.78287080  -208.15408971    -0.00001069    -0.00000093  0.12D-07  0.11D-05 15  3   291.53
  76      1.46333006    -1.78288639  -208.15410530    -0.00001560    -0.00000093  0.77D-08  0.11D-05 15 13   295.28
  77      1.46366421    -1.78289946  -208.15411837    -0.00001307    -0.00000086  0.38D-07  0.10D-05 15  3   299.01
  78      1.46351716    -1.78289270  -208.15411160     0.00000677    -0.00000084  0.18D-08  0.10D-05 15  4   302.75
  79      1.46348111    -1.78287839  -208.15409730     0.00001430    -0.00000088  0.74D-08  0.11D-05 15 15   306.51
  80      1.46345472    -1.78287241  -208.15409132     0.00000598    -0.00000092  0.74D-08  0.11D-05 15 11   310.30
  81      1.46348108    -1.78287530  -208.15409421    -0.00000289    -0.00000091  0.97D-08  0.11D-05 15  1   314.04
  82      1.46349132    -1.78287366  -208.15409257     0.00000164    -0.00000088  0.79D-08  0.11D-05 15 11   317.90
  83      1.46346410    -1.78287263  -208.15409154     0.00000103    -0.00000093  0.76D-08  0.12D-05 15  1   321.70
  84      1.46348493    -1.78287594  -208.15409484    -0.00000331    -0.00000091  0.98D-08  0.11D-05 15 11   325.43
  85      1.46348957    -1.78287227  -208.15409117     0.00000367    -0.00000087  0.51D-08  0.11D-05 15  1   329.17
  86      1.46358363    -1.78289483  -208.15411374    -0.00002256    -0.00000082  0.48D-08  0.96D-06 15 15   332.87
  87      1.46351690    -1.78283700  -208.15405591     0.00005782    -0.00000086  0.15D-07  0.12D-05 15 11   336.67
  88      1.46333622    -1.78286824  -208.15408715    -0.00003124    -0.00000081  0.31D-08  0.98D-06 15 15   340.47
  89      1.46341717    -1.78289592  -208.15411483    -0.00002767    -0.00000077  0.10D-07  0.88D-06 15 11   344.12
  90      1.46355416    -1.78282652  -208.15404543     0.00006940    -0.00000098  0.15D-07  0.14D-05 15 15   347.87
  91      1.46359802    -1.78283177  -208.15405067    -0.00000525    -0.00000086  0.31D-07  0.11D-05 15 13   351.62
  92      1.46369854    -1.78283792  -208.15405683    -0.00000616    -0.00000085  0.44D-07  0.11D-05 15  3   355.34
  93      1.46342561    -1.78290099  -208.15411990    -0.00006307    -0.00000064  0.10D-07  0.72D-06 15 10   359.06
  94      1.46346059    -1.78289245  -208.15411135     0.00000854    -0.00000056  0.99D-08  0.66D-06 15  2   362.79
  95      1.46356392    -1.78287735  -208.15409626     0.00001509    -0.00000061  0.90D-08  0.80D-06 15  7   366.63
  96      1.46362206    -1.78291371  -208.15413262    -0.00003636    -0.00000058  0.19D-07  0.77D-06 15  5   370.45
  97      1.46368520    -1.78291452  -208.15413343    -0.00000081    -0.00000059  0.37D-07  0.81D-06 15  8   374.35
  98      1.46360327    -1.78289480  -208.15411371     0.00001973    -0.00000060  0.42D-07  0.82D-06 15  9   378.16
  99      1.46360109    -1.78289453  -208.15411344     0.00000027    -0.00000060  0.42D-07  0.82D-06 15 12   381.91

 Norm of t1 vector:      0.05550219      S-energy:    -0.00614528      T1 diagnostic:  0.00735987
                                                                       D1 diagnostic:  0.01450099
 Norm of t2 vector:      0.67861668      P-energy:    -1.77674925
                                         Alpha-Beta:  -1.29870977
                                         Alpha-Alpha: -0.24925735
                                         Beta-Beta:   -0.22878213

 Doubles amplitudes (print threshold =  0.500E-01):

         I         J         SYM. A    SYM. B    A         B      T(IJ, AB) [Alpha-Beta]

         2         2         1         1         1         1     -0.05278630
         2         2         5         5         2         1     -0.07322111
         2         2         6         6         1         1     -0.07236896
         3         3         1         1         2         2     -0.06807459
         3         3         4         4         1         1     -0.06807468
         5         5         1         1         2         2     -0.06807464
         5         5         4         4         1         1     -0.06807462
         6         6         1         1         1         1     -0.05278634
         6         6         5         5         2         1     -0.07322197
         6         6         7         7         1         1     -0.07236906
         8         8         1         1         2         2     -0.05749295
         8         8         5         5         2         1     -0.05909570
         8         8         6         6         1         1     -0.05424828
         8         8         7         7         1         1     -0.05424978
         9         9         1         1         1         1     -0.08375083
         9         9         5         5         2         1     -0.07773388
        11        11         4         4         1         1     -0.05749295
        11        11         5         5         2         1     -0.05909603
        11        11         6         6         1         1     -0.05424901
        11        11         7         7         1         1     -0.05424904

 ?CONVERGENCE NOT REACHED AFTER MAX. ITERATIONS

 ?ERROR: NO CONVERGENCE. TRIPLES WILL NOT BE DONE. THIS CAN BE AVOIDED USING THE NOCHECK OPTION.

 Spin contamination <S**2-Sz**2-Sz>     0.00000000


 RESULTS
 =======

  Reference energy                   -206.371218907867
   --><property name="energy" method="Reference" stateSymmetry="1" stateNumber="1"
     value="-206.371218907867"/><!--
  RCCSD singles energy                 -0.006145276606
   --><property name="energy" method="RCCSD singles" stateSymmetry="1" stateNumber="1"
     value="-0.614527660588005E-02"/><!--
  RCCSD pair energy                    -1.776749251066
   --><property name="energy" method="RCCSD pair" stateSymmetry="1" stateNumber="1"
     value="-1.77674925106586"/><!--
  RCCSD correlation energy             -1.782894527672
   --><property name="energy" method="RCCSD correlation" stateSymmetry="1" stateNumber="1"
     value="-1.78289452767174"/><!--

 !RHF-RCCSD energy                   -208.154113435539
   --><property name="energy" method="RHF-RCCSD" principal="true" stateSymmetry="1"
     stateNumber="1" value="-208.154113435539"/><!--

 Program statistics:

 Available memory in ccsd:               999998822
 Min. memory needed in ccsd:              10923215
 Max. memory used in ccsd:                15566451
 Max. memory used in cckext:              11976771 (99 integral passes)
 Max. memory used in cckint:              36423178 ( 1 integral passes)


 ? Error
 ? No convergence. This error exit can be avoided using the NOCHECK option
 ? The problem occurs in ccsd
   --><error type="Error" location="ccsd"
     message="No convergence. This error exit can be avoided using the NOCHECK option"/><!--
  --></jobstep><!--
  -->
  <input>
  <!--
 --></job><!--
--></molpro>
