<?xml version="1.0"?>
<molpro xmlns="http://www.molpro.net/schema/molpro-output"
  xmlns:xsd="http://www.w3.org/1999/XMLSchema"
  xmlns:cml="http://www.xml-cml.org/schema"
  xmlns:stm="http://www.xml-cml.org/schema"
  xmlns:xhtml="http://www.w3.org/1999/xhtml">
 <!--

 Nodes     nprocs
 nid12888    11
 Number of processes for MPI-2 version of Molpro:   nprocs(total)=   12   nprocs(compute)=   11   nprocs(helper)=    1

 Using customized tuning parameters: mindgm=7; mindgv=16; mindgc=1; mindgr=1; noblas=0; minvec=7
 default implementation of scratch files=sf

 --><job>
  <!--

 Variables initialized (889), CPU time= 0.02 sec
 Commands  initialized (702), CPU time= 0.01 sec, 572 directives.
 Default parameters read. Elapsed time= 0.14 sec

 Checking input...
 Passed
1


                                         ***  PROGRAM SYSTEM MOLPRO  ***
                                       Copyright, TTI GmbH Stuttgart, 2015
                                    Version 2015.1 linked Dec 29 2018 15:55:43


 **********************************************************************************************************************************
 LABEL *   Calculation for Lu atom, singlet and triplet
  64 bit mpp version                                                                     DATE: 30-Mar-23          TIME: 06:19:45
 **********************************************************************************************************************************

 SHA1:             19cd028119e0e09f93f0674bd8af7968d9b3eff6
 **********************************************************************************************************************************
  -->
  <!--

 THRESHOLDS:

 ZERO    =  1.00D-12  ONEINT  =  1.00D-12  TWOINT  =  1.00D-15  PREFAC  =  1.00D-14  LOCALI  =  1.00D-09  EORDER  =  1.00D-04
 ENERGY  =  0.00D+00  ETEST   =  0.00D+00  EDENS   =  0.00D+00  THRDEDEF=  1.00D-06  GRADIENT=  1.00D-02  STEP    =  1.00D-03
 ORBITAL =  1.00D-05  CIVEC   =  1.00D-05  COEFF   =  1.00D-04  PRINTCI =  5.00D-02  PUNCHCI =  9.90D+01  OPTGRAD =  3.00D-04
 OPTENERG=  1.00D-06  OPTSTEP =  3.00D-04  THRGRAD =  1.00D-10  COMPRESS=  1.00D-11  VARMIN  =  1.00D-07  VARMAX  =  1.00D-03
 THRDOUB =  0.00D+00  THRDIV  =  1.00D-05  THRRED  =  1.00D-07  THRPSP  =  1.00D+00  THRDC   =  1.00D-10  THRCS   =  1.00D-10
 THRNRM  =  1.00D-08  THREQ   =  0.00D+00  THRDE   =  1.00D+00  THRREF  =  1.00D-05  SPARFAC =  1.00D+00  THRDLP  =  1.00D-07
 THRDIA  =  1.00D-10  THRDLS  =  1.00D-07  THRGPS  =  0.00D+00  THRKEX  =  0.00D+00  THRDIS  =  2.00D-01  THRVAR  =  1.00D-10
 THRLOC  =  1.00D-06  THRGAP  =  1.00D-06  THRLOCT = -1.00D+00  THRGAPT = -1.00D+00  THRORB  =  1.00D-06  THRMLTP =  0.00D+00
 THRCPQCI=  1.00D-10  KEXTA   =  0.00D+00  THRCOARS=  0.00D+00  SYMTOL  =  1.00D-06  GRADTOL =  1.00D-06  THROVL  =  1.00D-08
 THRORTH =  1.00D-08  GRID    =  1.00D-06  GRIDMAX =  1.00D-03  DTMAX   =  0.00D+00  THROCCDE=  1.00D-01  THROCCDE=  1.00D-01



 THRESHOLDS:

 ZERO    =  1.00D-12  ONEINT  =  1.00D-15  TWOINT  =  1.00D-15  PREFAC  =  1.00D-14  LOCALI  =  1.00D-09  EORDER  =  1.00D-04
 ENERGY  =  0.00D+00  ETEST   =  0.00D+00  EDENS   =  0.00D+00  THRDEDEF=  1.00D-06  GRADIENT=  1.00D-02  STEP    =  1.00D-03
 ORBITAL =  1.00D-05  CIVEC   =  1.00D-05  COEFF   =  1.00D-04  PRINTCI =  5.00D-02  PUNCHCI =  9.90D+01  OPTGRAD =  3.00D-04
 OPTENERG=  1.00D-06  OPTSTEP =  3.00D-04  THRGRAD =  1.00D-10  COMPRESS=  1.00D-11  VARMIN  =  1.00D-07  VARMAX  =  1.00D-03
 THRDOUB =  0.00D+00  THRDIV  =  1.00D-05  THRRED  =  1.00D-07  THRPSP  =  1.00D+00  THRDC   =  1.00D-10  THRCS   =  1.00D-10
 THRNRM  =  1.00D-08  THREQ   =  0.00D+00  THRDE   =  1.00D+00  THRREF  =  1.00D-05  SPARFAC =  1.00D+00  THRDLP  =  1.00D-07
 THRDIA  =  1.00D-10  THRDLS  =  1.00D-07  THRGPS  =  0.00D+00  THRKEX  =  0.00D+00  THRDIS  =  2.00D-01  THRVAR  =  1.00D-10
 THRLOC  =  1.00D-06  THRGAP  =  1.00D-06  THRLOCT = -1.00D+00  THRGAPT = -1.00D+00  THRORB  =  1.00D-06  THRMLTP =  0.00D+00
 THRCPQCI=  1.00D-10  KEXTA   =  0.00D+00  THRCOARS=  0.00D+00  SYMTOL  =  1.00D-06  GRADTOL =  1.00D-06  THROVL  =  1.00D-08
 THRORTH =  1.00D-08  GRID    =  1.00D-06  GRIDMAX =  1.00D-03  DTMAX   =  0.00D+00  THROCCDE=  1.00D-01  THROCCDE=  1.00D-01



Geometry recognized as XYZ


 Variable memory set to 1000000000 words,  buffer space   230000 words

 SETTING BASIS          =    USERDEF

 DO I                   =        12.00000000

 Running procedure=VIIP5
  --><jobstep command="RHF-SCF" commandset="SCFPRO">
   <!--


 Recomputing integrals since basis changed


 Using spherical harmonics



 PROGRAM * SEWARD (Integral evaluation for generally contracted gaussian basis sets)     Author: Roland Lindh, 1990

 Geometry written to block  1 of record 700

 Orientation using atomic masses
 Molecule type: Atom
 Symmetry elements: X,Y,Z
 Rotational constants:       0.0000000      0.0000000      0.0000000 GHz  (calculated with average atomic masses)

 Point group  D2h


   --><cml:molecule>
    <cml:symmetry pointGroup="D2h"/>
    <cml:atomArray>
     <cml:atom id="a1" elementType="Lu" x3="0.0" y3="0.0" z3="0.0"/>
    </cml:atomArray>
    <cml:bondArray>
    </cml:bondArray>
   </cml:molecule><!--

 ATOMIC COORDINATES

 NR  ATOM    CHARGE       X              Y              Z

   1  LU     25.00    0.000000000    0.000000000    0.000000000

 NUCLEAR CHARGE:                   25
 NUMBER OF PRIMITIVE AOS:         581
 NUMBER OF SYMMETRY AOS:          442
 NUMBER OF CONTRACTIONS:          442   ( 103Ag  +  70B3u +  70B2u +  36B1g +  70B1u +  36B2g +  36B3g +  21Au  )
 NUMBER OF CORE ORBITALS:           0   (   0Ag  +   0B3u +   0B2u +   0B1g +   0B1u +   0B2g +   0B3g +   0Au  )
 NUMBER OF VALENCE ORBITALS:       17   (   4Ag  +   3B3u +   3B2u +   1B1g +   3B1u +   1B2g +   1B3g +   1Au  )


 NUCLEAR REPULSION ENERGY    0.00000000

 EXTRA SYMMETRY OF AOS IN SYMMETRY 1:   1 1 1 1 1 1 1 1 1 1   1 1 1 1 1 1 1 1 1 1   1 1 1 1 1 1 1 1 1 1   1 1 1 1 1 1 1 1 2 3
                                        2 3 2 3 2 3 2 3 2 3   2 3 2 3 2 3 2 3 2 3   2 3 2 3 2 3 2 3 2 3   2 3 2 3 2 3 2 3 2 3
                                        2 3 4 5 6 4 5 6 4 5   6 4 5 6 4 5 6 4 5 6   4 5 6
 EXTRA SYMMETRY OF AOS IN SYMMETRY 2:   1 1 1 1 1 1 1 1 1 1   1 1 1 1 1 1 1 1 1 1   1 1 1 1 1 1 1 1 1 1   1 2 3 2 3 2 3 2 3 2
                                        3 2 3 2 3 2 3 2 3 2   3 2 3 2 3 2 3 2 3 2   3 4 5 6 4 5 6 4 5 6
 EXTRA SYMMETRY OF AOS IN SYMMETRY 3:   1 1 1 1 1 1 1 1 1 1   1 1 1 1 1 1 1 1 1 1   1 1 1 1 1 1 1 1 1 1   1 2 3 2 3 2 3 2 3 2
                                        3 2 3 2 3 2 3 2 3 2   3 2 3 2 3 2 3 2 3 2   3 4 5 6 4 5 6 4 5 6
 EXTRA SYMMETRY OF AOS IN SYMMETRY 4:   1 1 1 1 1 1 1 1 1 1   1 1 1 1 1 1 1 1 1 1   1 1 2 3 2 3 2 3 2 3   2 3 2 3 2 3
 EXTRA SYMMETRY OF AOS IN SYMMETRY 5:   1 1 1 1 1 1 1 1 1 1   1 1 1 1 1 1 1 1 1 1   1 1 1 1 1 1 1 1 1 1   1 2 3 2 3 2 3 2 3 2
                                        3 2 3 2 3 2 3 2 3 2   3 2 3 2 3 2 3 2 3 2   3 4 5 6 4 5 6 4 5 6
 EXTRA SYMMETRY OF AOS IN SYMMETRY 6:   1 1 1 1 1 1 1 1 1 1   1 1 1 1 1 1 1 1 1 1   1 1 2 3 2 3 2 3 2 3   2 3 2 3 2 3
 EXTRA SYMMETRY OF AOS IN SYMMETRY 7:   1 1 1 1 1 1 1 1 1 1   1 1 1 1 1 1 1 1 1 1   1 1 2 3 2 3 2 3 2 3   2 3 2 3 2 3
 EXTRA SYMMETRY OF AOS IN SYMMETRY 8:   1 1 1 1 1 1 1 1 1 1   1 1 1 1 1 2 3 2 3 2   3

 Eigenvalues of metric

         1 0.333E-06 0.964E-06 0.340E-05 0.186E-04 0.475E-04 0.703E-04 0.799E-04 0.799E-04
         2 0.960E-06 0.179E-05 0.251E-04 0.110E-03 0.525E-03 0.525E-03 0.534E-03 0.156E-02
         3 0.960E-06 0.179E-05 0.251E-04 0.110E-03 0.525E-03 0.525E-03 0.534E-03 0.156E-02
         4 0.799E-04 0.144E-03 0.223E-02 0.632E-02 0.897E-02 0.238E-01 0.240E-01 0.240E-01
         5 0.960E-06 0.179E-05 0.251E-04 0.110E-03 0.525E-03 0.525E-03 0.534E-03 0.156E-02
         6 0.799E-04 0.144E-03 0.223E-02 0.632E-02 0.897E-02 0.238E-01 0.240E-01 0.240E-01
         7 0.799E-04 0.144E-03 0.223E-02 0.632E-02 0.897E-02 0.238E-01 0.240E-01 0.240E-01
         8 0.525E-03 0.142E-01 0.219E-01 0.528E-01 0.103E+00 0.167E+00 0.268E+00 0.268E+00


 Contracted 2-electron integrals neglected if value below      1.0D-15
 AO integral compression algorithm  1   Integral accuracy      1.0D-15

     3531.604 MB (compressed) written to integral file ( 42.0%)

     Node minimum: 171.442 MB, node maximum: 442.761 MB


 NUMBER OF SORTED TWO-ELECTRON INTEGRALS:   55639389.     BUFFER LENGTH:  32768
 NUMBER OF SEGMENTS:   2  SEGMENT LENGTH:   31979349      RECORD LENGTH: 524288

 Memory used in sort:      32.54 MW

 SORT1 READ  1050599776. AND WROTE    32247914. INTEGRALS IN     93 RECORDS. CPU TIME:    25.23 SEC, REAL TIME:    29.63 SEC
 SORT2 READ   352987961. AND WROTE   613618504. INTEGRALS IN  11990 RECORDS. CPU TIME:     1.27 SEC, REAL TIME:     1.99 SEC

 Node minimum:    55639389.  Node maximum:    55868715. integrals

 OPERATOR DM      FOR CENTER  0  COORDINATES:    0.000000    0.000000    0.000000


 **********************************************************************************************************************************
 DATASETS  * FILE   NREC   LENGTH (MB)   RECORD NAMES
              1      19       21.26       500      610      700      900      950      970     1000      129      960     1100
                                          VAR    BASINP    GEOM    SYMINP    ZMAT    AOBASIS   BASIS     P2S    ABASIS      S
                                         1400     1410     1420     1200     1210     1080     1600     1650     1700
                                           T        V       ECP      H0       H01     AOSYM     SMH    MOLCAS    OPER

 PROGRAMS   *        TOTAL       INT
 CPU TIMES  *       163.41    163.00
 REAL TIME  *       170.56 SEC
 DISK USED  *         7.78 GB
 GA USED    *         0.00 MB       (max)       0.00 MB       (current)
 **********************************************************************************************************************************


 PROGRAM * RHF-SCF (OPEN SHELL)       Authors: W. Meyer, H.-J. Werner


 NUMBER OF ELECTRONS:      11+   10-    SPACE SYMMETRY=5    SPIN SYMMETRY: Doublet
 CONVERGENCE THRESHOLDS:    1.00E-05 (Density)    1.00E-07 (Energy)
 MAX. NUMBER OF ITERATIONS:       60
 INTERPOLATION TYPE:            DIIS
 INTERPOLATION STEPS:              2 (START)      1 (STEP)
 LEVEL SHIFTS:                 -0.60 (CLOSED) -0.30 (OPEN)

 Number of closed-shell orbitals:   10 (   1   3   3   0   2   0   0   1 )
 Number of open-shell orbitals:      1 (   0   0   0   0   1   0   0   0 )



 Extra symmetries of mos in symmetry 2:   3   2   1
 Extra symmetries of mos in symmetry 3:   3   2   1
 Extra symmetries of mos in symmetry 5:   3   2   1
 Guess basis ATOMIC-GUESS,LU=ECP46_GUESS not found. No density guess!


 Molecular orbital dump at record        4202.2

 ITERATION    DDIFF          GRAD             ENERGY        2-EL.EN.            DIPOLE MOMENTS         DIIS   ORB.
    1      0.000D+00      0.000D+00      -172.34444240    459.298687    0.00000    0.00000    0.00000    0    start
    2      0.000D+00      0.401D+00      -140.45526931    110.919000    0.00000    0.00000    0.00000    0    diag,B
    3      0.133D+00      0.214D+00      -179.50962578    443.057752    0.00000    0.00000    0.00000    1    diag,B
    4      0.845D-01      0.362D+00      -194.59327588    401.567965    0.00000    0.00000    0.00000    2    diag,B
    5      0.511D-01      0.225D+00      -203.04969545    362.805850    0.00000    0.00000    0.00000    3    diag,B
    6      0.326D-01      0.118D+00      -203.88655434    294.201405    0.00000    0.00000    0.00000    4    diag,B
    7      0.280D-01      0.141D-01      -205.98354289    322.857991    0.00000    0.00000    0.00000    5    fixocc
    8      0.136D-01      0.267D-01      -206.12083538    322.743913    0.00000    0.00000    0.00000    6    diag,B
    9      0.247D-02      0.226D-01      -206.34613323    319.547942    0.00000    0.00000    0.00000    7    diag,B
   10      0.632D-02      0.886D-02      -206.36647738    319.374916    0.00000    0.00000    0.00000    8    orth
   11      0.102D-02      0.816D-02      -206.36609291    319.119092    0.00000    0.00000    0.00000    9    diag,B
   12      0.178D-03      0.750D-02      -206.37545140    317.365934    0.00000    0.00000    0.00000    9    diag,B
   13      0.822D-03      0.361D-02      -206.37411772    316.025215    0.00000    0.00000    0.00000    9    diag,B
   14      0.833D-03      0.208D-03      -206.37413648    315.998193    0.00000    0.00000    0.00000    9    diag,B
   15      0.476D-04      0.142D-03      -206.37412877    315.946875    0.00000    0.00000    0.00000    9    diag,B
   16      0.333D-04      0.981D-05      -206.37412884    315.949473    0.00000    0.00000    0.00000    9    diag,B
   17      0.550D-05      0.658D-05      -206.37412885    315.945979    0.00000    0.00000    0.00000    0    orth

 Final alpha occupancy:   1   3   3   0   3   0   0   1
 Final beta  occupancy:   1   3   3   0   2   0   0   1

 !RHF STATE 1.5 Energy               -206.374128845206
   --><property name="Energy" method="RHF" principal="true" stateSymmetry="5" stateNumber="1"
     value="-206.374128845206"/><!--
 Nuclear energy                         0.00000000
 One-electron energy                 -364.34711846
 Two-electron energy                  157.97298961
 Virial quotient                       -1.17551139
 !RHF STATE 1.5 Dipole moment           0.00000000     0.00000000     0.00000000
 Dipole moment /Debye                   0.00000000     0.00000000     0.00000000
   --><property name="Dipole moment" method="RHF" principal="true" stateSymmetry="5"
     stateNumber="1" value="0.0 0.0 0.0"/><!--

 ELECTRON ORBITALS
 =================


   Orb  Occ    Energy  Couls-En    Coefficients

                                   1 1s      1 1s      1 1s      1 1s      1 1s      1 1s      1 1s      1 1s      1 1s      1 1s
                                   1 1s      1 1s      1 1s      1 1s      1 1s      1 1s      1 1s      1 1s      1 1s      1 1s
                                   1 1s      1 1s      1 1s      1 1s      1 1s      1 1s      1 1s      1 1s      1 1s      1 1s
                                   1 1s      1 1s      1 1s      1 1s      1 1s      1 1s      1 1s      1 1s      1 3d0     1 3d2+
                                   1 3d0     1 3d2+    1 3d0     1 3d2+    1 3d0     1 3d2+    1 3d0     1 3d2+    1 3d0     1 3d2+
                                   1 3d0     1 3d2+    1 3d0     1 3d2+    1 3d0     1 3d2+    1 3d0     1 3d2+    1 3d0     1 3d2+
                                   1 3d0     1 3d2+    1 3d0     1 3d2+    1 3d0     1 3d2+    1 3d0     1 3d2+    1 3d0     1 3d2+
                                   1 3d0     1 3d2+    1 3d0     1 3d2+    1 3d0     1 3d2+    1 3d0     1 3d2+    1 3d0     1 3d2+
                                   1 3d0     1 3d2+    1 5g0     1 5g4+    1 5g2+    1 5g0     1 5g4+    1 5g2+    1 5g0     1 5g4+
                                   1 5g2+    1 5g0     1 5g4+    1 5g2+    1 5g0     1 5g4+    1 5g2+    1 5g0     1 5g4+    1 5g2+
                                   1 5g0     1 5g4+    1 5g2+

   1.1   2    -4.2077  -22.2819  0.000000 -0.000000  0.000000 -0.000000  0.000000 -0.000000  0.000000 -0.000001  0.000002 -0.000005
                                 0.000013 -0.000035  0.000098 -0.000324  0.001828  0.006009 -0.004336  0.006630 -0.013073 -0.005672
                                 0.036647 -0.197050  0.237309 -0.137457  0.471929 -1.063887  0.054650  1.041780  0.332141  0.013459
                                -0.016000  0.029791 -0.047168  0.036125 -0.014494  0.005633 -0.001460  0.000260  0.000000  0.000000
                                -0.000000 -0.000000  0.000000  0.000000 -0.000001 -0.000000  0.000003  0.000000 -0.000011 -0.000000
                                 0.000033  0.000000 -0.000104 -0.000000  0.000517  0.000000 -0.001280 -0.000000  0.001204  0.000000
                                -0.000693 -0.000000  0.000744  0.000000 -0.001728  0.000000 -0.003190 -0.000000  0.000956  0.000000
                                -0.003364 -0.000000  0.004827  0.000000 -0.002412 -0.000000  0.000480  0.000000 -0.000173 -0.000000
                                 0.000046  0.000000 -0.000000 -0.000000 -0.000000  0.000004 -0.000000 -0.000000 -0.000002  0.000000
                                -0.000000 -0.000019  0.000000 -0.000000  0.000019 -0.000000  0.000000 -0.000007  0.000000 -0.000000
                                 0.000002 -0.000000  0.000000

   2.1   0    -1.4006  -14.1535  0.000000 -0.000000  0.000000 -0.000000  0.000000 -0.000000  0.000000 -0.000000  0.000000 -0.000000
                                 0.000000 -0.000000  0.000000 -0.000002  0.000009  0.000030 -0.000022  0.000032 -0.000061 -0.000029
                                 0.000165 -0.001289  0.002262 -0.001860 -0.004680  0.021083 -0.018022 -0.016367  0.003870  0.019975
                                 0.003936  0.003221 -0.004196  0.002990 -0.001126  0.000424 -0.000107  0.000019  0.000000 -0.000000
                                -0.000001  0.000000  0.000005 -0.000000 -0.000022  0.000000  0.000078 -0.000000 -0.000247  0.000000
                                 0.000756 -0.000000 -0.002499  0.000000  0.013506 -0.000000 -0.035418  0.000000  0.034013 -0.000000
                                -0.016839  0.000000 -0.082610  0.000001  0.463078 -0.000005  0.592305 -0.000006  0.138719 -0.000001
                                -0.057258  0.000001  0.053673 -0.000001 -0.016046  0.000000  0.000774 -0.000000  0.000069  0.000000
                                -0.000058 -0.000000  0.000205 -0.000000  0.000000 -0.000778  0.000000 -0.000000  0.008397  0.000000
                                 0.000000  0.025089  0.000000  0.000000 -0.023086 -0.000000 -0.000000  0.009787  0.000000  0.000000
                                -0.003320 -0.000000 -0.000000

   3.1   0    -1.3374  -13.9689  0.000000 -0.000000  0.000000 -0.000000  0.000000 -0.000000  0.000000 -0.000000  0.000000 -0.000000
                                 0.000000 -0.000000  0.000000 -0.000000  0.000000  0.000000 -0.000000  0.000000 -0.000000 -0.000000
                                 0.000000 -0.000000  0.000000 -0.000000 -0.000000  0.000001 -0.000001 -0.000001 -0.000000  0.000001
                                 0.000000  0.000000 -0.000000  0.000000 -0.000000  0.000000 -0.000000  0.000000  0.000000  0.000000
                                -0.000000 -0.000001  0.000000  0.000005 -0.000000 -0.000023  0.000000  0.000083 -0.000000 -0.000264
                                 0.000000  0.000805 -0.000000 -0.002652  0.000000  0.014241 -0.000000 -0.037179  0.000000  0.035646
                                -0.000000 -0.018173 -0.000001 -0.077020  0.000005  0.442553  0.000006  0.592062  0.000002  0.170391
                                -0.000001 -0.106435  0.000001  0.123866 -0.000000 -0.050802  0.000000  0.007659 -0.000000 -0.002411
                                 0.000000  0.000602  0.000000  0.000000  0.000130 -0.000000 -0.000000 -0.000485  0.000000  0.000000
                                 0.005348  0.000000  0.000001  0.016681 -0.000000 -0.000001 -0.015185  0.000000  0.000000  0.006485
                                -0.000000 -0.000000 -0.002203

                                   1 2px     1 2px     1 2px     1 2px     1 2px     1 2px     1 2px     1 2px     1 2px     1 2px
                                   1 2px     1 2px     1 2px     1 2px     1 2px     1 2px     1 2px     1 2px     1 2px     1 2px
                                   1 2px     1 2px     1 2px     1 2px     1 2px     1 2px     1 2px     1 2px     1 2px     1 2px
                                   1 2px     1 4f1+    1 4f3+    1 4f1+    1 4f3+    1 4f1+    1 4f3+    1 4f1+    1 4f3+    1 4f1+
                                   1 4f3+    1 4f1+    1 4f3+    1 4f1+    1 4f3+    1 4f1+    1 4f3+    1 4f1+    1 4f3+    1 4f1+
                                   1 4f3+    1 4f1+    1 4f3+    1 4f1+    1 4f3+    1 4f1+    1 4f3+    1 4f1+    1 4f3+    1 4f1+
                                   1 4f3+    1 6h1+    1 6h3+    1 6h5+    1 6h1+    1 6h3+    1 6h5+    1 6h1+    1 6h3+    1 6h5+


   1.2   2    -1.7163  -19.3534 -0.000000  0.000000 -0.000000  0.000000 -0.000000  0.000000 -0.000000  0.000000 -0.000000  0.000000
                                -0.000000  0.000000 -0.000000  0.000000 -0.000000  0.000000 -0.000000  0.000000 -0.000000  0.000000
                                 0.000000 -0.000000  0.000000 -0.000001 -0.000000 -0.000000  0.000000  0.000000 -0.000000  0.000000
                                -0.000000  0.000000  0.000004 -0.000000 -0.000027  0.000000  0.000121  0.000000  0.000031  0.000001
                                 0.044407  0.000000  0.029797  0.000003  0.220085  0.000004  0.269924  0.000006  0.363149  0.000005
                                 0.310137  0.000002  0.125873  0.000000  0.003996  0.000000  0.001997 -0.000000 -0.001470  0.000000
                                 0.000529  0.000000  0.000637  0.000000  0.000000  0.002066  0.000000  0.000000  0.000800  0.000000

   2.2   2    -1.7549  -19.4041 -0.000000  0.000000 -0.000000  0.000000 -0.000000  0.000000 -0.000000  0.000000 -0.000000  0.000000
                                -0.000000  0.000000 -0.000001  0.000002 -0.000011  0.000176 -0.000552  0.001779 -0.004391  0.003921
                                 0.003164 -0.005104  0.003101 -0.011605 -0.012322 -0.004572  0.000518  0.012216 -0.000271  0.000115
                                -0.000025  0.000004 -0.000000 -0.000028  0.000000  0.000123 -0.000000  0.000023 -0.000000  0.044356
                                -0.000001  0.029598 -0.000000  0.219806 -0.000003  0.269676 -0.000004  0.364975 -0.000006  0.310827
                                -0.000005  0.122177 -0.000002  0.002706 -0.000000  0.002504 -0.000000 -0.001676  0.000000  0.000592
                                -0.000000  0.001140  0.000000 -0.000000  0.003707  0.000000  0.000000  0.001387 -0.000000 -0.000000

   3.2   2    -3.1017  -19.3282  0.000000 -0.000000  0.000000 -0.000000  0.000000 -0.000000  0.000001 -0.000002  0.000007 -0.000022
                                 0.000063 -0.000176  0.000486 -0.001471  0.005435 -0.049268  0.129622 -0.263143  0.536440 -0.668060
                                 0.151302  0.693093  0.030469  0.348333 -0.045145  0.013418  0.000901  0.045078 -0.001172  0.000519
                                -0.000117  0.000000  0.000000 -0.000002 -0.000000  0.000009  0.000000 -0.000039 -0.000000  0.000748
                                 0.000000 -0.000369 -0.000000  0.002691  0.000000  0.001810  0.000000  0.005496  0.000000  0.006007
                                 0.000000  0.000679  0.000000  0.000025  0.000000 -0.000035 -0.000000  0.000021  0.000000 -0.000007
                                -0.000000  0.000012 -0.000000  0.000000  0.000049  0.000000 -0.000000  0.000009 -0.000000  0.000000

   4.2   0    -0.8385   -8.3421 -0.000000  0.000000 -0.000000  0.000000 -0.000000  0.000000 -0.000000  0.000000 -0.000002  0.000005
                                -0.000014  0.000038 -0.000106  0.000318 -0.001142  0.007684 -0.014910  0.008422  0.082173 -0.198286
                                 0.040041  0.448642 -0.166558  0.427618  4.903345 -0.745616 -0.653582 -4.847311  0.099855 -0.041385
                                 0.008978  0.000000  0.000000 -0.000001 -0.000000  0.000004  0.000000 -0.000019 -0.000000  0.000212
                                 0.000000 -0.000299 -0.000000  0.000543  0.000000 -0.000227  0.000000  0.002070  0.000000  0.000694
                                 0.000000 -0.014619 -0.000000 -0.014223 -0.000000  0.003841  0.000000 -0.002187 -0.000000  0.000701
                                 0.000000 -0.000001  0.000000 -0.000000  0.000015  0.000000 -0.000000 -0.000147 -0.000000  0.000000

   5.2   0    -0.4906   -6.1492  0.000000 -0.000000  0.000000 -0.000000  0.000000 -0.000000  0.000000 -0.000000  0.000000 -0.000001
                                 0.000002 -0.000006  0.000016 -0.000050  0.000180 -0.001403  0.003214 -0.004600  0.000597  0.007917
                                -0.001723 -0.031066  0.015566 -0.025477 -1.672453  0.090996 -0.018558  1.594734 -0.024948  0.009797
                                -0.002073  0.000002 -0.000000 -0.000014  0.000000  0.000071 -0.000000 -0.000455  0.000000 -0.005369
                                 0.000000 -0.013271  0.000000 -0.038549  0.000000 -0.060792  0.000000 -0.060639  0.000000 -0.042871
                                 0.000000  0.159482 -0.000001  0.583953 -0.000003  0.288181 -0.000002  0.136436 -0.000001 -0.023266
                                 0.000000 -0.000181 -0.000000 -0.000000 -0.001193 -0.000000 -0.000000  0.003401  0.000000 -0.000000

                                   1 2py     1 2py     1 2py     1 2py     1 2py     1 2py     1 2py     1 2py     1 2py     1 2py
                                   1 2py     1 2py     1 2py     1 2py     1 2py     1 2py     1 2py     1 2py     1 2py     1 2py
                                   1 2py     1 2py     1 2py     1 2py     1 2py     1 2py     1 2py     1 2py     1 2py     1 2py
                                   1 2py     1 4f1-    1 4f3-    1 4f1-    1 4f3-    1 4f1-    1 4f3-    1 4f1-    1 4f3-    1 4f1-
                                   1 4f3-    1 4f1-    1 4f3-    1 4f1-    1 4f3-    1 4f1-    1 4f3-    1 4f1-    1 4f3-    1 4f1-
                                   1 4f3-    1 4f1-    1 4f3-    1 4f1-    1 4f3-    1 4f1-    1 4f3-    1 4f1-    1 4f3-    1 4f1-
                                   1 4f3-    1 6h1-    1 6h3-    1 6h5-    1 6h1-    1 6h3-    1 6h5-    1 6h1-    1 6h3-    1 6h5-


   1.3   2    -1.7163  -19.3534 -0.000000  0.000000 -0.000000  0.000000 -0.000000  0.000000 -0.000000  0.000000 -0.000000  0.000000
                                -0.000000  0.000000 -0.000000  0.000000 -0.000000  0.000000 -0.000000  0.000000 -0.000000  0.000000
                                 0.000000 -0.000000  0.000000 -0.000001 -0.000000 -0.000000  0.000000  0.000000 -0.000000  0.000000
                                -0.000000  0.000000  0.000004 -0.000000 -0.000027  0.000000  0.000121  0.000000  0.000031  0.000001
                                 0.044407  0.000000  0.029797  0.000003  0.220085  0.000004  0.269924  0.000006  0.363149  0.000005
                                 0.310137  0.000002  0.125873  0.000000  0.003996  0.000000  0.001997 -0.000000 -0.001470  0.000000
                                 0.000529  0.000000  0.000637  0.000000  0.000000  0.002066  0.000000  0.000000  0.000800  0.000000

   2.3   2    -1.7549  -19.4041 -0.000000  0.000000 -0.000000  0.000000 -0.000000  0.000000 -0.000000  0.000000 -0.000000  0.000000
                                -0.000000  0.000000 -0.000001  0.000002 -0.000011  0.000176 -0.000553  0.001779 -0.004391  0.003921
                                 0.003164 -0.005104  0.003101 -0.011605 -0.012322 -0.004572  0.000518  0.012217 -0.000271  0.000115
                                -0.000025  0.000004 -0.000000 -0.000028  0.000000  0.000123 -0.000000  0.000023 -0.000000  0.044356
                                -0.000001  0.029598 -0.000000  0.219806 -0.000003  0.269676 -0.000004  0.364975 -0.000006  0.310827
                                -0.000005  0.122177 -0.000002  0.002706 -0.000000  0.002504 -0.000000 -0.001676  0.000000  0.000592
                                -0.000000  0.001140  0.000000 -0.000000  0.003707  0.000000  0.000000  0.001387 -0.000000 -0.000000

   3.3   2    -3.1017  -19.3282  0.000000 -0.000000  0.000000 -0.000000  0.000000 -0.000000  0.000001 -0.000002  0.000007 -0.000022
                                 0.000063 -0.000176  0.000486 -0.001471  0.005435 -0.049268  0.129622 -0.263143  0.536440 -0.668060
                                 0.151302  0.693093  0.030469  0.348333 -0.045145  0.013418  0.000901  0.045078 -0.001172  0.000519
                                -0.000117  0.000000  0.000000 -0.000002 -0.000000  0.000009  0.000000 -0.000039 -0.000000  0.000748
                                 0.000000 -0.000369 -0.000000  0.002691  0.000000  0.001810  0.000000  0.005497  0.000000  0.006007
                                 0.000000  0.000679  0.000000  0.000025  0.000000 -0.000035 -0.000000  0.000021  0.000000 -0.000007
                                -0.000000  0.000012 -0.000000  0.000000  0.000049  0.000000 -0.000000  0.000009 -0.000000  0.000000

   4.3   0    -0.8385   -8.3421 -0.000000  0.000000 -0.000000  0.000000 -0.000000  0.000000 -0.000000  0.000000 -0.000002  0.000005
                                -0.000014  0.000038 -0.000106  0.000318 -0.001142  0.007684 -0.014910  0.008422  0.082172 -0.198285
                                 0.040040  0.448642 -0.166559  0.427619  4.903352 -0.745615 -0.653583 -4.847318  0.099855 -0.041385
                                 0.008978  0.000000  0.000000 -0.000001 -0.000000  0.000004  0.000000 -0.000019 -0.000000  0.000212
                                 0.000000 -0.000299 -0.000000  0.000543  0.000000 -0.000227  0.000000  0.002070  0.000000  0.000694
                                 0.000000 -0.014619 -0.000000 -0.014223 -0.000000  0.003841  0.000000 -0.002187 -0.000000  0.000701
                                 0.000000 -0.000001  0.000000 -0.000000  0.000015  0.000000 -0.000000 -0.000147 -0.000000  0.000000

   5.3   0    -0.4906   -6.1492  0.000000 -0.000000  0.000000 -0.000000  0.000000 -0.000000  0.000000 -0.000000  0.000000 -0.000001
                                 0.000002 -0.000006  0.000016 -0.000050  0.000180 -0.001403  0.003214 -0.004600  0.000597  0.007917
                                -0.001723 -0.031066  0.015566 -0.025478 -1.672451  0.090995 -0.018558  1.594732 -0.024948  0.009797
                                -0.002073  0.000002 -0.000000 -0.000014  0.000000  0.000071 -0.000000 -0.000455  0.000000 -0.005369
                                 0.000000 -0.013271  0.000000 -0.038549  0.000000 -0.060792  0.000000 -0.060638  0.000000 -0.042871
                                 0.000000  0.159482 -0.000001  0.583953 -0.000003  0.288182 -0.000002  0.136436 -0.000001 -0.023266
                                 0.000000 -0.000181 -0.000000  0.000000 -0.001193 -0.000000  0.000000  0.003401  0.000000 -0.000000

                                   1 3d2-    1 3d2-    1 3d2-    1 3d2-    1 3d2-    1 3d2-    1 3d2-    1 3d2-    1 3d2-    1 3d2-
                                   1 3d2-    1 3d2-    1 3d2-    1 3d2-    1 3d2-    1 3d2-    1 3d2-    1 3d2-    1 3d2-    1 3d2-
                                   1 3d2-    1 3d2-    1 5g2-    1 5g4-    1 5g2-    1 5g4-    1 5g2-    1 5g4-    1 5g2-    1 5g4-
                                   1 5g2-    1 5g4-    1 5g2-    1 5g4-    1 5g2-    1 5g4-

   1.4   0    -1.3374  -13.9689  0.000000 -0.000001  0.000005 -0.000023  0.000083 -0.000264  0.000805 -0.002652  0.014241 -0.037179
                                 0.035646 -0.018173 -0.077020  0.442553  0.592062  0.170391 -0.106435  0.123866 -0.050802  0.007659
                                -0.002411  0.000602  0.000130  0.000000 -0.000485 -0.000000  0.005348  0.000000  0.016681  0.000001
                                -0.015185 -0.000001  0.006485  0.000000 -0.002203 -0.000000

   2.4   0    -0.5770   -6.3492 -0.000000  0.000000 -0.000003  0.000011 -0.000038  0.000122 -0.000373  0.001232 -0.006637  0.017407
                                -0.016865  0.009482  0.030924 -0.200232 -0.312021  0.332842  1.135734 -0.677727  0.373539 -0.051579
                                 0.017660 -0.004584 -0.000048 -0.000000  0.000166  0.000000 -0.002182 -0.000000 -0.003445 -0.000000
                                 0.008341  0.000000  0.000989  0.000000  0.001258  0.000000

                                   1 2pz     1 2pz     1 2pz     1 2pz     1 2pz     1 2pz     1 2pz     1 2pz     1 2pz     1 2pz
                                   1 2pz     1 2pz     1 2pz     1 2pz     1 2pz     1 2pz     1 2pz     1 2pz     1 2pz     1 2pz
                                   1 2pz     1 2pz     1 2pz     1 2pz     1 2pz     1 2pz     1 2pz     1 2pz     1 2pz     1 2pz
                                   1 2pz     1 4f0     1 4f2+    1 4f0     1 4f2+    1 4f0     1 4f2+    1 4f0     1 4f2+    1 4f0
                                   1 4f2+    1 4f0     1 4f2+    1 4f0     1 4f2+    1 4f0     1 4f2+    1 4f0     1 4f2+    1 4f0
                                   1 4f2+    1 4f0     1 4f2+    1 4f0     1 4f2+    1 4f0     1 4f2+    1 4f0     1 4f2+    1 4f0
                                   1 4f2+    1 6h2+    1 6h4+    1 6h0     1 6h2+    1 6h4+    1 6h0     1 6h2+    1 6h4+    1 6h0


   1.5   2    -1.7405  -19.3855  0.000000 -0.000000  0.000000 -0.000000  0.000000 -0.000000  0.000000 -0.000000  0.000000 -0.000000
                                 0.000000 -0.000000  0.000000 -0.000000  0.000000 -0.000000  0.000001 -0.000002  0.000004 -0.000005
                                 0.000001  0.000005  0.000001  0.000001 -0.000002 -0.000000  0.000000  0.000002 -0.000000  0.000000
                                -0.000000  0.000000  0.000004 -0.000000 -0.000028  0.000000  0.000122 -0.000000  0.000026  0.000004
                                 0.044376  0.000002  0.029674  0.000018  0.219915  0.000022  0.269777  0.000030  0.364293  0.000026
                                 0.310629  0.000010  0.123600  0.000000  0.003166  0.000000  0.002326 -0.000000 -0.001605  0.000000
                                 0.000570  0.000955  0.000000  0.000000  0.003100  0.000000  0.000000  0.001176  0.000000  0.000000

   2.5   2    -1.7602  -19.4118  0.000000 -0.000000  0.000000 -0.000000  0.000000 -0.000000  0.000000 -0.000000  0.000000 -0.000000
                                 0.000001 -0.000003  0.000009 -0.000026  0.000091 -0.000731  0.001813 -0.002873  0.004885 -0.007934
                                 0.006780  0.007008  0.004097 -0.007614 -0.016056 -0.005068  0.000677  0.015922 -0.000356  0.000151
                                -0.000033  0.000004 -0.000000 -0.000028  0.000000  0.000123 -0.000000  0.000021 -0.000000  0.044361
                                -0.000004  0.029560 -0.000002  0.219802 -0.000018  0.269650 -0.000022  0.365271 -0.000030  0.310928
                                -0.000025  0.121683 -0.000010  0.002566 -0.000000  0.002551 -0.000000 -0.001695  0.000000  0.000597
                                -0.000000 -0.000000 -0.000000  0.001201 -0.000000 -0.000000  0.003908 -0.000000 -0.000000  0.001455

   3.5   +    -3.2096  -19.4743  0.000000 -0.000000  0.000000 -0.000000  0.000000 -0.000000  0.000001 -0.000002  0.000007 -0.000023
                                 0.000068 -0.000189  0.000520 -0.001575  0.005823 -0.052630  0.138209 -0.279727  0.560352 -0.685421
                                 0.151061  0.711461  0.032077  0.333324 -0.072153  0.009211  0.002237  0.071831 -0.001756  0.000765
                                -0.000171  0.000001 -0.000000 -0.000004  0.000000  0.000021 -0.000000 -0.000106 -0.000000  0.000338
                                -0.000000 -0.002133 -0.000000 -0.001089 -0.000001 -0.005398 -0.000002  0.001158 -0.000002  0.004069
                                -0.000002 -0.002822 -0.000001  0.000041 -0.000000 -0.000236 -0.000000  0.000142  0.000000 -0.000049
                                -0.000000  0.000000 -0.000000 -0.000018  0.000000  0.000000  0.000009 -0.000000 -0.000000 -0.000031

   4.5   0    -0.8583   -8.4621  0.000000 -0.000000  0.000000 -0.000000  0.000000 -0.000000  0.000000 -0.000000  0.000001 -0.000003
                                 0.000009 -0.000024  0.000067 -0.000200  0.000711 -0.004105  0.006121  0.007009 -0.103802  0.216831
                                -0.047574 -0.451288  0.128645 -0.384750 -4.687823  0.779244  0.610610  4.631858 -0.094646  0.039154
                                -0.008486 -0.000000 -0.000000  0.000001  0.000000 -0.000006 -0.000000  0.000027  0.000000 -0.000287
                                -0.000000  0.000429  0.000000 -0.000699 -0.000000  0.000363 -0.000000 -0.002671 -0.000000 -0.000725
                                -0.000000  0.017935  0.000001  0.016369  0.000000 -0.004606 -0.000000  0.002535  0.000000 -0.000812
                                -0.000000 -0.000000 -0.000000  0.000001 -0.000000 -0.000000 -0.000018  0.000000 -0.000000  0.000186

   5.5   0    -0.4918   -6.1554  0.000000 -0.000000  0.000000 -0.000000  0.000000 -0.000000  0.000000 -0.000000  0.000000 -0.000001
                                 0.000003 -0.000009  0.000025 -0.000076  0.000278 -0.002142  0.004865 -0.006749 -0.000231  0.013887
                                -0.002696 -0.051502  0.024808 -0.041850 -2.675599  0.149327 -0.027968  2.552242 -0.039976  0.015708
                                -0.003324  0.000002 -0.000000 -0.000014  0.000000  0.000071 -0.000000 -0.000453  0.000000 -0.005387
                                 0.000000 -0.013248  0.000000 -0.038595  0.000001 -0.060786  0.000002 -0.060886  0.000002 -0.042612
                                 0.000001  0.161852 -0.000005  0.583503 -0.000019  0.281784 -0.000009  0.134577 -0.000004 -0.023234
                                 0.000001 -0.000000  0.000000 -0.000191  0.000000  0.000000 -0.001254 -0.000000 -0.000000  0.003600

                                   1 3d1+    1 3d1+    1 3d1+    1 3d1+    1 3d1+    1 3d1+    1 3d1+    1 3d1+    1 3d1+    1 3d1+
                                   1 3d1+    1 3d1+    1 3d1+    1 3d1+    1 3d1+    1 3d1+    1 3d1+    1 3d1+    1 3d1+    1 3d1+
                                   1 3d1+    1 3d1+    1 5g1+    1 5g3+    1 5g1+    1 5g3+    1 5g1+    1 5g3+    1 5g1+    1 5g3+
                                   1 5g1+    1 5g3+    1 5g1+    1 5g3+    1 5g1+    1 5g3+

   1.6   0    -1.3839  -14.1079  0.000000 -0.000001  0.000005 -0.000022  0.000079 -0.000253  0.000771 -0.002548  0.013749 -0.036011
                                 0.034569 -0.017282 -0.081062  0.457991  0.592331  0.146776 -0.070120  0.071974 -0.025096  0.002564
                                -0.000576  0.000113  0.000187  0.000000 -0.000704 -0.000000  0.007643  0.000000  0.023090  0.000001
                                -0.021190 -0.000001  0.008999  0.000000 -0.003054 -0.000000

   2.6   0    -0.5858   -6.4125 -0.000000  0.000000 -0.000002  0.000010 -0.000035  0.000111 -0.000340  0.001128 -0.006136  0.016206
                                -0.015773  0.008784  0.032889 -0.208358 -0.307907  0.376045  1.074049 -0.615283  0.330832 -0.044335
                                 0.014950 -0.003855 -0.000067 -0.000000  0.000236  0.000000 -0.003089 -0.000000 -0.004265 -0.000000
                                 0.011433  0.000000  0.001439  0.000000  0.001637  0.000000

                                   1 3d1-    1 3d1-    1 3d1-    1 3d1-    1 3d1-    1 3d1-    1 3d1-    1 3d1-    1 3d1-    1 3d1-
                                   1 3d1-    1 3d1-    1 3d1-    1 3d1-    1 3d1-    1 3d1-    1 3d1-    1 3d1-    1 3d1-    1 3d1-
                                   1 3d1-    1 3d1-    1 5g1-    1 5g3-    1 5g1-    1 5g3-    1 5g1-    1 5g3-    1 5g1-    1 5g3-
                                   1 5g1-    1 5g3-    1 5g1-    1 5g3-    1 5g1-    1 5g3-

   1.7   0    -1.3839  -14.1079  0.000000 -0.000001  0.000005 -0.000022  0.000079 -0.000253  0.000771 -0.002548  0.013749 -0.036011
                                 0.034569 -0.017282 -0.081062  0.457990  0.592331  0.146778 -0.070122  0.071977 -0.025098  0.002564
                                -0.000576  0.000113  0.000187  0.000000 -0.000704 -0.000000  0.007643  0.000000  0.023090  0.000001
                                -0.021190 -0.000001  0.008999  0.000000 -0.003054 -0.000000

   2.7   0    -0.5858   -6.4125 -0.000000  0.000000 -0.000002  0.000010 -0.000035  0.000111 -0.000340  0.001128 -0.006136  0.016206
                                -0.015773  0.008784  0.032889 -0.208357 -0.307907  0.376043  1.074052 -0.615286  0.330834 -0.044336
                                 0.014950 -0.003855 -0.000067 -0.000000  0.000236  0.000000 -0.003089 -0.000000 -0.004265 -0.000000
                                 0.011433  0.000000  0.001439  0.000000  0.001637  0.000000

                                   1 4f2-    1 4f2-    1 4f2-    1 4f2-    1 4f2-    1 4f2-    1 4f2-    1 4f2-    1 4f2-    1 4f2-
                                   1 4f2-    1 4f2-    1 4f2-    1 4f2-    1 4f2-    1 6h4-    1 6h2-    1 6h4-    1 6h2-    1 6h4-
                                   1 6h2-

   1.8   2    -1.7405  -19.3855  0.000004 -0.000028  0.000122  0.000026  0.044376  0.029674  0.219915  0.269777  0.364293  0.310629
                                 0.123600  0.003166  0.002326 -0.001605  0.000570  0.000000  0.000955  0.000000  0.003100  0.000000
                                 0.001176

   2.8   0    -0.4873   -6.1083  0.000002 -0.000014  0.000070 -0.000451 -0.005291 -0.013129 -0.038048 -0.060056 -0.059484 -0.043034
                                 0.152345  0.578030  0.300914  0.139894 -0.023099 -0.000000 -0.000150 -0.000000 -0.000994  0.000000
                                 0.002788

   3.8   0    -0.3123   -3.9244 -0.000002  0.000013 -0.000064  0.000397  0.003800  0.011032  0.029229  0.047766  0.044884  0.030022
                                -0.153170 -0.588641  0.124604  0.805480  0.190642  0.000000  0.000116  0.000000  0.000708 -0.000000
                                -0.002396

 HOMO      1.8    -1.740535 =     -47.3624eV
 LUMO      2.1    -1.400637 =     -38.1133eV
 LUMO-HOMO         0.339898 =       9.2491eV


 **********************************************************************************************************************************
 DATASETS  * FILE   NREC   LENGTH (MB)   RECORD NAMES
              1      19       21.31       500      610      700      900      950      970     1000      129      960     1100
                                          VAR    BASINP    GEOM    SYMINP    ZMAT    AOBASIS   BASIS     P2S    ABASIS      S
                                         1400     1410     1420     1200     1210     1080     1600     1650     1700
                                           T        V       ECP      H0       H01     AOSYM     SMH    MOLCAS    OPER

              2       5        6.25       200      700     1000      520     4202
                                        OPTIONS   GEOM     BASIS   MCVARS     RHF

 PROGRAMS   *        TOTAL       RHF       INT
 CPU TIMES  *       166.39      2.98    163.00
 REAL TIME  *       173.82 SEC
 DISK USED  *         8.13 GB
 SF USED    *         0.12 MB
 GA USED    *         0.00 MB       (max)       0.00 MB       (current)
 **********************************************************************************************************************************
   -->
   <time start="06:19:45" end="06:22:38" cpu="166.39" system="7.12" real="173.82"/>
   <storage units="megabyte" memory="8001.84" sf="0.12" df="352.05" eaf="7781.59" ga="0.0"/>
  </jobstep><!--
  --><jobstep command="POP" commandset="POP">
   <!--


 PROGRAM * POP (Mulliken population analysis)


 Density matrix read from record         4202.2  Type=RHF/CHARGE (state 1.5)

 Population analysis by basis function type

 Unique atom        s        p        d        f        g    Total    Charge
   1  LU      1.99997  5.00030  0.00003 13.99942  0.00000 21.00000  + 4.00000


 **********************************************************************************************************************************
 DATASETS  * FILE   NREC   LENGTH (MB)   RECORD NAMES
              1      19       21.31       500      610      700      900      950      970     1000      129      960     1100
                                          VAR    BASINP    GEOM    SYMINP    ZMAT    AOBASIS   BASIS     P2S    ABASIS      S
                                         1400     1410     1420     1200     1210     1080     1600     1650     1700
                                           T        V       ECP      H0       H01     AOSYM     SMH    MOLCAS    OPER

              2       5        6.25       200      700     1000      520     4202
                                        OPTIONS   GEOM     BASIS   MCVARS     RHF

 PROGRAMS   *        TOTAL       POP       RHF       INT
 CPU TIMES  *       166.40      0.00      2.98    163.00
 REAL TIME  *       173.83 SEC
 DISK USED  *         8.13 GB
 SF USED    *         0.12 MB
 GA USED    *         0.00 MB       (max)       0.00 MB       (current)
 **********************************************************************************************************************************
   -->
   <time start="06:22:38" end="06:22:38" cpu="0.01" system="0.0" real="0.01"/>
   <storage units="megabyte" memory="8001.84" sf="0.12" df="352.05" eaf="7781.59" ga="0.0"/>
  </jobstep><!--
  --><jobstep command="MULTI" commandset="MULTI">
   <!--


 PROGRAM * MULTI (Direct Multiconfiguration SCF)       Authors: P.J. Knowles, H.-J. Werner (1984)     S.T. Elbert (1988)


 Number of closed-shell orbitals:   8 (   1   2   2   0   2   0   0   1 )
 Number of active  orbitals:        3 (   0   1   1   0   1   0   0   0 )
 Number of external orbitals:     431 ( 102  67  67  36  67  36  36  20 )

 State symmetry 1

 Number of electrons:     5    Spin symmetry=Doublet   Space symmetry=5
 Number of states:        1
 Number of CSFs:          1   (1 determinants, 3 intermediate states)

 State symmetry 2
