<?xml version="1.0"?>
<molpro xmlns="http://www.molpro.net/schema/molpro-output"
  xmlns:xsd="http://www.w3.org/1999/XMLSchema"
  xmlns:cml="http://www.xml-cml.org/schema"
  xmlns:stm="http://www.xml-cml.org/schema"
  xmlns:xhtml="http://www.w3.org/1999/xhtml">
 <!--

 Nodes     nprocs
 nid12791     5
 Number of processes for MPI-2 version of Molpro:   nprocs(total)=    6   nprocs(compute)=    5   nprocs(helper)=    1

 Using customized tuning parameters: mindgm=7; mindgv=16; mindgc=1; mindgr=1; noblas=0; minvec=7
 default implementation of scratch files=sf

 --><job>
  <!--

 Variables initialized (889), CPU time= 0.02 sec
 Commands  initialized (702), CPU time= 0.00 sec, 572 directives.
 Default parameters read. Elapsed time= 0.14 sec

 Checking input...
 Passed
1


                                         ***  PROGRAM SYSTEM MOLPRO  ***
                                       Copyright, TTI GmbH Stuttgart, 2015
                                    Version 2015.1 linked Dec 29 2018 15:55:43


 **********************************************************************************************************************************
 LABEL *   Calculation for Gd atom, singlet and triplet
  64 bit mpp version                                                                     DATE: 17-Apr-23          TIME: 12:04:09
 **********************************************************************************************************************************

 SHA1:             19cd028119e0e09f93f0674bd8af7968d9b3eff6
 **********************************************************************************************************************************
  -->
  <!--

 THRESHOLDS:

 ZERO    =  1.00D-12  ONEINT  =  1.00D-12  TWOINT  =  1.00D-15  PREFAC  =  1.00D-14  LOCALI  =  1.00D-09  EORDER  =  1.00D-04
 ENERGY  =  0.00D+00  ETEST   =  0.00D+00  EDENS   =  0.00D+00  THRDEDEF=  1.00D-06  GRADIENT=  1.00D-02  STEP    =  1.00D-03
 ORBITAL =  1.00D-05  CIVEC   =  1.00D-05  COEFF   =  1.00D-04  PRINTCI =  5.00D-02  PUNCHCI =  9.90D+01  OPTGRAD =  3.00D-04
 OPTENERG=  1.00D-06  OPTSTEP =  3.00D-04  THRGRAD =  1.00D-10  COMPRESS=  1.00D-11  VARMIN  =  1.00D-07  VARMAX  =  1.00D-03
 THRDOUB =  0.00D+00  THRDIV  =  1.00D-05  THRRED  =  1.00D-07  THRPSP  =  1.00D+00  THRDC   =  1.00D-10  THRCS   =  1.00D-10
 THRNRM  =  1.00D-08  THREQ   =  0.00D+00  THRDE   =  1.00D+00  THRREF  =  1.00D-05  SPARFAC =  1.00D+00  THRDLP  =  1.00D-07
 THRDIA  =  1.00D-10  THRDLS  =  1.00D-07  THRGPS  =  0.00D+00  THRKEX  =  0.00D+00  THRDIS  =  2.00D-01  THRVAR  =  1.00D-10
 THRLOC  =  1.00D-06  THRGAP  =  1.00D-06  THRLOCT = -1.00D+00  THRGAPT = -1.00D+00  THRORB  =  1.00D-06  THRMLTP =  0.00D+00
 THRCPQCI=  1.00D-10  KEXTA   =  0.00D+00  THRCOARS=  0.00D+00  SYMTOL  =  1.00D-06  GRADTOL =  1.00D-06  THROVL  =  1.00D-08
 THRORTH =  1.00D-08  GRID    =  1.00D-06  GRIDMAX =  1.00D-03  DTMAX   =  0.00D+00  THROCCDE=  1.00D-01  THROCCDE=  1.00D-01



 THRESHOLDS:

 ZERO    =  1.00D-12  ONEINT  =  1.00D-15  TWOINT  =  1.00D-15  PREFAC  =  1.00D-14  LOCALI  =  1.00D-09  EORDER  =  1.00D-04
 ENERGY  =  0.00D+00  ETEST   =  0.00D+00  EDENS   =  0.00D+00  THRDEDEF=  1.00D-06  GRADIENT=  1.00D-02  STEP    =  1.00D-03
 ORBITAL =  1.00D-05  CIVEC   =  1.00D-05  COEFF   =  1.00D-04  PRINTCI =  5.00D-02  PUNCHCI =  9.90D+01  OPTGRAD =  3.00D-04
 OPTENERG=  1.00D-06  OPTSTEP =  3.00D-04  THRGRAD =  1.00D-10  COMPRESS=  1.00D-11  VARMIN  =  1.00D-07  VARMAX  =  1.00D-03
 THRDOUB =  0.00D+00  THRDIV  =  1.00D-05  THRRED  =  1.00D-07  THRPSP  =  1.00D+00  THRDC   =  1.00D-10  THRCS   =  1.00D-10
 THRNRM  =  1.00D-08  THREQ   =  0.00D+00  THRDE   =  1.00D+00  THRREF  =  1.00D-05  SPARFAC =  1.00D+00  THRDLP  =  1.00D-07
 THRDIA  =  1.00D-10  THRDLS  =  1.00D-07  THRGPS  =  0.00D+00  THRKEX  =  0.00D+00  THRDIS  =  2.00D-01  THRVAR  =  1.00D-10
 THRLOC  =  1.00D-06  THRGAP  =  1.00D-06  THRLOCT = -1.00D+00  THRGAPT = -1.00D+00  THRORB  =  1.00D-06  THRMLTP =  0.00D+00
 THRCPQCI=  1.00D-10  KEXTA   =  0.00D+00  THRCOARS=  0.00D+00  SYMTOL  =  1.00D-06  GRADTOL =  1.00D-06  THROVL  =  1.00D-08
 THRORTH =  1.00D-08  GRID    =  1.00D-06  GRIDMAX =  1.00D-03  DTMAX   =  0.00D+00  THROCCDE=  1.00D-01  THROCCDE=  1.00D-01


 SETTING DKROLL         =         1.00000000
 SETTING DKHO           =        10.00000000
 SETTING DKHP           =         4.00000000

Geometry recognized as XYZ


 Variable memory set to 2000000000 words,  buffer space   230000 words

 SETTING BASIS          =    USERDEF

 DO I                   =        17.00000000

 Running procedure=IIIEF2
  --><jobstep command="RHF-SCF" commandset="SCFPRO">
   <!--


 Recomputing integrals since basis changed


 Using spherical harmonics



 PROGRAM * SEWARD (Integral evaluation for generally contracted gaussian basis sets)     Author: Roland Lindh, 1990

 Geometry written to block  1 of record 700

 Orientation using atomic masses
 Molecule type: Atom
 Symmetry elements: X,Y,Z
 Rotational constants:       0.0000000      0.0000000      0.0000000 GHz  (calculated with average atomic masses)

 Point group  D2h


   --><cml:molecule>
    <cml:symmetry pointGroup="D2h"/>
    <cml:atomArray>
     <cml:atom id="a1" elementType="Lu" x3="0.0" y3="0.0" z3="0.0"/>
    </cml:atomArray>
    <cml:bondArray>
    </cml:bondArray>
   </cml:molecule><!--

 ATOMIC COORDINATES

 NR  ATOM    CHARGE       X              Y              Z

   1  LU     71.00    0.000000000    0.000000000    0.000000000

 NUCLEAR CHARGE:                   71
 NUMBER OF PRIMITIVE AOS:         503
 NUMBER OF SYMMETRY AOS:          380
 NUMBER OF CONTRACTIONS:          380   (  85Ag  +  62B3u +  62B2u +  30B1g +  62B1u +  30B2g +  30B3g +  19Au  )
 NUMBER OF CORE ORBITALS:          23   (   8Ag  +   3B3u +   3B2u +   2B1g +   3B1u +   2B2g +   2B3g +   0Au  )
 NUMBER OF VALENCE ORBITALS:       17   (   4Ag  +   3B3u +   3B2u +   1B1g +   3B1u +   1B2g +   1B3g +   1Au  )


 NUCLEAR REPULSION ENERGY    0.00000000

 One-electron integrals computed with SEWARD

 10nd-order Douglas-Kroll-Hess method activated. McWeeny DKH parametrization is used.

 Computing Douglas-Kroll / X2C integrals

 AO integral compression algorithm  1   Integral accuracy      1.0D-15

     1957.691 MB (compressed) written to integral file ( 43.0%)

     Node minimum: 152.568 MB, node maximum: 525.074 MB


 NUMBER OF SORTED TWO-ELECTRON INTEGRALS:   67096799.     BUFFER LENGTH:  32768
 NUMBER OF SEGMENTS:   3  SEGMENT LENGTH:   31997310      RECORD LENGTH: 524288

 Memory used in sort:      32.55 MW

 SORT1 READ   568811974. AND WROTE    38197941. INTEGRALS IN    111 RECORDS. CPU TIME:    13.23 SEC, REAL TIME:    16.09 SEC
 SORT2 READ   190908661. AND WROTE   335703620. INTEGRALS IN   2910 RECORDS. CPU TIME:     1.40 SEC, REAL TIME:     1.97 SEC

 Node minimum:    67096799.  Node maximum:    67169268. integrals

 OPERATOR DM      FOR CENTER  0  COORDINATES:    0.000000    0.000000    0.000000

 EXTRA SYMMETRY OF AOS IN SYMMETRY 1:   1 1 1 1 1 1 1 1 1 1   1 1 1 1 1 1 1 1 1 1   1 1 1 1 1 1 1 1 1 1   1 2 3 2 3 2 3 2 3 2
                                        3 2 3 2 3 2 3 2 3 2   3 2 3 2 3 2 3 2 3 2   3 2 3 2 3 2 3 4 5 6   4 5 6 4 5 6 4 5 6 4
                                        5 6 4 5 6
 EXTRA SYMMETRY OF AOS IN SYMMETRY 2:   1 1 1 1 1 1 1 1 1 1   1 1 1 1 1 1 1 1 1 1   1 1 1 1 1 1 1 2 3 2   3 2 3 2 3 2 3 2 3 2
                                        3 2 3 2 3 2 3 2 3 2   3 2 3 4 5 6 4 5 6 4   5 6
 EXTRA SYMMETRY OF AOS IN SYMMETRY 3:   1 1 1 1 1 1 1 1 1 1   1 1 1 1 1 1 1 1 1 1   1 1 1 1 1 1 1 2 3 2   3 2 3 2 3 2 3 2 3 2
                                        3 2 3 2 3 2 3 2 3 2   3 2 3 4 5 6 4 5 6 4   5 6
 EXTRA SYMMETRY OF AOS IN SYMMETRY 4:   1 1 1 1 1 1 1 1 1 1   1 1 1 1 1 1 1 1 2 3   2 3 2 3 2 3 2 3 2 3
 EXTRA SYMMETRY OF AOS IN SYMMETRY 5:   1 1 1 1 1 1 1 1 1 1   1 1 1 1 1 1 1 1 1 1   1 1 1 1 1 1 1 2 3 2   3 2 3 2 3 2 3 2 3 2
                                        3 2 3 2 3 2 3 2 3 2   3 2 3 4 5 6 4 5 6 4   5 6
 EXTRA SYMMETRY OF AOS IN SYMMETRY 6:   1 1 1 1 1 1 1 1 1 1   1 1 1 1 1 1 1 1 2 3   2 3 2 3 2 3 2 3 2 3
 EXTRA SYMMETRY OF AOS IN SYMMETRY 7:   1 1 1 1 1 1 1 1 1 1   1 1 1 1 1 1 1 1 2 3   2 3 2 3 2 3 2 3 2 3
 EXTRA SYMMETRY OF AOS IN SYMMETRY 8:   1 1 1 1 1 1 1 1 1 1   1 1 1 2 3 2 3 2 3

 Eigenvalues of metric

         1 0.433E-04 0.526E-04 0.113E-03 0.205E-03 0.387E-03 0.579E-03 0.702E-03 0.702E-03
         2 0.122E-04 0.207E-04 0.110E-03 0.494E-03 0.158E-02 0.385E-02 0.728E-02 0.144E-01
         3 0.122E-04 0.207E-04 0.110E-03 0.494E-03 0.158E-02 0.385E-02 0.728E-02 0.144E-01
         4 0.702E-03 0.220E-02 0.838E-02 0.215E-01 0.345E-01 0.566E-01 0.104E+00 0.174E+00
         5 0.122E-04 0.207E-04 0.110E-03 0.494E-03 0.158E-02 0.385E-02 0.728E-02 0.144E-01
         6 0.702E-03 0.220E-02 0.838E-02 0.215E-01 0.345E-01 0.566E-01 0.104E+00 0.174E+00
         7 0.702E-03 0.220E-02 0.838E-02 0.215E-01 0.345E-01 0.566E-01 0.104E+00 0.174E+00
         8 0.144E-01 0.330E-01 0.524E-01 0.114E+00 0.217E+00 0.268E+00 0.268E+00 0.366E+00


 **********************************************************************************************************************************
 DATASETS  * FILE   NREC   LENGTH (MB)   RECORD NAMES
              1      22       21.47       500      610      700      900      950      970     1000      129      960     1700
                                          VAR    BASINP    GEOM    SYMINP    ZMAT    AOBASIS   BASIS     P2S    ABASIS    OPER
                                         1101     1401     1411     1412     1650     1100     1400     1410     1200     1210
                                          SR      EKINR    POTR     PVPR    MOLCAS      S      EKIN      POT      H0       H01
                                         1080     1600
                                         AOSYM     SMH

 PROGRAMS   *        TOTAL       INT
 CPU TIMES  *        81.80     81.35
 REAL TIME  *        87.12 SEC
 DISK USED  *         4.32 GB
 GA USED    *         0.00 MB       (max)       0.00 MB       (current)
 **********************************************************************************************************************************


 PROGRAM * RHF-SCF (OPEN SHELL)       Authors: W. Meyer, H.-J. Werner


 NUMBER OF ELECTRONS:      36+   34-    SPACE SYMMETRY=4    SPIN SYMMETRY: Triplet
 CONVERGENCE THRESHOLDS:    1.00E-05 (Density)    1.42E-07 (Energy)
 MAX. NUMBER OF ITERATIONS:       60
 INTERPOLATION TYPE:            DIIS
 INTERPOLATION STEPS:              2 (START)      1 (STEP)
 LEVEL SHIFTS:                 -0.60 (CLOSED) -0.30 (OPEN)

 Number of closed-shell orbitals:   34 (   9   6   6   2   6   2   2   1 )
 Number of open-shell orbitals:      2 (   0   1   1   0   0   0   0   0 )



 Extra symmetries of mos in symmetry 2:   1   1   1   1   3   2   3   2
 Extra symmetries of mos in symmetry 3:   1   1   1   1   3   2   3   2
 Extra symmetries of mos in symmetry 5:   1   1   1   1   3   2   3   2
 Orbital guess generated from atomic densities. Full valence occupancy:   12   6   6   3   6   3   3   1


 Molecular orbital dump at record        4202.2

 ITERATION    DDIFF          GRAD             ENERGY        2-EL.EN.            DIPOLE MOMENTS         DIIS   ORB.
    1      0.000D+00      0.000D+00    -14558.48657380  10717.090467    0.00000    0.00000    0.00000    0    start
    2      0.000D+00      0.149D-01    -14558.58726669  10828.102975    0.00000    0.00000    0.00000    1    diag,B
    3      0.151D-01      0.198D-01    -14558.67698222  10783.734736    0.00000    0.00000    0.00000    2    diag,B
    4      0.458D-02      0.248D-02    -14558.70722573  10780.411920    0.00000    0.00000    0.00000    3    diag,B
    5      0.814D-02      0.951D-03    -14558.72850757  10784.589728    0.00000    0.00000    0.00000    4    diag,B
    6      0.627D-02      0.603D-03    -14558.74545636  10788.649494    0.00000    0.00000    0.00000    5    diag,B
    7      0.592D-02      0.354D-03    -14558.75289678  10792.983353    0.00000    0.00000    0.00000    6    fixocc
    8      0.506D-02      0.583D-04    -14558.75298622  10793.410029    0.00000    0.00000    0.00000    7    diag,B
    9      0.345D-03      0.149D-04    -14558.75299067  10793.483562    0.00000    0.00000    0.00000    8    diag,B
   10      0.506D-04      0.407D-05    -14558.75299099  10793.492348    0.00000    0.00000    0.00000    9    orth
   11      0.289D-04      0.573D-06    -14558.75299100  10793.494976    0.00000    0.00000    0.00000    9    diag,B
   12      0.251D-05      0.105D-06    -14558.75299100  10793.495193    0.00000    0.00000    0.00000    0    orth

 Final alpha occupancy:   9   7   7   2   6   2   2   1
 Final beta  occupancy:   9   6   6   2   6   2   2   1

 !RHF STATE 1.4 Energy               -14558.7529909982
   --><property name="Energy" method="RHF" principal="true" stateSymmetry="4" stateNumber="1"
     value="-14558.7529909982"/><!--
 Nuclear energy                         0.00000000
 One-electron energy               -19955.50058761
 Two-electron energy                 5396.74759661
 Virial quotient                       -0.73342443
 !RHF STATE 1.4 Dipole moment           0.00000000     0.00000000     0.00000000
 Dipole moment /Debye                   0.00000000     0.00000000     0.00000000
   --><property name="Dipole moment" method="RHF" principal="true" stateSymmetry="4"
     stateNumber="1" value="0.0 0.0 0.0"/><!--

 ELECTRON ORBITALS
 =================


   Orb  Occ    Energy  Couls-En    Coefficients

                                   1 1s      1 1s      1 1s      1 1s      1 1s      1 1s      1 1s      1 1s      1 1s      1 1s
                                   1 1s      1 1s      1 1s      1 1s      1 1s      1 1s      1 1s      1 1s      1 1s      1 1s
                                   1 1s      1 1s      1 1s      1 1s      1 1s      1 1s      1 1s      1 1s      1 1s      1 1s
                                   1 1s      1 3d0     1 3d2+    1 3d0     1 3d2+    1 3d0     1 3d2+    1 3d0     1 3d2+    1 3d0
                                   1 3d2+    1 3d0     1 3d2+    1 3d0     1 3d2+    1 3d0     1 3d2+    1 3d0     1 3d2+    1 3d0
                                   1 3d2+    1 3d0     1 3d2+    1 3d0     1 3d2+    1 3d0     1 3d2+    1 3d0     1 3d2+    1 3d0
                                   1 3d2+    1 3d0     1 3d2+    1 3d0     1 3d2+    1 3d0     1 3d2+    1 5g0     1 5g4+    1 5g2+
                                   1 5g0     1 5g4+    1 5g2+    1 5g0     1 5g4+    1 5g2+    1 5g0     1 5g4+    1 5g2+    1 5g0
                                   1 5g4+    1 5g2+    1 5g0     1 5g4+    1 5g2+

   1.1   2 -2339.8763-5056.6077  0.000557  0.000534  0.001533  0.002162  0.004337  0.006949  0.012526  0.020944  0.036464  0.061414
                                 0.103322  0.164200  0.236008  0.270084  0.205554  0.074383  0.007430  0.000489 -0.000143 -0.000017
                                -0.000003  0.000012 -0.000006  0.000004 -0.000003  0.000002 -0.000002  0.000002 -0.000001  0.000001
                                -0.000000  0.000000  0.000000  0.000000 -0.000000  0.000000 -0.000000  0.000000 -0.000000  0.000000
                                -0.000000  0.000000 -0.000000  0.000000 -0.000000  0.000000 -0.000000  0.000000 -0.000000  0.000000
                                -0.000000  0.000000 -0.000000  0.000000 -0.000000 -0.000000  0.000000 -0.000000  0.000000  0.000000
                                 0.000000 -0.000000  0.000000  0.000000 -0.000000 -0.000000  0.000000 -0.000000  0.000000  0.000000
                                 0.000000 -0.000000 -0.000000  0.000000  0.000000  0.000000  0.000000 -0.000000 -0.000000 -0.000000
                                -0.000000 -0.000000  0.000000 -0.000000 -0.000000

   2.1   2  -403.7517-1092.6281 -0.000208 -0.000200 -0.000574 -0.000812 -0.001633 -0.002631 -0.004772 -0.008082 -0.014279 -0.024754
                                -0.043175 -0.073619 -0.116506 -0.158069 -0.130526  0.047989  0.385265  0.457057  0.250127  0.029089
                                -0.025060  0.019767 -0.011279  0.006705 -0.004815  0.003576 -0.003326  0.002602 -0.001963  0.001549
                                -0.000501  0.000000 -0.000000  0.000000  0.000000  0.000000 -0.000000  0.000000 -0.000000  0.000000
                                -0.000000  0.000000 -0.000000  0.000000 -0.000000 -0.000000  0.000000 -0.000000  0.000000 -0.000000
                                 0.000000 -0.000000  0.000000 -0.000000  0.000000 -0.000000  0.000000  0.000000 -0.000000 -0.000000
                                -0.000000  0.000000 -0.000000 -0.000000  0.000000  0.000000 -0.000000  0.000000 -0.000000 -0.000000
                                 0.000000  0.000000  0.000000 -0.000000 -0.000000 -0.000000 -0.000000  0.000000  0.000000  0.000000
                                 0.000000  0.000000 -0.000000  0.000000  0.000000

   3.1   2   -94.1104 -385.6862  0.000098  0.000094  0.000271  0.000382  0.000776  0.001231  0.002291  0.003746  0.007007  0.011263
                                 0.022113  0.032485  0.065340  0.063160  0.106505 -0.120471 -0.150217 -0.786233  0.216860  1.236162
                                -0.343468  0.432715 -0.253583  0.159143 -0.117767  0.089038 -0.083781  0.065909 -0.049940  0.039475
                                -0.012794  0.000000  0.000000  0.000000  0.000000  0.000000  0.000000  0.000000  0.000000  0.000000
                                 0.000000  0.000001  0.000000  0.000002 -0.000000  0.000004  0.000000  0.000003  0.000000  0.000001
                                -0.000000 -0.000000  0.000000  0.000000 -0.000000 -0.000000  0.000000  0.000000 -0.000000 -0.000000
                                 0.000000  0.000001 -0.000000 -0.000001  0.000000  0.000001 -0.000000 -0.000000  0.000000  0.000000
                                 0.000000  0.000000  0.000000 -0.000000 -0.000000 -0.000000  0.000000 -0.000000 -0.000000 -0.000000
                                -0.000000 -0.000000  0.000000 -0.000000 -0.000000

   4.1   2   -61.3637 -329.9774 -0.000000 -0.000000 -0.000000 -0.000000 -0.000000 -0.000000 -0.000000 -0.000000 -0.000000 -0.000000
                                -0.000000 -0.000000 -0.000001 -0.000001 -0.000001  0.000002  0.000001  0.000010 -0.000004 -0.000019
                                 0.000010 -0.000004  0.000004 -0.000004  0.000002 -0.000002  0.000002 -0.000001  0.000001 -0.000001
                                 0.000000  0.000105 -0.000000  0.000790 -0.000000  0.004461 -0.000000  0.019795 -0.000000  0.067754
                                -0.000000  0.174622 -0.000000  0.315606 -0.000000  0.365684 -0.000000  0.218144 -0.000000  0.051215
                                -0.000000  0.003255 -0.000000  0.000553 -0.000000  0.000015 -0.000000  0.000034 -0.000000 -0.000024
                                 0.000000  0.000059 -0.000000 -0.000066  0.000000  0.000022 -0.000000  0.000002  0.000000 -0.000000
                                -0.000000 -0.000000 -0.000000  0.000000  0.000000  0.000000  0.000000  0.000000 -0.000000 -0.000000
                                 0.000000  0.000000  0.000000  0.000000 -0.000000

   5.1   2   -61.3634 -329.9772  0.000000  0.000000  0.000000  0.000000  0.000000  0.000000  0.000000  0.000000  0.000000  0.000000
                                 0.000000  0.000000  0.000000  0.000000 -0.000000  0.000000 -0.000000  0.000000 -0.000000  0.000000
                                -0.000000 -0.000000  0.000000  0.000000  0.000000 -0.000000 -0.000000 -0.000000 -0.000000 -0.000000
                                 0.000000  0.000000  0.000105  0.000000  0.000790  0.000000  0.004461  0.000000  0.019795  0.000000
                                 0.067754  0.000000  0.174622  0.000000  0.315606  0.000000  0.365684  0.000000  0.218144  0.000000
                                 0.051216  0.000000  0.003256  0.000000  0.000553  0.000000  0.000015  0.000000  0.000034 -0.000000
                                -0.000024  0.000000  0.000059 -0.000000 -0.000066  0.000000  0.000022  0.000000 -0.000000  0.000001
                                -0.000000 -0.000000 -0.000000  0.000000  0.000000  0.000000  0.000000  0.000000  0.000000  0.000000
                                 0.000000  0.000000 -0.000000  0.000000  0.000000

   6.1   2   -20.3145 -165.5064 -0.000048 -0.000046 -0.000132 -0.000185 -0.000379 -0.000595 -0.001125 -0.001798 -0.003479 -0.005326
                                -0.011209 -0.014921 -0.034442 -0.026050 -0.064666  0.087251  0.039623  0.541274 -0.246287 -1.428743
                                 0.611539  0.334515  0.846202 -0.174958  0.174000 -0.137770  0.134194 -0.107359  0.082574 -0.065651
                                 0.021354 -0.000000  0.000000 -0.000000  0.000000 -0.000000  0.000000 -0.000001  0.000000 -0.000002
                                 0.000000 -0.000006  0.000000 -0.000011  0.000000 -0.000012  0.000000  0.000001 -0.000000  0.000025
                                -0.000000  0.000035 -0.000000  0.000012 -0.000000  0.000003 -0.000000 -0.000000  0.000000  0.000002
                                -0.000000 -0.000008  0.000000  0.000011 -0.000000 -0.000004  0.000000 -0.000000  0.000000  0.000000
                                -0.000000  0.000000  0.000000 -0.000000  0.000000  0.000000 -0.000000  0.000000  0.000000  0.000000
                                 0.000000  0.000000 -0.000000  0.000000  0.000000

   7.1   2    -8.7867 -133.4654  0.000000  0.000000  0.000000  0.000000  0.000000  0.000000  0.000000  0.000000  0.000000  0.000000
                                 0.000001  0.000001  0.000003  0.000002  0.000006 -0.000008 -0.000003 -0.000050  0.000024  0.000140
                                -0.000072 -0.000040 -0.000088  0.000022  0.000019  0.000058 -0.000037  0.000038 -0.000032  0.000026
                                -0.000008 -0.000051 -0.000000 -0.000386 -0.000000 -0.002186 -0.000000 -0.009782 -0.000000 -0.033893
                                -0.000000 -0.089052 -0.000000 -0.159056 -0.000001 -0.162511 -0.000001  0.050107  0.000000  0.376239
                                 0.000001  0.460417  0.000002  0.230818  0.000001  0.033315  0.000000 -0.000860 -0.000000  0.001299
                                 0.000000 -0.003093 -0.000000  0.003475  0.000000 -0.001132 -0.000000  0.000006 -0.000000  0.000000
                                 0.000022  0.000000 -0.000000  0.000035 -0.000000 -0.000000  0.000008 -0.000000 -0.000000 -0.000004
                                -0.000000  0.000000  0.000002 -0.000000 -0.000000

   8.1   2    -8.7860 -133.4677 -0.000000 -0.000000 -0.000000 -0.000000 -0.000000 -0.000000 -0.000000 -0.000000 -0.000000 -0.000000
                                -0.000000 -0.000000 -0.000000 -0.000000 -0.000000  0.000000  0.000000  0.000000 -0.000000 -0.000000
                                 0.000000  0.000000  0.000000 -0.000000 -0.000000 -0.000000  0.000000 -0.000000  0.000000 -0.000000
                                 0.000000  0.000000 -0.000051  0.000000 -0.000386  0.000000 -0.002186  0.000000 -0.009782  0.000000
                                -0.033894  0.000000 -0.089056  0.000001 -0.159063  0.000001 -0.162517 -0.000000  0.050112 -0.000001
                                 0.376260 -0.000002  0.460430 -0.000001  0.230807 -0.000000  0.033266  0.000000 -0.000881 -0.000000
                                 0.001294  0.000000 -0.003100 -0.000000  0.003480  0.000000 -0.001136 -0.000000 -0.000000  0.000004
                                -0.000000 -0.000000  0.000014 -0.000000 -0.000000  0.000024 -0.000000 -0.000000  0.000007  0.000000
                                -0.000000 -0.000002 -0.000000 -0.000000  0.000002

   9.1   2    -3.3259  -69.1940  0.000019  0.000018  0.000051  0.000072  0.000148  0.000231  0.000439  0.000697  0.001363  0.002057
                                 0.004415  0.005708  0.013707  0.009594  0.026638 -0.037256 -0.010940 -0.229021  0.114103  0.682336
                                -0.331763 -0.335731 -0.764226  0.417121  0.666647  0.461706 -0.133748  0.118355 -0.092906  0.074819
                                -0.024556  0.000000 -0.000000  0.000000 -0.000000  0.000001 -0.000000  0.000004 -0.000000  0.000015
                                -0.000000  0.000038 -0.000000  0.000073 -0.000000  0.000065 -0.000000 -0.000020  0.000000 -0.000214
                                 0.000000 -0.000192  0.000000 -0.000099  0.000000  0.000558 -0.000000  0.001097 -0.000000 -0.000095
                                 0.000000  0.000269 -0.000000 -0.000335  0.000000  0.000115 -0.000000 -0.000000 -0.000000 -0.000000
                                 0.000002 -0.000000 -0.000000 -0.000013  0.000000  0.000000 -0.000025  0.000000  0.000000  0.000021
                                -0.000000 -0.000000 -0.000008  0.000000  0.000000

  10.1   0    -0.4169  -25.7635 -0.000006 -0.000006 -0.000016 -0.000023 -0.000047 -0.000074 -0.000140 -0.000222 -0.000435 -0.000655
                                -0.001411 -0.001816 -0.004388 -0.003031 -0.008574  0.012055  0.003242  0.073968 -0.037340 -0.223731
                                 0.109573  0.123235  0.278899 -0.164091 -0.380991 -0.498678  0.194723  0.684029  0.541890 -0.113043
                                 0.063069  0.000002  0.000000  0.000012  0.000000  0.000069  0.000000  0.000310  0.000000  0.001071
                                 0.000000  0.002836  0.000000  0.005026  0.000000  0.005080  0.000000 -0.002688 -0.000000 -0.013970
                                -0.000000 -0.017223 -0.000000  0.000423 -0.000000  0.037362  0.000000  0.072538  0.000000  0.084158
                                 0.000000 -0.000876  0.000000  0.025068 -0.000000 -0.011276  0.000000  0.000002  0.000000 -0.000000
                                -0.000004  0.000000  0.000000  0.000049 -0.000000 -0.000000  0.000921 -0.000000 -0.000000  0.002255
                                -0.000000 -0.000000  0.000824 -0.000000 -0.000000

  11.1   0    -0.3681  -35.2072  0.000001  0.000001  0.000003  0.000004  0.000008  0.000012  0.000023  0.000037  0.000072  0.000108
                                 0.000233  0.000300  0.000724  0.000501  0.001415 -0.001988 -0.000539 -0.012208  0.006160  0.036981
                                -0.018185 -0.020240 -0.046456  0.027695  0.062924  0.085112 -0.040515 -0.101840 -0.092512  0.013795
                                -0.016893  0.000010  0.000000  0.000077  0.000000  0.000436  0.000000  0.001961  0.000000  0.006779
                                 0.000000  0.017939  0.000000  0.031804  0.000000  0.032119  0.000000 -0.017024 -0.000000 -0.088547
                                -0.000000 -0.108968 -0.000001  0.002942  0.000000  0.239463  0.000001  0.476342  0.000003  0.440124
                                 0.000002 -0.128031 -0.000001  0.240001  0.000001 -0.073597 -0.000000  0.000009 -0.000000 -0.000000
                                -0.000021  0.000000  0.000000  0.000272 -0.000000 -0.000000  0.006042  0.000000 -0.000000  0.006066
                                 0.000000  0.000000 -0.001346  0.000000 -0.000000

                                   1 2px     1 2px     1 2px     1 2px     1 2px     1 2px     1 2px     1 2px     1 2px     1 2px
                                   1 2px     1 2px     1 2px     1 2px     1 2px     1 2px     1 2px     1 2px     1 2px     1 2px
                                   1 2px     1 2px     1 2px     1 2px     1 2px     1 2px     1 2px     1 4f1+    1 4f3+    1 4f1+
                                   1 4f3+    1 4f1+    1 4f3+    1 4f1+    1 4f3+    1 4f1+    1 4f3+    1 4f1+    1 4f3+    1 4f1+
                                   1 4f3+    1 4f1+    1 4f3+    1 4f1+    1 4f3+    1 4f1+    1 4f3+    1 4f1+    1 4f3+    1 4f1+
                                   1 4f3+    1 4f1+    1 4f3+    1 6h1+    1 6h3+    1 6h5+    1 6h1+    1 6h3+    1 6h5+    1 6h1+
                                   1 6h3+    1 6h5+

   1.2   2  -355.9332-1008.5724  0.000016  0.000042  0.000122  0.000334  0.000941  0.002702  0.007905  0.022919  0.063093  0.152100
                                 0.288638  0.364206  0.236657  0.055958  0.002489 -0.000016  0.000340 -0.000365  0.000079 -0.000066
                                 0.000094 -0.000099  0.000042 -0.000036 -0.000007  0.000004  0.000035  0.000000 -0.000000  0.000000
                                -0.000000  0.000000 -0.000000 -0.000000  0.000000  0.000000  0.000000 -0.000000  0.000000  0.000000
                                -0.000000 -0.000000  0.000000  0.000000 -0.000000 -0.000000  0.000000  0.000000 -0.000000 -0.000000
                                 0.000000  0.000000 -0.000000  0.000000  0.000000 -0.000000 -0.000000 -0.000000  0.000000  0.000000
                                 0.000000 -0.000000

   2.2   2   -79.4516 -358.1814 -0.000008 -0.000021 -0.000061 -0.000169 -0.000477 -0.001375 -0.004053 -0.011890 -0.033440 -0.083584
                                -0.167028 -0.215913 -0.041803  0.367235  0.519284  0.216340 -0.001338  0.022758  0.001355 -0.000132
                                 0.000411 -0.000472  0.000208 -0.000198 -0.000039  0.000020  0.000189 -0.000000  0.000000  0.000000
                                 0.000000  0.000000 -0.000000  0.000001 -0.000000  0.000001  0.000000  0.000000 -0.000000 -0.000000
                                -0.000000  0.000000 -0.000000  0.000000  0.000000  0.000000  0.000000  0.000000  0.000000  0.000000
                                -0.000000  0.000000  0.000000  0.000000 -0.000000  0.000000 -0.000000  0.000000 -0.000000 -0.000000
                                -0.000000 -0.000000

   3.2   2   -15.4035 -151.9215  0.000004  0.000010  0.000029  0.000081  0.000229  0.000661  0.001952  0.005741  0.016237  0.040897
                                 0.082893  0.107511  0.003652 -0.273245 -0.419125  0.048057  0.006841  0.595978  0.457181  0.082975
                                -0.003611  0.004605 -0.001018  0.000078  0.000081 -0.000016 -0.000073  0.000000 -0.000000  0.000000
                                -0.000000  0.000001 -0.000000  0.000003 -0.000000  0.000008 -0.000000  0.000017 -0.000000  0.000017
                                -0.000000  0.000009 -0.000000  0.000003 -0.000000  0.000000  0.000000  0.000000  0.000000 -0.000000
                                -0.000000  0.000000 -0.000000 -0.000000 -0.000000  0.000000 -0.000000 -0.000000  0.000000 -0.000000
                                -0.000000  0.000000

   4.2   2    -2.0514  -59.3920 -0.000001 -0.000004 -0.000010 -0.000028 -0.000080 -0.000232 -0.000686 -0.002018 -0.005717 -0.014411
                                -0.029328 -0.037980 -0.000104  0.104944  0.162408 -0.044839 -0.001208 -0.316357 -0.266193  0.204620
                                 0.562631  0.022544  0.377977  0.042406  0.039885 -0.004984 -0.040500  0.000001 -0.000000  0.000008
                                -0.000000  0.000038 -0.000000  0.000113 -0.000000  0.000245 -0.000000  0.000330 -0.000000  0.000396
                                -0.000000  0.000308 -0.000000  0.000733 -0.000000  0.001168 -0.000000 -0.000031 -0.000000 -0.000015
                                -0.000000 -0.000016  0.000000 -0.000001 -0.000000 -0.000000  0.000002  0.000000  0.000000 -0.000037
                                -0.000000  0.000000

   5.2   2    -1.4579 -103.7334 -0.000000 -0.000000 -0.000000 -0.000000 -0.000000 -0.000000 -0.000000 -0.000000 -0.000000 -0.000000
                                -0.000000 -0.000000 -0.000000  0.000000  0.000000 -0.000000 -0.000000 -0.000000 -0.000000  0.000000
                                 0.000000  0.000000  0.000000 -0.000000 -0.000000  0.000000  0.000000 -0.000000  0.000827 -0.000000
                                 0.007201 -0.000000  0.034287 -0.000000  0.104606 -0.000001  0.218333 -0.000001  0.308928 -0.000001
                                 0.320873 -0.000001  0.251765 -0.000001  0.140025 -0.000000  0.035378  0.000000 -0.000514 -0.000000
                                 0.001098  0.000000 -0.000416 -0.000000  0.000020 -0.000000 -0.000000  0.000029 -0.000000 -0.000000
                                 0.000159 -0.000000

   6.2   2    -1.4585 -103.6850  0.000000  0.000000  0.000000  0.000000  0.000000  0.000000  0.000001  0.000004  0.000011  0.000027
                                 0.000056  0.000072  0.000000 -0.000201 -0.000309  0.000081  0.000020  0.000608  0.000534 -0.000505
                                -0.001149 -0.000356 -0.000277  0.000633  0.000394 -0.000092 -0.000617  0.000827  0.000000  0.007197
                                 0.000000  0.034268  0.000000  0.104544  0.000000  0.218209  0.000001  0.308763  0.000001  0.320752
                                 0.000001  0.251766  0.000001  0.140427  0.000001  0.036179  0.000000 -0.000340 -0.000000  0.001039
                                 0.000000 -0.000382 -0.000000  0.000035 -0.000000 -0.000000  0.000049 -0.000000 -0.000000  0.000262
                                -0.000000 -0.000000

   7.2   +    -0.1409  -11.8473 -0.000000 -0.000000 -0.000000 -0.000000 -0.000000 -0.000000 -0.000000 -0.000000 -0.000000 -0.000000
                                -0.000000 -0.000000  0.000000  0.000000  0.000000 -0.000000  0.000000 -0.000000 -0.000000  0.000000
                                 0.000000 -0.000000  0.000000 -0.000001 -0.000000 -0.000001  0.000001 -0.000000 -0.000033 -0.000000
                                -0.000281 -0.000000 -0.001352 -0.000000 -0.004086 -0.000000 -0.008604 -0.000000 -0.011766 -0.000000
                                -0.012233 -0.000000 -0.006160  0.000000  0.002768  0.000000  0.046438  0.000000  0.257752  0.000000
                                 0.196367  0.000000  0.664806 -0.000000  0.000010 -0.000000  0.000000 -0.000098  0.000000 -0.000000
                                 0.000255 -0.000000

   8.2   0     0.8789  -25.9706  0.000000  0.000000  0.000000  0.000000  0.000000  0.000001  0.000003  0.000004  0.000025  0.000025
                                 0.000153 -0.000047  0.000447 -0.001585  0.003313 -0.021457  0.038611 -0.029536  0.024550 -0.045601
                                 0.205541 -0.405747  0.322329 -2.066086 -0.169471  0.159962  1.986180 -0.000240 -0.000000 -0.001626
                                -0.000000 -0.009551 -0.000000 -0.023684 -0.000000 -0.062979 -0.000000 -0.057003 -0.000000 -0.115335
                                -0.000000  0.065384  0.000000 -0.157738 -0.000000  1.500898  0.000002 -2.123609 -0.000003  1.744243
                                 0.000002 -0.566651 -0.000001  0.000097 -0.000000 -0.000000 -0.000966  0.000000  0.000000  0.003601
                                -0.000000 -0.000000

   9.2   0    -0.2487  -19.7644  0.000000  0.000001  0.000003  0.000008  0.000022  0.000063  0.000186  0.000548  0.001550  0.003921
                                 0.007942  0.010380 -0.000183 -0.028242 -0.046041  0.021725 -0.015232  0.101836  0.067156 -0.052110
                                -0.271119  0.130311 -0.332554  0.056736  0.329847  0.707177  0.117820 -0.000002 -0.000000 -0.000013
                                -0.000000 -0.000065 -0.000000 -0.000187 -0.000000 -0.000415 -0.000000 -0.000527 -0.000000 -0.000645
                                -0.000000 -0.000212 -0.000000 -0.000446  0.000000  0.001777  0.000000  0.016169  0.000000  0.008197
                                 0.000000 -0.002845  0.000001  0.000003 -0.000000 -0.000000 -0.000023  0.000000  0.000000  0.000074
                                -0.000000 -0.000000

                                   1 2py     1 2py     1 2py     1 2py     1 2py     1 2py     1 2py     1 2py     1 2py     1 2py
                                   1 2py     1 2py     1 2py     1 2py     1 2py     1 2py     1 2py     1 2py     1 2py     1 2py
                                   1 2py     1 2py     1 2py     1 2py     1 2py     1 2py     1 2py     1 4f1-    1 4f3-    1 4f1-
                                   1 4f3-    1 4f1-    1 4f3-    1 4f1-    1 4f3-    1 4f1-    1 4f3-    1 4f1-    1 4f3-    1 4f1-
                                   1 4f3-    1 4f1-    1 4f3-    1 4f1-    1 4f3-    1 4f1-    1 4f3-    1 4f1-    1 4f3-    1 4f1-
                                   1 4f3-    1 4f1-    1 4f3-    1 6h1-    1 6h3-    1 6h5-    1 6h1-    1 6h3-    1 6h5-    1 6h1-
                                   1 6h3-    1 6h5-

   1.3   2  -355.9332-1008.5724  0.000016  0.000042  0.000122  0.000334  0.000941  0.002702  0.007905  0.022919  0.063093  0.152100
                                 0.288638  0.364206  0.236657  0.055958  0.002489 -0.000016  0.000340 -0.000365  0.000079 -0.000066
                                 0.000094 -0.000099  0.000042 -0.000036 -0.000007  0.000004  0.000035  0.000000 -0.000000  0.000000
                                -0.000000  0.000000 -0.000000 -0.000000  0.000000  0.000000 -0.000000 -0.000000  0.000000  0.000000
                                -0.000000 -0.000000  0.000000  0.000000 -0.000000 -0.000000  0.000000  0.000000 -0.000000 -0.000000
                                 0.000000  0.000000  0.000000  0.000000 -0.000000 -0.000000 -0.000000  0.000000  0.000000  0.000000
                                -0.000000 -0.000000

   2.3   2   -79.4516 -358.1814 -0.000008 -0.000021 -0.000061 -0.000169 -0.000477 -0.001375 -0.004053 -0.011890 -0.033440 -0.083584
                                -0.167028 -0.215913 -0.041803  0.367235  0.519284  0.216340 -0.001338  0.022758  0.001355 -0.000132
                                 0.000411 -0.000472  0.000208 -0.000198 -0.000039  0.000020  0.000189 -0.000000  0.000000  0.000000
                                 0.000000  0.000000  0.000000  0.000001  0.000000  0.000001  0.000000  0.000000 -0.000000 -0.000000
                                 0.000000  0.000000 -0.000000  0.000000  0.000000  0.000000 -0.000000  0.000000  0.000000  0.000000
                                -0.000000  0.000000  0.000000  0.000000  0.000000  0.000000 -0.000000 -0.000000 -0.000000 -0.000000
                                -0.000000 -0.000000

   3.3   2   -15.4035 -151.9215  0.000004  0.000010  0.000029  0.000081  0.000229  0.000661  0.001952  0.005741  0.016237  0.040897
                                 0.082893  0.107511  0.003652 -0.273245 -0.419125  0.048057  0.006841  0.595978  0.457181  0.082975
                                -0.003611  0.004605 -0.001018  0.000078  0.000081 -0.000016 -0.000073  0.000000 -0.000000  0.000000
                                -0.000000  0.000001 -0.000000  0.000003 -0.000000  0.000008 -0.000000  0.000017 -0.000000  0.000017
                                -0.000000  0.000009 -0.000000  0.000003 -0.000000  0.000000 -0.000000  0.000000 -0.000000 -0.000000
                                 0.000000  0.000000 -0.000000 -0.000000  0.000000  0.000000 -0.000000  0.000000  0.000000 -0.000000
                                 0.000000  0.000000

   4.3   2    -2.0514  -59.3920 -0.000001 -0.000004 -0.000010 -0.000028 -0.000080 -0.000232 -0.000686 -0.002018 -0.005717 -0.014411
                                -0.029328 -0.037980 -0.000104  0.104944  0.162408 -0.044839 -0.001208 -0.316357 -0.266193  0.204620
                                 0.562631  0.022544  0.377977  0.042406  0.039885 -0.004984 -0.040500  0.000001 -0.000000  0.000008
                                -0.000000  0.000038 -0.000000  0.000113 -0.000000  0.000245 -0.000000  0.000330 -0.000000  0.000396
                                -0.000000  0.000308 -0.000000  0.000733 -0.000000  0.001168 -0.000000 -0.000031  0.000000 -0.000015
                                -0.000000 -0.000016 -0.000000 -0.000001 -0.000000 -0.000000  0.000002  0.000000  0.000000 -0.000037
                                 0.000000  0.000000

   5.3   2    -1.4579 -103.7334 -0.000000 -0.000000 -0.000000 -0.000000 -0.000000 -0.000000 -0.000000 -0.000000 -0.000000 -0.000000
                                -0.000000 -0.000000 -0.000000  0.000000  0.000000 -0.000000 -0.000000 -0.000000 -0.000000  0.000000
                                 0.000000  0.000000 -0.000000 -0.000000 -0.000000  0.000000  0.000000 -0.000000  0.000827 -0.000000
                                 0.007201 -0.000000  0.034287 -0.000000  0.104606 -0.000001  0.218333 -0.000001  0.308928 -0.000001
                                 0.320873 -0.000001  0.251765 -0.000001  0.140025 -0.000000  0.035378  0.000000 -0.000514 -0.000000
                                 0.001098  0.000000 -0.000416 -0.000000  0.000020 -0.000000 -0.000000  0.000029 -0.000000 -0.000000
                                 0.000159 -0.000000

   6.3   2    -1.4585 -103.6850  0.000000  0.000000  0.000000  0.000000  0.000000  0.000000  0.000001  0.000004  0.000011  0.000027
                                 0.000056  0.000072  0.000000 -0.000201 -0.000309  0.000081  0.000020  0.000608  0.000534 -0.000505
                                -0.001149 -0.000356 -0.000277  0.000633  0.000394 -0.000092 -0.000617  0.000827  0.000000  0.007197
                                 0.000000  0.034268  0.000000  0.104544  0.000000  0.218209  0.000001  0.308763  0.000001  0.320752
                                 0.000001  0.251766  0.000001  0.140427  0.000001  0.036179  0.000000 -0.000340 -0.000000  0.001039
                                 0.000000 -0.000382 -0.000000  0.000035 -0.000000 -0.000000  0.000049 -0.000000 -0.000000  0.000262
                                -0.000000 -0.000000

   7.3   +    -0.1409  -11.8473  0.000000  0.000000  0.000000  0.000000  0.000000  0.000000  0.000000  0.000000  0.000000  0.000000
                                 0.000000  0.000000 -0.000000 -0.000000 -0.000001  0.000000 -0.000000  0.000001  0.000001 -0.000001
                                -0.000003  0.000002 -0.000004  0.000000  0.000004  0.000008  0.000001 -0.000000 -0.000033 -0.000000
                                -0.000281 -0.000000 -0.001352 -0.000000 -0.004086 -0.000000 -0.008604 -0.000000 -0.011766 -0.000000
                                -0.012233 -0.000000 -0.006160 -0.000000  0.002768  0.000000  0.046438  0.000000  0.257752  0.000000
                                 0.196367 -0.000000  0.664806  0.000000  0.000010 -0.000000 -0.000000 -0.000098  0.000000  0.000000
                                 0.000255 -0.000000

   8.3   0     0.8789  -25.9706  0.000000  0.000000  0.000000  0.000000  0.000000  0.000001  0.000003  0.000004  0.000025  0.000025
                                 0.000153 -0.000047  0.000447 -0.001585  0.003312 -0.021457  0.038611 -0.029536  0.024550 -0.045601
                                 0.205540 -0.405746  0.322328 -2.066080 -0.169471  0.159962  1.986174 -0.000240 -0.000000 -0.001626
                                -0.000000 -0.009551 -0.000000 -0.023684 -0.000000 -0.062979 -0.000000 -0.057003 -0.000000 -0.115335
                                -0.000000  0.065384  0.000000 -0.157738 -0.000000  1.500898  0.000003 -2.123609 -0.000004  1.744243
                                 0.000004 -0.566651 -0.000001  0.000097 -0.000000 -0.000000 -0.000966  0.000000  0.000000  0.003601
                                -0.000000 -0.000000

   9.3   0    -0.2487  -19.7644  0.000000  0.000001  0.000003  0.000008  0.000022  0.000063  0.000186  0.000548  0.001550  0.003921
                                 0.007942  0.010380 -0.000183 -0.028242 -0.046041  0.021725 -0.015232  0.101836  0.067156 -0.052110
                                -0.271119  0.130311 -0.332554  0.056735  0.329847  0.707177  0.117821 -0.000002  0.000000 -0.000013
                                 0.000000 -0.000065  0.000000 -0.000187  0.000000 -0.000415  0.000000 -0.000527  0.000000 -0.000645
                                 0.000000 -0.000212  0.000000 -0.000446 -0.000000  0.001777 -0.000000  0.016169 -0.000003  0.008197
                                -0.000002 -0.002845 -0.000008  0.000003 -0.000000 -0.000000 -0.000023  0.000000  0.000000  0.000074
                                -0.000000 -0.000000

                                   1 3d2-    1 3d2-    1 3d2-    1 3d2-    1 3d2-    1 3d2-    1 3d2-    1 3d2-    1 3d2-    1 3d2-
                                   1 3d2-    1 3d2-    1 3d2-    1 3d2-    1 3d2-    1 3d2-    1 3d2-    1 3d2-    1 5g2-    1 5g4-
                                   1 5g2-    1 5g4-    1 5g2-    1 5g4-    1 5g2-    1 5g4-    1 5g2-    1 5g4-    1 5g2-    1 5g4-


   1.4   2   -61.3634 -329.9772  0.000105  0.000790  0.004461  0.019795  0.067754  0.174622  0.315606  0.365684  0.218144  0.051216
                                 0.003256  0.000553  0.000015  0.000034 -0.000024  0.000059 -0.000066  0.000022  0.000001 -0.000000
                                -0.000000 -0.000000  0.000000  0.000000  0.000000  0.000000  0.000000  0.000000  0.000000  0.000000

   2.4   2    -8.7860 -133.4677 -0.000051 -0.000386 -0.002186 -0.009782 -0.033894 -0.089056 -0.159063 -0.162517  0.050112  0.376260
                                 0.460430  0.230807  0.033266 -0.000881  0.001294 -0.003100  0.003480 -0.001136  0.000004 -0.000000
                                 0.000014 -0.000000  0.000024 -0.000000  0.000007 -0.000000 -0.000002 -0.000000  0.000002 -0.000000

   3.4   0    -0.3659  -35.0935  0.000010  0.000077  0.000437  0.001967  0.006799  0.017989  0.031899  0.032203 -0.017058 -0.088839
                                -0.109226  0.002864  0.240539  0.476629  0.436600 -0.097137  0.212574 -0.037933  0.000006 -0.000000
                                -0.000012  0.000000  0.000173 -0.000000  0.003294 -0.000000  0.001242  0.000000 -0.003553  0.000000

   4.4   0    -0.0942  -13.1961 -0.000004 -0.000032 -0.000184 -0.000823 -0.002865 -0.007521 -0.013476 -0.013315  0.006875  0.038232
                                 0.044790 -0.000068 -0.111066 -0.212780 -0.243620  1.503992 -2.329935  2.012995 -0.000003  0.000000
                                 0.000008 -0.000000 -0.000088  0.000000 -0.002203  0.000000  0.000568 -0.000000  0.010051  0.000000

                                   1 2pz     1 2pz     1 2pz     1 2pz     1 2pz     1 2pz     1 2pz     1 2pz     1 2pz     1 2pz
                                   1 2pz     1 2pz     1 2pz     1 2pz     1 2pz     1 2pz     1 2pz     1 2pz     1 2pz     1 2pz
                                   1 2pz     1 2pz     1 2pz     1 2pz     1 2pz     1 2pz     1 2pz     1 4f0     1 4f2+    1 4f0
                                   1 4f2+    1 4f0     1 4f2+    1 4f0     1 4f2+    1 4f0     1 4f2+    1 4f0     1 4f2+    1 4f0
                                   1 4f2+    1 4f0     1 4f2+    1 4f0     1 4f2+    1 4f0     1 4f2+    1 4f0     1 4f2+    1 4f0
                                   1 4f2+    1 4f0     1 4f2+    1 6h2+    1 6h4+    1 6h0     1 6h2+    1 6h4+    1 6h0     1 6h2+
                                   1 6h4+    1 6h0

   1.5   2  -355.9334-1008.5725  0.000016  0.000042  0.000122  0.000334  0.000941  0.002702  0.007905  0.022919  0.063093  0.152100
                                 0.288638  0.364206  0.236657  0.055958  0.002489 -0.000016  0.000340 -0.000365  0.000079 -0.000066
                                 0.000094 -0.000099  0.000042 -0.000036 -0.000007  0.000004  0.000035  0.000000 -0.000000  0.000000
                                -0.000000  0.000000 -0.000000 -0.000000  0.000000  0.000000 -0.000000 -0.000000  0.000000  0.000000
                                -0.000000 -0.000000  0.000000  0.000000 -0.000000 -0.000000  0.000000  0.000000 -0.000000 -0.000000
                                 0.000000  0.000000 -0.000000 -0.000000 -0.000000  0.000000  0.000000  0.000000 -0.000000 -0.000000
                                -0.000000  0.000000

   2.5   2   -79.4520 -358.1816 -0.000008 -0.000021 -0.000061 -0.000169 -0.000477 -0.001375 -0.004053 -0.011890 -0.033440 -0.083584
                                -0.167027 -0.215913 -0.041804  0.367233  0.519284  0.216342 -0.001337  0.022759  0.001355 -0.000132
                                 0.000412 -0.000472  0.000208 -0.000198 -0.000039  0.000020  0.000189 -0.000000  0.000000  0.000000
                                 0.000000  0.000001 -0.000000  0.000002  0.000000  0.000001  0.000000  0.000000 -0.000000  0.000000
                                 0.000000  0.000000 -0.000000 -0.000000  0.000000  0.000000 -0.000000 -0.000000  0.000000  0.000000
                                -0.000000 -0.000000  0.000000  0.000000  0.000000 -0.000000 -0.000000 -0.000000  0.000000 -0.000000
                                -0.000000 -0.000000

   3.5   2   -15.4044 -151.9210  0.000004  0.000010  0.000029  0.000081  0.000229  0.000661  0.001952  0.005741  0.016237  0.040896
                                 0.082892  0.107509  0.003653 -0.273238 -0.419116  0.048051  0.006833  0.595963  0.457182  0.082989
                                -0.003594  0.004599 -0.001011  0.000075  0.000081 -0.000016 -0.000071  0.000000 -0.000000  0.000000
                                -0.000000  0.000001 -0.000000  0.000004 -0.000000  0.000010 -0.000000  0.000021 -0.000000  0.000021
                                -0.000000  0.000011 -0.000000  0.000003 -0.000000  0.000000 -0.000000  0.000000 -0.000000 -0.000000
                                 0.000000  0.000000 -0.000000  0.000000  0.000000 -0.000000  0.000000  0.000000 -0.000000  0.000000
                                 0.000000 -0.000000

   4.5   2    -2.0567  -59.3408 -0.000001 -0.000004 -0.000010 -0.000028 -0.000080 -0.000232 -0.000685 -0.002015 -0.005709 -0.014390
                                -0.029284 -0.037924 -0.000102  0.104776  0.162184 -0.044888 -0.000972 -0.316017 -0.265615  0.203838
                                 0.562064  0.019846  0.380937  0.044701  0.041292 -0.005459 -0.042734  0.000001 -0.000000  0.000009
                                -0.000000  0.000043 -0.000000  0.000127 -0.000000  0.000275 -0.000000  0.000371 -0.000000  0.000443
                                -0.000000  0.000353 -0.000000  0.000835 -0.000000  0.001307 -0.000000  0.000052  0.000000 -0.000003
                                -0.000000 -0.000005  0.000000 -0.000000 -0.000000 -0.000001  0.000000  0.000000  0.000005  0.000000
                                 0.000000 -0.000052

   5.5   2    -1.4582 -103.6981 -0.000000 -0.000000 -0.000000 -0.000000 -0.000000 -0.000000 -0.000000 -0.000000 -0.000000 -0.000000
                                -0.000000 -0.000000 -0.000000  0.000000  0.000000 -0.000000 -0.000000 -0.000000 -0.000000  0.000000
                                 0.000000  0.000000  0.000000 -0.000000 -0.000000  0.000000  0.000000 -0.000000  0.000827 -0.000000
                                 0.007198 -0.000000  0.034273 -0.000001  0.104561 -0.000002  0.218243 -0.000003  0.308808 -0.000003
                                 0.320786 -0.000002  0.251769 -0.000001  0.140314 -0.000000  0.035956  0.000000 -0.000375 -0.000000
                                 0.001059  0.000000 -0.000384  0.000030 -0.000000 -0.000000  0.000041 -0.000000 -0.000000  0.000227
                                -0.000000 -0.000000

   6.5   2    -1.4586 -103.6810  0.000000  0.000000  0.000000  0.000000  0.000000  0.000000  0.000001  0.000004  0.000012  0.000031
                                 0.000063  0.000081  0.000000 -0.000227 -0.000349  0.000094  0.000018  0.000689  0.000600 -0.000565
                                -0.001322 -0.000346 -0.000377  0.000600  0.000448 -0.000045 -0.000578  0.000827  0.000000  0.007196
                                 0.000000  0.034266  0.000000  0.104539  0.000001  0.218199  0.000002  0.308748  0.000003  0.320742
                                 0.000003  0.251765  0.000002  0.140465  0.000001  0.036245  0.000000 -0.000337 -0.000000  0.001032
                                 0.000000 -0.000383 -0.000000  0.000000 -0.000000  0.000037  0.000000 -0.000000  0.000051  0.000000
                                -0.000000  0.000272

   7.5   0    -0.0294  -10.2919 -0.000000 -0.000000 -0.000000 -0.000000 -0.000000 -0.000000 -0.000000 -0.000000 -0.000000 -0.000000
                                -0.000000 -0.000000  0.000000 -0.000000  0.000000 -0.000000  0.000000 -0.000000  0.000000 -0.000000
                                 0.000001 -0.000001  0.000001 -0.000128 -0.000001  0.000002  0.000127  0.000000 -0.000022  0.000000
                                -0.000203  0.000000 -0.000936  0.000000 -0.002956  0.000000 -0.005901  0.000000 -0.008761  0.000000
                                -0.007723  0.000000 -0.006524 -0.000000  0.006444 -0.000000  0.017077 -0.000002  0.243890  0.000000
                                -0.049999 -0.000008  0.913395  0.000016 -0.000000 -0.000000 -0.000149  0.000000  0.000000  0.000388
                                -0.000000 -0.000000

   8.5   0     2.5522  -40.9958  0.000000  0.000000  0.000000  0.000000  0.000001  0.000002  0.000004  0.000015  0.000033  0.000114
                                 0.000144  0.000398 -0.000389  0.000366 -0.004460  0.019361 -0.034088  0.029644 -0.019366  0.039716
                                -0.202641  0.329333 -0.194421  0.415734  0.056369 -0.037140 -0.399026 -0.000307 -0.000000 -0.004468
                                -0.000000 -0.014243 -0.000000 -0.065028 -0.000001 -0.079664 -0.000001 -0.224488 -0.000002  0.041808
                                 0.000000 -0.403427 -0.000003  1.737007  0.000014 -1.492646 -0.000012  1.133315  0.000009 -0.840056
                                -0.000007  0.268239  0.000002 -0.000000  0.000000 -0.000321  0.000000 -0.000000  0.003246 -0.000000
                                 0.000000 -0.009652

                                   1 3d1+    1 3d1+    1 3d1+    1 3d1+    1 3d1+    1 3d1+    1 3d1+    1 3d1+    1 3d1+    1 3d1+
                                   1 3d1+    1 3d1+    1 3d1+    1 3d1+    1 3d1+    1 3d1+    1 3d1+    1 3d1+    1 5g1+    1 5g3+
                                   1 5g1+    1 5g3+    1 5g1+    1 5g3+    1 5g1+    1 5g3+    1 5g1+    1 5g3+    1 5g1+    1 5g3+


   1.6   2   -61.3636 -329.9774  0.000105  0.000790  0.004461  0.019795  0.067754  0.174622  0.315606  0.365684  0.218144  0.051215
                                 0.003255  0.000553  0.000015  0.000034 -0.000024  0.000059 -0.000066  0.000022  0.000002 -0.000000
                                -0.000000 -0.000000  0.000000 -0.000000  0.000000 -0.000000 -0.000000  0.000000  0.000000 -0.000000

   2.6   2    -8.7865 -133.4658 -0.000051 -0.000386 -0.002186 -0.009782 -0.033893 -0.089053 -0.159057 -0.162512  0.050108  0.376244
                                 0.460420  0.230815  0.033306 -0.000863  0.001299 -0.003094  0.003476 -0.001132  0.000006 -0.000000
                                 0.000020 -0.000000  0.000032 -0.000000  0.000007 -0.000000 -0.000004  0.000000  0.000002 -0.000000

   3.6   0    -0.3665  -35.5585  0.000010  0.000078  0.000443  0.001993  0.006890  0.018233  0.032325  0.032644 -0.017304 -0.090002
                                -0.110752  0.002999  0.243486  0.484063  0.447312 -0.132065  0.244174 -0.076695  0.000008 -0.000000
                                -0.000020  0.000000  0.000258 -0.000000  0.005773 -0.000000  0.006016 -0.000000 -0.001110  0.000000

   4.6   0    -0.0814  -12.4818 -0.000004 -0.000029 -0.000164 -0.000729 -0.002543 -0.006662 -0.011967 -0.011762  0.006012  0.034068
                                 0.039437  0.000387 -0.099684 -0.186970 -0.239446  1.573473 -2.496525  2.116440 -0.000002  0.000000
                                 0.000015 -0.000000 -0.000061  0.000000  0.000212 -0.000000  0.008499 -0.000000  0.062203 -0.000000

                                   1 3d1-    1 3d1-    1 3d1-    1 3d1-    1 3d1-    1 3d1-    1 3d1-    1 3d1-    1 3d1-    1 3d1-
                                   1 3d1-    1 3d1-    1 3d1-    1 3d1-    1 3d1-    1 3d1-    1 3d1-    1 3d1-    1 5g1-    1 5g3-
                                   1 5g1-    1 5g3-    1 5g1-    1 5g3-    1 5g1-    1 5g3-    1 5g1-    1 5g3-    1 5g1-    1 5g3-


   1.7   2   -61.3636 -329.9774  0.000105  0.000790  0.004461  0.019795  0.067754  0.174622  0.315606  0.365684  0.218144  0.051215
                                 0.003255  0.000553  0.000015  0.000034 -0.000024  0.000059 -0.000066  0.000022  0.000002  0.000000
                                -0.000000 -0.000000  0.000000  0.000000  0.000000  0.000000 -0.000000  0.000000  0.000000  0.000000

   2.7   2    -8.7865 -133.4658 -0.000051 -0.000386 -0.002186 -0.009782 -0.033893 -0.089053 -0.159057 -0.162512  0.050108  0.376244
                                 0.460420  0.230815  0.033306 -0.000863  0.001299 -0.003094  0.003476 -0.001132  0.000006 -0.000000
                                 0.000020 -0.000000  0.000032 -0.000000  0.000007 -0.000000 -0.000004 -0.000000  0.000002 -0.000000

   3.7   0    -0.3665  -35.5585  0.000010  0.000078  0.000443  0.001993  0.006890  0.018233  0.032325  0.032644 -0.017304 -0.090002
                                -0.110752  0.002999  0.243486  0.484063  0.447312 -0.132065  0.244174 -0.076695  0.000008 -0.000000
                                -0.000020  0.000000  0.000258 -0.000000  0.005773 -0.000000  0.006016  0.000000 -0.001110  0.000000

   4.7   0    -0.0814  -12.4818 -0.000004 -0.000029 -0.000164 -0.000729 -0.002543 -0.006662 -0.011967 -0.011762  0.006012  0.034068
                                 0.039437  0.000387 -0.099684 -0.186970 -0.239446  1.573473 -2.496524  2.116439 -0.000002  0.000000
                                 0.000015 -0.000000 -0.000061  0.000000  0.000212  0.000000  0.008499  0.000000  0.062202  0.000000

                                   1 4f2-    1 4f2-    1 4f2-    1 4f2-    1 4f2-    1 4f2-    1 4f2-    1 4f2-    1 4f2-    1 4f2-
                                   1 4f2-    1 4f2-    1 4f2-    1 6h4-    1 6h2-    1 6h4-    1 6h2-    1 6h4-    1 6h2-

   1.8   2    -1.4582 -103.6981  0.000827  0.007198  0.034273  0.104561  0.218243  0.308808  0.320786  0.251769  0.140314  0.035956
                                -0.000375  0.001059 -0.000384 -0.000000  0.000030 -0.000000  0.000041 -0.000000  0.000227

   2.8   0    -0.0294  -10.2919 -0.000022 -0.000203 -0.000936 -0.002956 -0.005901 -0.008761 -0.007723 -0.006524  0.006444  0.017077
                                 0.243890 -0.049999  0.913394 -0.000000  0.000016  0.000000 -0.000149 -0.000000  0.000388

   3.8   0     0.0743  -12.0177  0.000049  0.000367  0.001995  0.005342  0.012993  0.014066  0.022170 -0.002706  0.021943 -0.143758
                                 0.064542 -1.538530  1.339384  0.000000 -0.000034 -0.000000  0.000322  0.000000 -0.000864

 HOMO      7.2    -0.140869 =      -3.8333eV
 LUMO     10.1    -0.416905 =     -11.3446eV
 LUMO-HOMO        -0.276036 =      -7.5113eV


 **********************************************************************************************************************************
 DATASETS  * FILE   NREC   LENGTH (MB)   RECORD NAMES
              1      22       21.47       500      610      700      900      950      970     1000      129      960     1700
                                          VAR    BASINP    GEOM    SYMINP    ZMAT    AOBASIS   BASIS     P2S    ABASIS    OPER
                                         1101     1401     1411     1412     1650     1100     1400     1410     1200     1210
                                          SR      EKINR    POTR     PVPR    MOLCAS      S      EKIN      POT      H0       H01
                                         1080     1600
                                         AOSYM     SMH

              2       5        6.02       200      700     1000      520     4202
                                        OPTIONS   GEOM     BASIS   MCVARS     RHF

 PROGRAMS   *        TOTAL       RHF       INT
 CPU TIMES  *        84.56      2.76     81.35
 REAL TIME  *        90.18 SEC
 DISK USED  *         4.47 GB
 SF USED    *         0.09 MB
 GA USED    *         0.00 MB       (max)       0.00 MB       (current)
 **********************************************************************************************************************************
   -->
   <time start="12:04:09" end="12:05:39" cpu="84.56" system="5.29" real="90.18"/>
   <storage units="megabyte" memory="16001.84" sf="0.09" df="153.95" eaf="4315.03" ga="0.0"/>
  </jobstep><!--
  --><jobstep command="POP" commandset="POP">
   <!--


 PROGRAM * POP (Mulliken population analysis)


 Density matrix read from record         4202.2  Type=RHF/CHARGE (state 1.4)

 Population analysis by basis function type

 Unique atom        s        p        d        f        g    Total    Charge
   1  LU     10.00000 23.99999 20.00000 16.00001  0.00000 70.00000  + 1.00000


 **********************************************************************************************************************************
 DATASETS  * FILE   NREC   LENGTH (MB)   RECORD NAMES
              1      22       21.47       500      610      700      900      950      970     1000      129      960     1700
                                          VAR    BASINP    GEOM    SYMINP    ZMAT    AOBASIS   BASIS     P2S    ABASIS    OPER
                                         1101     1401     1411     1412     1650     1100     1400     1410     1200     1210
                                          SR      EKINR    POTR     PVPR    MOLCAS      S      EKIN      POT      H0       H01
                                         1080     1600
                                         AOSYM     SMH

              2       5        6.02       200      700     1000      520     4202
                                        OPTIONS   GEOM     BASIS   MCVARS     RHF

 PROGRAMS   *        TOTAL       POP       RHF       INT
 CPU TIMES  *        84.57      0.00      2.76     81.35
 REAL TIME  *        90.19 SEC
 DISK USED  *         4.47 GB
 SF USED    *         0.09 MB
 GA USED    *         0.00 MB       (max)       0.00 MB       (current)
 **********************************************************************************************************************************
   -->
   <time start="12:05:39" end="12:05:39" cpu="0.01" system="0.0" real="0.01"/>
   <storage units="megabyte" memory="16001.84" sf="0.09" df="153.95" eaf="4315.03" ga="0.0"/>
  </jobstep><!--
  --><jobstep command="RHF-SCF" commandset="SCFPRO">
   <!--


 PROGRAM * RHF-SCF (OPEN SHELL)       Authors: W. Meyer, H.-J. Werner


 NUMBER OF ELECTRONS:      36+   34-    SPACE SYMMETRY=4    SPIN SYMMETRY: Triplet
 CONVERGENCE THRESHOLDS:    1.00E-05 (Density)    1.40E-07 (Energy)
 MAX. NUMBER OF ITERATIONS:        0
 INTERPOLATION TYPE:            DIIS
 INTERPOLATION STEPS:              2 (START)      1 (STEP)
 LEVEL SHIFTS:                 -0.60 (CLOSED) -0.30 (OPEN)

 Number of closed-shell orbitals:   34 (   9   6   6   2   6   2   2   1 )
 Number of open-shell orbitals:      2 (   0   1   1   0   0   0   0   0 )


 Molecular orbitals read from record     4202.2  Type=RHF/CANONICAL (state 1.4)

 Molecular orbital dump at record        2114.2

 ITERATION    DDIFF          GRAD             ENERGY        2-EL.EN.            DIPOLE MOMENTS         DIIS   ORB.
    1      0.000D+00      0.000D+00    -14558.75299100  10793.495193    0.00000    0.00000    0.00000    0    start

 Final alpha occupancy:   9   7   7   2   6   2   2   1
 Final beta  occupancy:   9   6   6   2   6   2   2   1

 !RHF STATE 1.4 Energy               -14558.7529909982
   --><property name="Energy" method="RHF" principal="true" stateSymmetry="4" stateNumber="1"
     value="-14558.7529909982"/><!--
 Nuclear energy                         0.00000000
 One-electron energy               -19955.50058761
 Two-electron energy                 5396.74759661
 Virial quotient                       -0.73342443
 !RHF STATE 1.4 Dipole moment           0.00000000     0.00000000     0.00000000
 Dipole moment /Debye                   0.00000000     0.00000000     0.00000000
   --><property name="Dipole moment" method="RHF" principal="true" stateSymmetry="4"
     stateNumber="1" value="0.0 0.0 0.0"/><!--

 Orbital energies:

         1.1          2.1          3.1          4.1          5.1          6.1          7.1          8.1          9.1         10.1
  -2339.876277  -403.751672   -94.110428   -61.363686   -61.363447   -20.314500    -8.786677    -8.785974    -3.325877    -0.416905

        11.1
     -0.368062

         1.2          2.2          3.2          4.2          5.2          6.2          7.2          8.2          9.2
   -355.933249   -79.451574   -15.403520    -2.051383    -1.457948    -1.458532    -0.140869     0.878949    -0.248663

         1.3          2.3          3.3          4.3          5.3          6.3          7.3          8.3          9.3
   -355.933249   -79.451574   -15.403520    -2.051383    -1.457948    -1.458532    -0.140869     0.878949    -0.248663

         1.4          2.4          3.4          4.4
    -61.363447    -8.785974    -0.365937    -0.094242

         1.5          2.5          3.5          4.5          5.5          6.5          7.5          8.5
   -355.933369   -79.451976   -15.404381    -2.056652    -1.458155    -1.458646    -0.029394     2.552189

         1.6          2.6          3.6          4.6
    -61.363612    -8.786477    -0.366486    -0.081388

         1.7          2.7          3.7          4.7
    -61.363612    -8.786477    -0.366486    -0.081388

         1.8          2.8          3.8
     -1.458155    -0.029394     0.074250

 HOMO      7.2    -0.140869 =      -3.8333eV
 LUMO     10.1    -0.416905 =     -11.3446eV
 LUMO-HOMO        -0.276036 =      -7.5113eV


 **********************************************************************************************************************************
 DATASETS  * FILE   NREC   LENGTH (MB)   RECORD NAMES
              1      22       21.47       500      610      700      900      950      970     1000      129      960     1700
                                          VAR    BASINP    GEOM    SYMINP    ZMAT    AOBASIS   BASIS     P2S    ABASIS    OPER
                                         1101     1401     1411     1412     1650     1100     1400     1410     1200     1210
                                          SR      EKINR    POTR     PVPR    MOLCAS      S      EKIN      POT      H0       H01
                                         1080     1600
                                         AOSYM     SMH

              2       6        9.40       200      700     1000      520     4202     2114
                                        OPTIONS   GEOM     BASIS   MCVARS     RHF      RHF

 PROGRAMS   *        TOTAL       RHF       POP       RHF       INT
 CPU TIMES  *        84.77      0.19      0.00      2.76     81.35
 REAL TIME  *        90.42 SEC
 DISK USED  *         4.47 GB
 SF USED    *         0.09 MB
 GA USED    *         0.00 MB       (max)       0.00 MB       (current)
 **********************************************************************************************************************************
   -->
   <time start="12:05:39" end="12:05:39" cpu="0.2" system="0.03" real="0.23"/>
   <storage units="megabyte" memory="16001.84" sf="0.09" df="153.95" eaf="4315.03" ga="0.0"/>
  </jobstep><!--
 SETTING SCF(17)        =    -14558.75299100  AU
 SETTING _CC_NORM_MAX   =         2.00000000
  --><jobstep command="RCCSD(T)" commandset="CCSD">
   <!--


 PROGRAM * CCSD (Restricted open-shell coupled cluster)     Authors: C. Hampel, H.-J. Werner, 1991, M. Deegan, P.J. Knowles, 1992


 Convergence thresholds:  THRVAR = 1.00D-08  THRDEN = 1.40D-06

 CCSD(T)     terms to be evaluated (factor= 1.000)


 Number of core orbitals:          23 (   8   3   3   2   3   2   2   0 )
 Number of closed-shell orbitals:  11 (   1   3   3   0   3   0   0   1 )
 Number of active  orbitals:        2 (   0   1   1   0   0   0   0   0 )
 Number of external orbitals:     344 (  76  55  55  28  56  28  28  18 )

 Memory could be reduced to 116.15 Mwords without degradation in triples

 Number of N-1 electron functions:              24
 Number of N-2 electron functions:             276
 Number of singly external CSFs:              1308
 Number of doubly external CSFs:           3172964
 Total number of CSFs:                     3174272

 Molecular orbitals read from record     2114.2  Type=RHF/CANONICAL (state 1.4)

 Integral transformation finished. Total CPU:   3.63 sec, npass=  1  Memory used:  26.58 MW

 Starting RMP2 calculation

 Wavefunction is spin-projected

 ITER.      SQ.NORM     CORR.ENERGY   TOTAL ENERGY   ENERGY CHANGE        DEN1      VAR(S)    VAR(P)  DIIS     TIME
   1      6.61677350    -1.44741336-14560.20040436    -1.44741336    -0.23403789  0.31D-07  0.45D+01  1  1     4.80
   2   1070.98895095    -1.68145125-14560.43444225    -0.23403789   -21.92159286  0.14D-08  0.97D+03  1  0     5.00

 UNREASONABLE NORM:********** CALCULATION WILL BE STOPPED

 The threshold can be changed using option CC_NORM_MAX (see manual). The current value is CC_NORM_MAX=2.00

 Norm of t1 vector:      0.00107364      S-energy:    -0.00000235      T1 diagnostic:  0.00000422
 Norm of t2 vector:     32.71068556      P-energy:    -1.68144890
                                         Alpha-Beta:  -0.87642877
                                         Alpha-Alpha: -0.53738816
                                         Beta-Beta:   -0.26763197

 Spin contamination <S**2-Sz**2-Sz>     0.00000000


 RESULTS
 =======

  Reference energy                   -14558.7529909981
   --><property name="energy" method="Reference" stateSymmetry="1" stateNumber="1"
     value="-14558.7529909981"/><!--
  RCCSD singles energy                 -0.000002350264
   --><property name="energy" method="RCCSD singles" stateSymmetry="1" stateNumber="1"
     value="-0.235026431893992E-05"/><!--
  RCCSD pair energy                    -1.681448899844
   --><property name="energy" method="RCCSD pair" stateSymmetry="1" stateNumber="1"
     value="-1.68144889984378"/><!--
  RCCSD correlation energy             -1.681451250108
   --><property name="energy" method="RCCSD correlation" stateSymmetry="1" stateNumber="1"
     value="-1.6814512501081"/><!--

 !RHF-RCCSD energy                   -14560.4344422482
   --><property name="energy" method="RHF-RCCSD" principal="true" stateSymmetry="1"
     stateNumber="1" value="-14560.4344422482"/><!--

 Program statistics:

 Available memory in ccsd:              1999998418
 Min. memory needed in ccsd:               8924148
 Max. memory used in ccsd:                12850692
 Max. memory used in cckext:                     0 ( 0 integral passes)
 Max. memory used in cckint:              26583181 ( 1 integral passes)


 ? Error
 ? No convergence. This error exit can be avoided using the NOCHECK option
 ? The problem occurs in ccsd
   --><error type="Error" location="ccsd"
     message="No convergence. This error exit can be avoided using the NOCHECK option"/><!--
  --></jobstep><!--
  -->
  <input>
  <!--
 --></job><!--
--></molpro>
