JobID : 199596
Number of nodes requested: 4
List of nodes assigned to the job: andes[127,266,670,679]

     Program PWSCF v.7.0 starts on  5Apr2022 at 14:21:28 
        Git branch: develop-with-pw2qmcpack
        Last git commit: e9e05f589a4fdf74451ef95843589533ef75388f
        Last git commit date: Thu Jan 6 11:55:55 2022 -0600
        Last git commit subject: Merge branch develop into develop-with-pw2qmcp..

     This program is part of the open-source Quantum ESPRESSO suite
     for quantum simulation of materials; please cite
         "P. Giannozzi et al., J. Phys.:Condens. Matter 21 395502 (2009);
         "P. Giannozzi et al., J. Phys.:Condens. Matter 29 465901 (2017);
         "P. Giannozzi et al., J. Chem. Phys. 152 154105 (2020);
          URL http://www.quantum-espresso.org", 
     in publications or presentations arising from this work. More details at
     http://www.quantum-espresso.org/quote

     Parallel version (MPI), running on    32 processors

     MPI processes distributed on     4 nodes
     R & G space division:  proc/nbgrp/npool/nimage =      32
     228807 MiB available memory on the printing compute node when the environment starts
 
     Reading input from scf.in

     Current dimensions of program PWSCF are:
     Max number of different atomic species (ntypx) = 10
     Max number of k-points (npk) =  40000
     Max angular momentum in pseudopotentials (lmaxx) =  4
     Message from routine scan_end:
     No INFO block end statement, possibly corrupted file

     IMPORTANT: XC functional enforced from input :
     Exchange-correlation= PBE
                           (   1   4   3   4   0   0   0)
     Any further DFT definition will be discarded
     Please, verify this is what you really want


     gamma-point specific algorithms are used
     Message from routine setup:
     the system is metallic, specify occupations

     Subspace diagonalization in iterative solution of the eigenvalue problem:
     a serial algorithm will be used

 
     Parallelization info
     --------------------
     sticks:   dense  smooth     PW     G-vecs:    dense   smooth      PW
     Min        1064    1064    265               148056   148056   18494
     Max        1066    1066    268               148070   148070   18504
     Sum       34109   34109   8529              4738093  4738093  591889
 
     Using Slab Decomposition
 


     bravais-lattice index     =            0
     lattice parameter (alat)  =      18.8973  a.u.
     unit-cell volume          =    6748.3346 (a.u.)^3
     number of atoms/cell      =            1
     number of atomic types    =            1
     number of electrons       =        19.00 (up:  13.00, down:   6.00)
     number of Kohn-Sham states=           20
     kinetic-energy cutoff     =     300.0000  Ry
     charge density cutoff     =    1200.0000  Ry
     scf convergence threshold =      1.0E-06
     mixing beta               =       0.2000
     number of iterations used =            8  plain     mixing
     Exchange-correlation= PBE
                           (   1   4   3   4   0   0   0)

     celldm(1)=  18.897261  celldm(2)=   0.000000  celldm(3)=   0.000000
     celldm(4)=   0.000000  celldm(5)=   0.000000  celldm(6)=   0.000000

     crystal axes: (cart. coord. in units of alat)
               a(1) = (   1.000000   0.000000   0.000000 )  
               a(2) = (   0.000000   1.000000   0.000000 )  
               a(3) = (   0.000000   0.000000   1.000000 )  

     reciprocal axes: (cart. coord. in units 2 pi/alat)
               b(1) = (  1.000000  0.000000  0.000000 )  
               b(2) = (  0.000000  1.000000  0.000000 )  
               b(3) = (  0.000000  0.000000  1.000000 )  


     PseudoPot. # 1 for Tb read from file:
     ./Tb.upf
     MD5 check sum: b33c2916c3a4d5697a1af0b816d76edb
     Pseudo is Norm-conserving, Zval = 19.0
     Generated by new atomic code, or converted to UPF format
     Using radial grid of 1183 points,  3 beta functions with: 
                l(1) =   1
                l(2) =   2
                l(3) =   3

     atomic species   valence    mass     pseudopotential
        Tb            19.00   158.92400     Tb( 1.00)

     Starting magnetic structure 
     atomic species   magnetization
        Tb           0.200

     No symmetry found



   Cartesian axes

     site n.     atom                  positions (alat units)
         1           Tb  tau(   1) = (   0.5000000   0.5000000   0.5000000  )

     number of k points=     1
                       cart. coord. in units 2pi/alat
        k(    1) = (   0.0000000   0.0000000   0.0000000), wk =   1.0000000

     Dense  grid:  2369047 G-vectors     FFT dimensions: ( 216, 216, 216)

     Estimated max dynamical RAM per process >     111.29 MB

     Estimated total dynamical RAM >       3.48 GB
     Generating pointlists ...
     new r_m :   0.4125 (alat units)  7.7951 (a.u.) for type    1

     The initial density is read from file :
     pwscf_output/pwscf.save/charge-density


     negative rho (up, down):  3.635E-04 2.880E-04
     Starting wfcs from file

     total cpu time spent up to now is        2.0 secs

     per-process dynamical memory:   296.2 Mb

     Self-consistent Calculation

     iteration #  1     ecut=   300.00 Ry     beta= 0.20
     Davidson diagonalization with overlap
     ethr =  1.00E-05,  avg # of iterations = 12.5

     negative rho (up, down):  2.368E-04 7.930E-05

     total cpu time spent up to now is        3.9 secs

     total energy              =    -258.12569225 Ry
     estimated scf accuracy    <       0.56278146 Ry

     total magnetization       =     7.00 Bohr mag/cell
     absolute magnetization    =     7.16 Bohr mag/cell

     iteration #  2     ecut=   300.00 Ry     beta= 0.20
     Davidson diagonalization with overlap
     ethr =  2.96E-03,  avg # of iterations =  1.0

     negative rho (up, down):  1.855E-04 6.961E-05

     total cpu time spent up to now is        4.9 secs

     total energy              =    -258.20987812 Ry
     estimated scf accuracy    <       0.24622359 Ry

     total magnetization       =     7.00 Bohr mag/cell
     absolute magnetization    =     7.01 Bohr mag/cell

     iteration #  3     ecut=   300.00 Ry     beta= 0.20
     Davidson diagonalization with overlap
     ethr =  1.30E-03,  avg # of iterations =  1.0

     negative rho (up, down):  1.135E-04 5.269E-05

     total cpu time spent up to now is        5.8 secs

     total energy              =    -258.17643747 Ry
     estimated scf accuracy    <       0.15421130 Ry

     total magnetization       =     7.00 Bohr mag/cell
     absolute magnetization    =     7.01 Bohr mag/cell

     iteration #  4     ecut=   300.00 Ry     beta= 0.20
     Davidson diagonalization with overlap
     ethr =  8.12E-04,  avg # of iterations =  1.5

     negative rho (up, down):  9.751E-06 2.512E-07

     total cpu time spent up to now is        6.8 secs

     total energy              =    -258.24590386 Ry
     estimated scf accuracy    <       0.51463738 Ry

     total magnetization       =     7.00 Bohr mag/cell
     absolute magnetization    =     7.17 Bohr mag/cell

     iteration #  5     ecut=   300.00 Ry     beta= 0.20
     Davidson diagonalization with overlap
     ethr =  8.12E-04,  avg # of iterations =  1.0

     total cpu time spent up to now is        7.7 secs

     total energy              =    -258.20868248 Ry
     estimated scf accuracy    <       0.49064847 Ry

     total magnetization       =     7.00 Bohr mag/cell
     absolute magnetization    =     7.17 Bohr mag/cell

     iteration #  6     ecut=   300.00 Ry     beta= 0.20
     Davidson diagonalization with overlap
     ethr =  8.12E-04,  avg # of iterations =  1.0

     total cpu time spent up to now is        8.7 secs

     total energy              =    -258.21101917 Ry
     estimated scf accuracy    <       0.34523151 Ry

     total magnetization       =     7.00 Bohr mag/cell
     absolute magnetization    =     7.16 Bohr mag/cell

     iteration #  7     ecut=   300.00 Ry     beta= 0.20
     Davidson diagonalization with overlap
     ethr =  8.12E-04,  avg # of iterations =  1.0

     total cpu time spent up to now is        9.7 secs

     total energy              =    -258.20949995 Ry
     estimated scf accuracy    <       0.34439524 Ry

     total magnetization       =     7.00 Bohr mag/cell
     absolute magnetization    =     7.16 Bohr mag/cell

     iteration #  8     ecut=   300.00 Ry     beta= 0.20
     Davidson diagonalization with overlap
     ethr =  8.12E-04,  avg # of iterations =  1.0

     total cpu time spent up to now is       10.6 secs

     total energy              =    -258.20851971 Ry
     estimated scf accuracy    <       0.29481338 Ry

     total magnetization       =     7.00 Bohr mag/cell
     absolute magnetization    =     7.14 Bohr mag/cell

     iteration #  9     ecut=   300.00 Ry     beta= 0.20
     Davidson diagonalization with overlap
     ethr =  8.12E-04,  avg # of iterations =  1.0

     total cpu time spent up to now is       11.6 secs

     total energy              =    -258.20741706 Ry
     estimated scf accuracy    <       0.19374826 Ry

     total magnetization       =     7.00 Bohr mag/cell
     absolute magnetization    =     7.09 Bohr mag/cell

     iteration # 10     ecut=   300.00 Ry     beta= 0.20
     Davidson diagonalization with overlap
     ethr =  8.12E-04,  avg # of iterations =  1.0

     negative rho (up, down):  2.602E-08 0.000E+00

     total cpu time spent up to now is       12.5 secs

     total energy              =    -258.20797161 Ry
     estimated scf accuracy    <       0.00192880 Ry

     total magnetization       =     7.00 Bohr mag/cell
     absolute magnetization    =     7.01 Bohr mag/cell

     iteration # 11     ecut=   300.00 Ry     beta= 0.20
     Davidson diagonalization with overlap
     ethr =  1.02E-05,  avg # of iterations =  1.0

     negative rho (up, down):  8.136E-08 0.000E+00

     total cpu time spent up to now is       13.5 secs

     total energy              =    -258.20441571 Ry
     estimated scf accuracy    <       0.16595001 Ry

     total magnetization       =     7.00 Bohr mag/cell
     absolute magnetization    =     7.08 Bohr mag/cell

     iteration # 12     ecut=   300.00 Ry     beta= 0.20
     Davidson diagonalization with overlap
     ethr =  1.02E-05,  avg # of iterations =  1.5

     negative rho (up, down):  1.817E-07 2.706E-09

     total cpu time spent up to now is       14.5 secs

     total energy              =    -258.21423651 Ry
     estimated scf accuracy    <       0.12276073 Ry

     total magnetization       =     7.00 Bohr mag/cell
     absolute magnetization    =     7.01 Bohr mag/cell

     iteration # 13     ecut=   300.00 Ry     beta= 0.20
     Davidson diagonalization with overlap
     ethr =  1.02E-05,  avg # of iterations =  2.0

     negative rho (up, down):  5.600E-07 5.249E-09

     total cpu time spent up to now is       15.5 secs

     total energy              =    -258.21398841 Ry
     estimated scf accuracy    <       0.15938923 Ry

     total magnetization       =     7.00 Bohr mag/cell
     absolute magnetization    =     7.01 Bohr mag/cell

     iteration # 14     ecut=   300.00 Ry     beta= 0.20
     Davidson diagonalization with overlap
     ethr =  1.02E-05,  avg # of iterations =  1.0

     negative rho (up, down):  6.941E-08 0.000E+00

     total cpu time spent up to now is       16.5 secs

     total energy              =    -258.20555356 Ry
     estimated scf accuracy    <       0.15472034 Ry

     total magnetization       =     7.00 Bohr mag/cell
     absolute magnetization    =     7.01 Bohr mag/cell

     iteration # 15     ecut=   300.00 Ry     beta= 0.20
     Davidson diagonalization with overlap
     ethr =  1.02E-05,  avg # of iterations =  2.0

     total cpu time spent up to now is       17.6 secs

     total energy              =    -258.21095527 Ry
     estimated scf accuracy    <       0.11573100 Ry

     total magnetization       =     7.00 Bohr mag/cell
     absolute magnetization    =     7.05 Bohr mag/cell

     iteration # 16     ecut=   300.00 Ry     beta= 0.20
     Davidson diagonalization with overlap
     ethr =  1.02E-05,  avg # of iterations =  1.5

     total cpu time spent up to now is       18.6 secs

     total energy              =    -258.21359298 Ry
     estimated scf accuracy    <       0.32621280 Ry

     total magnetization       =     7.00 Bohr mag/cell
     absolute magnetization    =     7.15 Bohr mag/cell

     iteration # 17     ecut=   300.00 Ry     beta= 0.20
     Davidson diagonalization with overlap
     ethr =  1.02E-05,  avg # of iterations =  1.0

     total cpu time spent up to now is       19.5 secs

     total energy              =    -258.20719779 Ry
     estimated scf accuracy    <       0.33987909 Ry

     total magnetization       =     7.00 Bohr mag/cell
     absolute magnetization    =     7.16 Bohr mag/cell

     iteration # 18     ecut=   300.00 Ry     beta= 0.20
     Davidson diagonalization with overlap
     ethr =  1.02E-05,  avg # of iterations =  1.0

     total cpu time spent up to now is       20.5 secs

     total energy              =    -258.20844058 Ry
     estimated scf accuracy    <       0.01729244 Ry

     total magnetization       =     7.00 Bohr mag/cell
     absolute magnetization    =     7.02 Bohr mag/cell

     iteration # 19     ecut=   300.00 Ry     beta= 0.20
     Davidson diagonalization with overlap
     ethr =  1.02E-05,  avg # of iterations =  1.0

     total cpu time spent up to now is       21.4 secs

     total energy              =    -258.20842847 Ry
     estimated scf accuracy    <       0.00789810 Ry

     total magnetization       =     7.00 Bohr mag/cell
     absolute magnetization    =     7.01 Bohr mag/cell

     iteration # 20     ecut=   300.00 Ry     beta= 0.20
     Davidson diagonalization with overlap
     ethr =  1.02E-05,  avg # of iterations =  1.0

     total cpu time spent up to now is       22.4 secs

     total energy              =    -258.20842348 Ry
     estimated scf accuracy    <       0.00321406 Ry

     total magnetization       =     7.00 Bohr mag/cell
     absolute magnetization    =     7.01 Bohr mag/cell

     iteration # 21     ecut=   300.00 Ry     beta= 0.20
     Davidson diagonalization with overlap
     ethr =  1.02E-05,  avg # of iterations =  1.0

     total cpu time spent up to now is       23.4 secs

     total energy              =    -258.20835367 Ry
     estimated scf accuracy    <       0.00308716 Ry

     total magnetization       =     7.00 Bohr mag/cell
     absolute magnetization    =     7.01 Bohr mag/cell

     iteration # 22     ecut=   300.00 Ry     beta= 0.20
     Davidson diagonalization with overlap
     ethr =  1.02E-05,  avg # of iterations =  1.0

     total cpu time spent up to now is       24.3 secs

     total energy              =    -258.20790763 Ry
     estimated scf accuracy    <       0.02324284 Ry

     total magnetization       =     7.00 Bohr mag/cell
     absolute magnetization    =     7.01 Bohr mag/cell

     iteration # 23     ecut=   300.00 Ry     beta= 0.20
     Davidson diagonalization with overlap
     ethr =  1.02E-05,  avg # of iterations =  1.0

     total cpu time spent up to now is       25.3 secs

     total energy              =    -258.20788667 Ry
     estimated scf accuracy    <       0.10627054 Ry

     total magnetization       =     7.00 Bohr mag/cell
     absolute magnetization    =     7.05 Bohr mag/cell

     iteration # 24     ecut=   300.00 Ry     beta= 0.20
     Davidson diagonalization with overlap
     ethr =  1.02E-05,  avg # of iterations =  1.0

     total cpu time spent up to now is       26.2 secs

     total energy              =    -258.20848313 Ry
     estimated scf accuracy    <       0.00249383 Ry

     total magnetization       =     7.00 Bohr mag/cell
     absolute magnetization    =     7.01 Bohr mag/cell

     iteration # 25     ecut=   300.00 Ry     beta= 0.20
     Davidson diagonalization with overlap
     ethr =  1.02E-05,  avg # of iterations =  1.0

     total cpu time spent up to now is       27.2 secs

     total energy              =    -258.20866196 Ry
     estimated scf accuracy    <       0.00887335 Ry

     total magnetization       =     7.00 Bohr mag/cell
     absolute magnetization    =     7.01 Bohr mag/cell

     iteration # 26     ecut=   300.00 Ry     beta= 0.20
     Davidson diagonalization with overlap
     ethr =  1.02E-05,  avg # of iterations =  1.0

     total cpu time spent up to now is       28.1 secs

     total energy              =    -258.20818344 Ry
     estimated scf accuracy    <       0.05113397 Ry

     total magnetization       =     7.00 Bohr mag/cell
     absolute magnetization    =     7.03 Bohr mag/cell

     iteration # 27     ecut=   300.00 Ry     beta= 0.20
     Davidson diagonalization with overlap
     ethr =  1.02E-05,  avg # of iterations =  1.0

     total cpu time spent up to now is       29.1 secs

     total energy              =    -258.20856304 Ry
     estimated scf accuracy    <       0.00308200 Ry

     total magnetization       =     7.00 Bohr mag/cell
     absolute magnetization    =     7.01 Bohr mag/cell

     iteration # 28     ecut=   300.00 Ry     beta= 0.20
     Davidson diagonalization with overlap
     ethr =  1.02E-05,  avg # of iterations =  1.0

     total cpu time spent up to now is       30.1 secs

     total energy              =    -258.20842288 Ry
     estimated scf accuracy    <       0.00336071 Ry

     total magnetization       =     7.00 Bohr mag/cell
     absolute magnetization    =     7.01 Bohr mag/cell

     iteration # 29     ecut=   300.00 Ry     beta= 0.20
     Davidson diagonalization with overlap
     ethr =  1.02E-05,  avg # of iterations =  1.0

     negative rho (up, down):  1.550E-08 3.027E-09

     total cpu time spent up to now is       31.0 secs

     total energy              =    -258.20841604 Ry
     estimated scf accuracy    <       0.00082900 Ry

     total magnetization       =     7.00 Bohr mag/cell
     absolute magnetization    =     7.01 Bohr mag/cell

     iteration # 30     ecut=   300.00 Ry     beta= 0.20
     Davidson diagonalization with overlap
     ethr =  4.36E-06,  avg # of iterations =  1.0

     total cpu time spent up to now is       32.0 secs

     total energy              =    -258.20842431 Ry
     estimated scf accuracy    <       0.00085242 Ry

     total magnetization       =     7.00 Bohr mag/cell
     absolute magnetization    =     7.01 Bohr mag/cell

     iteration # 31     ecut=   300.00 Ry     beta= 0.20
     Davidson diagonalization with overlap
     ethr =  4.36E-06,  avg # of iterations =  1.0

     total cpu time spent up to now is       33.0 secs

     total energy              =    -258.20846821 Ry
     estimated scf accuracy    <       0.00085617 Ry

     total magnetization       =     7.00 Bohr mag/cell
     absolute magnetization    =     7.01 Bohr mag/cell

     iteration # 32     ecut=   300.00 Ry     beta= 0.20
     Davidson diagonalization with overlap
     ethr =  4.36E-06,  avg # of iterations =  1.0

     total cpu time spent up to now is       33.9 secs

     total energy              =    -258.20870165 Ry
     estimated scf accuracy    <       0.00099097 Ry

     total magnetization       =     7.00 Bohr mag/cell
     absolute magnetization    =     7.01 Bohr mag/cell

     iteration # 33     ecut=   300.00 Ry     beta= 0.20
     Davidson diagonalization with overlap
     ethr =  4.36E-06,  avg # of iterations =  1.0

     total cpu time spent up to now is       34.9 secs

     total energy              =    -258.20857984 Ry
     estimated scf accuracy    <       0.00491874 Ry

     total magnetization       =     7.00 Bohr mag/cell
     absolute magnetization    =     7.01 Bohr mag/cell

     iteration # 34     ecut=   300.00 Ry     beta= 0.20
     Davidson diagonalization with overlap
     ethr =  4.36E-06,  avg # of iterations =  1.0

     negative rho (up, down):  2.236E-08 1.048E-07

     total cpu time spent up to now is       35.9 secs

     total energy              =    -258.20898549 Ry
     estimated scf accuracy    <       0.00280060 Ry

     total magnetization       =     7.00 Bohr mag/cell
     absolute magnetization    =     7.01 Bohr mag/cell

     iteration # 35     ecut=   300.00 Ry     beta= 0.20
     Davidson diagonalization with overlap
     ethr =  4.36E-06,  avg # of iterations =  1.5

     negative rho (up, down):  8.308E-08 4.131E-06

     total cpu time spent up to now is       36.9 secs

     total energy              =    -258.20911093 Ry
     estimated scf accuracy    <       0.00080838 Ry

     total magnetization       =     7.00 Bohr mag/cell
     absolute magnetization    =     7.01 Bohr mag/cell

     iteration # 36     ecut=   300.00 Ry     beta= 0.20
     Davidson diagonalization with overlap
     ethr =  4.25E-06,  avg # of iterations =  2.0

     negative rho (up, down):  1.700E-07 6.911E-07

     total cpu time spent up to now is       37.9 secs

     total energy              =    -258.20917811 Ry
     estimated scf accuracy    <       0.00026934 Ry

     total magnetization       =     7.00 Bohr mag/cell
     absolute magnetization    =     7.01 Bohr mag/cell

     iteration # 37     ecut=   300.00 Ry     beta= 0.20
     Davidson diagonalization with overlap
     c_bands:  1 eigenvalues not converged
     ethr =  1.42E-06,  avg # of iterations = 10.5

     negative rho (up, down):  1.701E-07 7.168E-07

     total cpu time spent up to now is       39.2 secs

     total energy              =    -258.20929845 Ry
     estimated scf accuracy    <       0.00032701 Ry

     total magnetization       =     7.00 Bohr mag/cell
     absolute magnetization    =     7.01 Bohr mag/cell

     iteration # 38     ecut=   300.00 Ry     beta= 0.20
     Davidson diagonalization with overlap
     ethr =  1.42E-06,  avg # of iterations =  6.5

     negative rho (up, down):  1.074E-07 4.021E-07

     total cpu time spent up to now is       40.3 secs

     total energy              =    -258.20931165 Ry
     estimated scf accuracy    <       0.00035744 Ry

     total magnetization       =     7.00 Bohr mag/cell
     absolute magnetization    =     7.01 Bohr mag/cell

     iteration # 39     ecut=   300.00 Ry     beta= 0.20
     Davidson diagonalization with overlap
     ethr =  1.42E-06,  avg # of iterations =  1.0

     negative rho (up, down):  1.751E-07 3.934E-07

     total cpu time spent up to now is       41.2 secs

     total energy              =    -258.20927700 Ry
     estimated scf accuracy    <       0.00060423 Ry

     total magnetization       =     7.00 Bohr mag/cell
     absolute magnetization    =     7.01 Bohr mag/cell

     iteration # 40     ecut=   300.00 Ry     beta= 0.20
     Davidson diagonalization with overlap
     ethr =  1.42E-06,  avg # of iterations =  1.0

     negative rho (up, down):  1.779E-07 1.931E-06

     total cpu time spent up to now is       42.2 secs

     total energy              =    -258.20929869 Ry
     estimated scf accuracy    <       0.00024870 Ry

     total magnetization       =     7.00 Bohr mag/cell
     absolute magnetization    =     7.01 Bohr mag/cell

     iteration # 41     ecut=   300.00 Ry     beta= 0.20
     Davidson diagonalization with overlap
     ethr =  1.31E-06,  avg # of iterations =  1.0

     negative rho (up, down):  9.925E-08 1.208E-07

     total cpu time spent up to now is       43.1 secs

     total energy              =    -258.20932272 Ry
     estimated scf accuracy    <       0.00039176 Ry

     total magnetization       =     7.00 Bohr mag/cell
     absolute magnetization    =     7.01 Bohr mag/cell

     iteration # 42     ecut=   300.00 Ry     beta= 0.20
     Davidson diagonalization with overlap
     ethr =  1.31E-06,  avg # of iterations =  1.0

     negative rho (up, down):  5.943E-08 2.388E-08

     total cpu time spent up to now is       44.1 secs

     total energy              =    -258.20933842 Ry
     estimated scf accuracy    <       0.00050088 Ry

     total magnetization       =     7.00 Bohr mag/cell
     absolute magnetization    =     7.01 Bohr mag/cell

     iteration # 43     ecut=   300.00 Ry     beta= 0.20
     Davidson diagonalization with overlap
     ethr =  1.31E-06,  avg # of iterations =  1.0

     negative rho (up, down):  4.973E-08 1.718E-08

     total cpu time spent up to now is       45.0 secs

     total energy              =    -258.20933349 Ry
     estimated scf accuracy    <       0.00049828 Ry

     total magnetization       =     7.00 Bohr mag/cell
     absolute magnetization    =     7.01 Bohr mag/cell

     iteration # 44     ecut=   300.00 Ry     beta= 0.20
     Davidson diagonalization with overlap
     ethr =  1.31E-06,  avg # of iterations =  1.0

     total cpu time spent up to now is       46.0 secs

     total energy              =    -258.20933360 Ry
     estimated scf accuracy    <       0.00046839 Ry

     total magnetization       =     7.00 Bohr mag/cell
     absolute magnetization    =     7.01 Bohr mag/cell

     iteration # 45     ecut=   300.00 Ry     beta= 0.20
     Davidson diagonalization with overlap
     ethr =  1.31E-06,  avg # of iterations =  1.0

     total cpu time spent up to now is       46.9 secs

     total energy              =    -258.20936495 Ry
     estimated scf accuracy    <       0.00040219 Ry

     total magnetization       =     7.00 Bohr mag/cell
     absolute magnetization    =     7.01 Bohr mag/cell

     iteration # 46     ecut=   300.00 Ry     beta= 0.20
     Davidson diagonalization with overlap
     ethr =  1.31E-06,  avg # of iterations =  1.5

     negative rho (up, down):  2.699E-08 5.520E-09

     total cpu time spent up to now is       47.9 secs

     total energy              =    -258.20943188 Ry
     estimated scf accuracy    <       0.00014853 Ry

     total magnetization       =     7.00 Bohr mag/cell
     absolute magnetization    =     7.01 Bohr mag/cell

     iteration # 47     ecut=   300.00 Ry     beta= 0.20
     Davidson diagonalization with overlap
     ethr =  7.82E-07,  avg # of iterations =  1.5

     negative rho (up, down):  2.602E-08 4.876E-09

     total cpu time spent up to now is       48.9 secs

     total energy              =    -258.20945952 Ry
     estimated scf accuracy    <       0.00011891 Ry

     total magnetization       =     7.00 Bohr mag/cell
     absolute magnetization    =     7.01 Bohr mag/cell

     iteration # 48     ecut=   300.00 Ry     beta= 0.20
     Davidson diagonalization with overlap
     ethr =  6.26E-07,  avg # of iterations =  2.5

     negative rho (up, down):  2.039E-08 3.778E-09

     total cpu time spent up to now is       49.9 secs

     total energy              =    -258.20948234 Ry
     estimated scf accuracy    <       0.00004820 Ry

     total magnetization       =     7.00 Bohr mag/cell
     absolute magnetization    =     7.01 Bohr mag/cell

     iteration # 49     ecut=   300.00 Ry     beta= 0.20
     Davidson diagonalization with overlap
     ethr =  2.54E-07,  avg # of iterations =  8.0

     total cpu time spent up to now is       51.1 secs

     total energy              =    -258.20955751 Ry
     estimated scf accuracy    <       0.00003744 Ry

     total magnetization       =     7.00 Bohr mag/cell
     absolute magnetization    =     7.01 Bohr mag/cell

     iteration # 50     ecut=   300.00 Ry     beta= 0.20
     Davidson diagonalization with overlap
     ethr =  1.97E-07,  avg # of iterations =  2.0

     total cpu time spent up to now is       52.1 secs

     total energy              =    -258.20957779 Ry
     estimated scf accuracy    <       0.00002955 Ry

     total magnetization       =     7.00 Bohr mag/cell
     absolute magnetization    =     7.01 Bohr mag/cell

     iteration # 51     ecut=   300.00 Ry     beta= 0.20
     Davidson diagonalization with overlap
     ethr =  1.56E-07,  avg # of iterations =  2.0

     total cpu time spent up to now is       53.1 secs

     total energy              =    -258.20959511 Ry
     estimated scf accuracy    <       0.00002752 Ry

     total magnetization       =     7.00 Bohr mag/cell
     absolute magnetization    =     7.01 Bohr mag/cell

     iteration # 52     ecut=   300.00 Ry     beta= 0.20
     Davidson diagonalization with overlap
     ethr =  1.45E-07,  avg # of iterations =  6.5

     total cpu time spent up to now is       54.2 secs

     total energy              =    -258.20960613 Ry
     estimated scf accuracy    <       0.00002676 Ry

     total magnetization       =     7.00 Bohr mag/cell
     absolute magnetization    =     7.01 Bohr mag/cell

     iteration # 53     ecut=   300.00 Ry     beta= 0.20
     Davidson diagonalization with overlap
     ethr =  1.41E-07,  avg # of iterations =  1.5

     total cpu time spent up to now is       55.2 secs

     total energy              =    -258.20959232 Ry
     estimated scf accuracy    <       0.00004892 Ry

     total magnetization       =     7.00 Bohr mag/cell
     absolute magnetization    =     7.01 Bohr mag/cell

     iteration # 54     ecut=   300.00 Ry     beta= 0.20
     Davidson diagonalization with overlap
     ethr =  1.41E-07,  avg # of iterations =  8.0

     total cpu time spent up to now is       56.4 secs

     total energy              =    -258.20970875 Ry
     estimated scf accuracy    <       0.00001506 Ry

     total magnetization       =     7.00 Bohr mag/cell
     absolute magnetization    =     7.01 Bohr mag/cell

     iteration # 55     ecut=   300.00 Ry     beta= 0.20
     Davidson diagonalization with overlap
     ethr =  7.92E-08,  avg # of iterations =  8.0

     total cpu time spent up to now is       57.7 secs

     total energy              =    -258.20973776 Ry
     estimated scf accuracy    <       0.00001295 Ry

     total magnetization       =     7.00 Bohr mag/cell
     absolute magnetization    =     7.01 Bohr mag/cell

     iteration # 56     ecut=   300.00 Ry     beta= 0.20
     Davidson diagonalization with overlap
     ethr =  6.82E-08,  avg # of iterations =  1.0

     total cpu time spent up to now is       58.7 secs

     total energy              =    -258.20973725 Ry
     estimated scf accuracy    <       0.00006800 Ry

     total magnetization       =     7.00 Bohr mag/cell
     absolute magnetization    =     7.01 Bohr mag/cell

     iteration # 57     ecut=   300.00 Ry     beta= 0.20
     Davidson diagonalization with overlap
     ethr =  6.82E-08,  avg # of iterations =  1.0

     negative rho (up, down):  1.884E-08 3.785E-09

     total cpu time spent up to now is       59.6 secs

     total energy              =    -258.20973866 Ry
     estimated scf accuracy    <       0.00005675 Ry

     total magnetization       =     7.00 Bohr mag/cell
     absolute magnetization    =     7.01 Bohr mag/cell

     iteration # 58     ecut=   300.00 Ry     beta= 0.20
     Davidson diagonalization with overlap
     ethr =  6.82E-08,  avg # of iterations =  1.0

     negative rho (up, down):  1.435E-08 2.612E-09

     total cpu time spent up to now is       60.6 secs

     total energy              =    -258.20974385 Ry
     estimated scf accuracy    <       0.00002198 Ry

     total magnetization       =     7.00 Bohr mag/cell
     absolute magnetization    =     7.01 Bohr mag/cell

     iteration # 59     ecut=   300.00 Ry     beta= 0.20
     Davidson diagonalization with overlap
     ethr =  6.82E-08,  avg # of iterations =  1.0

     total cpu time spent up to now is       61.6 secs

     total energy              =    -258.20975037 Ry
     estimated scf accuracy    <       0.00001693 Ry

     total magnetization       =     7.00 Bohr mag/cell
     absolute magnetization    =     7.01 Bohr mag/cell

     iteration # 60     ecut=   300.00 Ry     beta= 0.20
     Davidson diagonalization with overlap
     ethr =  6.82E-08,  avg # of iterations =  6.0

     total cpu time spent up to now is       62.6 secs

     total energy              =    -258.20976053 Ry
     estimated scf accuracy    <       0.00001453 Ry

     total magnetization       =     7.00 Bohr mag/cell
     absolute magnetization    =     7.01 Bohr mag/cell

     iteration # 61     ecut=   300.00 Ry     beta= 0.20
     Davidson diagonalization with overlap
     ethr =  6.82E-08,  avg # of iterations =  1.5

     negative rho (up, down):  1.213E-08 2.085E-09

     total cpu time spent up to now is       63.6 secs

     total energy              =    -258.20976490 Ry
     estimated scf accuracy    <       0.00001420 Ry

     total magnetization       =     7.00 Bohr mag/cell
     absolute magnetization    =     7.02 Bohr mag/cell

     iteration # 62     ecut=   300.00 Ry     beta= 0.20
     Davidson diagonalization with overlap
     ethr =  6.82E-08,  avg # of iterations =  1.0

     negative rho (up, down):  2.806E-08 5.776E-09

     total cpu time spent up to now is       64.6 secs

     total energy              =    -258.20976576 Ry
     estimated scf accuracy    <       0.00000888 Ry

     total magnetization       =     7.00 Bohr mag/cell
     absolute magnetization    =     7.01 Bohr mag/cell

     iteration # 63     ecut=   300.00 Ry     beta= 0.20
     Davidson diagonalization with overlap
     ethr =  4.67E-08,  avg # of iterations =  9.5

     negative rho (up, down):  3.032E-08 6.338E-09

     total cpu time spent up to now is       65.8 secs

     total energy              =    -258.20978696 Ry
     estimated scf accuracy    <       0.00000852 Ry

     total magnetization       =     7.00 Bohr mag/cell
     absolute magnetization    =     7.02 Bohr mag/cell

     iteration # 64     ecut=   300.00 Ry     beta= 0.20
     Davidson diagonalization with overlap
     ethr =  4.49E-08,  avg # of iterations =  1.0

     negative rho (up, down):  3.135E-08 6.629E-09

     total cpu time spent up to now is       66.8 secs

     total energy              =    -258.20978951 Ry
     estimated scf accuracy    <       0.00000869 Ry

     total magnetization       =     7.00 Bohr mag/cell
     absolute magnetization    =     7.02 Bohr mag/cell

     iteration # 65     ecut=   300.00 Ry     beta= 0.20
     Davidson diagonalization with overlap
     ethr =  4.49E-08,  avg # of iterations =  1.0

     negative rho (up, down):  1.016E-08 1.565E-09

     total cpu time spent up to now is       67.7 secs

     total energy              =    -258.20979277 Ry
     estimated scf accuracy    <       0.00001055 Ry

     total magnetization       =     7.00 Bohr mag/cell
     absolute magnetization    =     7.02 Bohr mag/cell

     iteration # 66     ecut=   300.00 Ry     beta= 0.20
     Davidson diagonalization with overlap
     ethr =  4.49E-08,  avg # of iterations =  1.0

     negative rho (up, down):  1.621E-08 2.958E-09

     total cpu time spent up to now is       68.7 secs

     total energy              =    -258.20979255 Ry
     estimated scf accuracy    <       0.00000733 Ry

     total magnetization       =     7.00 Bohr mag/cell
     absolute magnetization    =     7.02 Bohr mag/cell

     iteration # 67     ecut=   300.00 Ry     beta= 0.20
     Davidson diagonalization with overlap
     ethr =  3.86E-08,  avg # of iterations =  1.0

     total cpu time spent up to now is       69.6 secs

     total energy              =    -258.20979062 Ry
     estimated scf accuracy    <       0.00000686 Ry

     total magnetization       =     7.00 Bohr mag/cell
     absolute magnetization    =     7.02 Bohr mag/cell

     iteration # 68     ecut=   300.00 Ry     beta= 0.20
     Davidson diagonalization with overlap
     ethr =  3.61E-08,  avg # of iterations =  1.0

     negative rho (up, down):  1.820E-08 3.360E-09

     total cpu time spent up to now is       70.6 secs

     total energy              =    -258.20978269 Ry
     estimated scf accuracy    <       0.00000691 Ry

     total magnetization       =     7.00 Bohr mag/cell
     absolute magnetization    =     7.01 Bohr mag/cell

     iteration # 69     ecut=   300.00 Ry     beta= 0.20
     Davidson diagonalization with overlap
     ethr =  3.61E-08,  avg # of iterations =  1.5

     total cpu time spent up to now is       71.6 secs

     total energy              =    -258.20978863 Ry
     estimated scf accuracy    <       0.00001010 Ry

     total magnetization       =     7.00 Bohr mag/cell
     absolute magnetization    =     7.01 Bohr mag/cell

     iteration # 70     ecut=   300.00 Ry     beta= 0.20
     Davidson diagonalization with overlap
     ethr =  3.61E-08,  avg # of iterations =  2.0

     total cpu time spent up to now is       72.5 secs

     total energy              =    -258.20978662 Ry
     estimated scf accuracy    <       0.00000799 Ry

     total magnetization       =     7.00 Bohr mag/cell
     absolute magnetization    =     7.02 Bohr mag/cell

     iteration # 71     ecut=   300.00 Ry     beta= 0.20
     Davidson diagonalization with overlap
     ethr =  3.61E-08,  avg # of iterations =  1.0

     total cpu time spent up to now is       73.5 secs

     total energy              =    -258.20978502 Ry
     estimated scf accuracy    <       0.00001049 Ry

     total magnetization       =     7.00 Bohr mag/cell
     absolute magnetization    =     7.02 Bohr mag/cell

     iteration # 72     ecut=   300.00 Ry     beta= 0.20
     Davidson diagonalization with overlap
     ethr =  3.61E-08,  avg # of iterations =  6.5

     total cpu time spent up to now is       74.7 secs

     total energy              =    -258.20979624 Ry
     estimated scf accuracy    <       0.00001618 Ry

     total magnetization       =     7.00 Bohr mag/cell
     absolute magnetization    =     7.02 Bohr mag/cell

     iteration # 73     ecut=   300.00 Ry     beta= 0.20
     Davidson diagonalization with overlap
     ethr =  3.61E-08,  avg # of iterations =  1.5

     total cpu time spent up to now is       75.7 secs

     total energy              =    -258.20980294 Ry
     estimated scf accuracy    <       0.00002830 Ry

     total magnetization       =     7.00 Bohr mag/cell
     absolute magnetization    =     7.01 Bohr mag/cell

     iteration # 74     ecut=   300.00 Ry     beta= 0.20
     Davidson diagonalization with overlap
     ethr =  3.61E-08,  avg # of iterations =  2.0

     total cpu time spent up to now is       76.7 secs

     total energy              =    -258.20981178 Ry
     estimated scf accuracy    <       0.00001634 Ry

     total magnetization       =     7.00 Bohr mag/cell
     absolute magnetization    =     7.01 Bohr mag/cell

     iteration # 75     ecut=   300.00 Ry     beta= 0.20
     Davidson diagonalization with overlap
     ethr =  3.61E-08,  avg # of iterations =  3.0

     total cpu time spent up to now is       77.7 secs

     total energy              =    -258.20981738 Ry
     estimated scf accuracy    <       0.00000583 Ry

     total magnetization       =     7.00 Bohr mag/cell
     absolute magnetization    =     7.02 Bohr mag/cell

     iteration # 76     ecut=   300.00 Ry     beta= 0.20
     Davidson diagonalization with overlap
     ethr =  3.07E-08,  avg # of iterations =  1.0

     total cpu time spent up to now is       78.7 secs

     total energy              =    -258.20981962 Ry
     estimated scf accuracy    <       0.00000397 Ry

     total magnetization       =     7.00 Bohr mag/cell
     absolute magnetization    =     7.02 Bohr mag/cell

     iteration # 77     ecut=   300.00 Ry     beta= 0.20
     Davidson diagonalization with overlap
     ethr =  2.09E-08,  avg # of iterations =  6.5

     negative rho (up, down):  1.543E-08 3.212E-09

     total cpu time spent up to now is       79.7 secs

     total energy              =    -258.20982333 Ry
     estimated scf accuracy    <       0.00000570 Ry

     total magnetization       =     7.00 Bohr mag/cell
     absolute magnetization    =     7.02 Bohr mag/cell

     iteration # 78     ecut=   300.00 Ry     beta= 0.20
     Davidson diagonalization with overlap
     ethr =  2.09E-08,  avg # of iterations =  1.5

     negative rho (up, down):  2.881E-08 6.379E-09

     total cpu time spent up to now is       80.7 secs

     total energy              =    -258.20982377 Ry
     estimated scf accuracy    <       0.00000499 Ry

     total magnetization       =     7.00 Bohr mag/cell
     absolute magnetization    =     7.02 Bohr mag/cell

     iteration # 79     ecut=   300.00 Ry     beta= 0.20
     Davidson diagonalization with overlap
     ethr =  2.09E-08,  avg # of iterations =  2.5

     negative rho (up, down):  3.003E-08 6.635E-09

     total cpu time spent up to now is       81.7 secs

     total energy              =    -258.20982311 Ry
     estimated scf accuracy    <       0.00000438 Ry

     total magnetization       =     7.00 Bohr mag/cell
     absolute magnetization    =     7.02 Bohr mag/cell

     iteration # 80     ecut=   300.00 Ry     beta= 0.20
     Davidson diagonalization with overlap
     ethr =  2.09E-08,  avg # of iterations =  1.0

     negative rho (up, down):  1.724E-08 3.738E-09

     total cpu time spent up to now is       82.7 secs

     total energy              =    -258.20982589 Ry
     estimated scf accuracy    <       0.00000470 Ry

     total magnetization       =     7.00 Bohr mag/cell
     absolute magnetization    =     7.02 Bohr mag/cell

     iteration # 81     ecut=   300.00 Ry     beta= 0.20
     Davidson diagonalization with overlap
     ethr =  2.09E-08,  avg # of iterations =  1.0

     negative rho (up, down):  1.162E-08 2.477E-09

     total cpu time spent up to now is       83.6 secs

     total energy              =    -258.20982859 Ry
     estimated scf accuracy    <       0.00000461 Ry

     total magnetization       =     7.00 Bohr mag/cell
     absolute magnetization    =     7.02 Bohr mag/cell

     iteration # 82     ecut=   300.00 Ry     beta= 0.20
     Davidson diagonalization with overlap
     ethr =  2.09E-08,  avg # of iterations =  6.5

     negative rho (up, down):  1.274E-08 2.788E-09

     total cpu time spent up to now is       84.7 secs

     total energy              =    -258.20983389 Ry
     estimated scf accuracy    <       0.00000461 Ry

     total magnetization       =     7.00 Bohr mag/cell
     absolute magnetization    =     7.02 Bohr mag/cell

     iteration # 83     ecut=   300.00 Ry     beta= 0.20
     Davidson diagonalization with overlap
     ethr =  2.09E-08,  avg # of iterations =  1.5

     total cpu time spent up to now is       85.7 secs

     total energy              =    -258.20983163 Ry
     estimated scf accuracy    <       0.00000518 Ry

     total magnetization       =     7.00 Bohr mag/cell
     absolute magnetization    =     7.02 Bohr mag/cell

     iteration # 84     ecut=   300.00 Ry     beta= 0.20
     Davidson diagonalization with overlap
     ethr =  2.09E-08,  avg # of iterations =  1.0

     negative rho (up, down):  1.619E-08 3.622E-09

     total cpu time spent up to now is       86.6 secs

     total energy              =    -258.20983435 Ry
     estimated scf accuracy    <       0.00000546 Ry

     total magnetization       =     7.00 Bohr mag/cell
     absolute magnetization    =     7.02 Bohr mag/cell

     iteration # 85     ecut=   300.00 Ry     beta= 0.20
     Davidson diagonalization with overlap
     ethr =  2.09E-08,  avg # of iterations =  1.0

     negative rho (up, down):  1.892E-08 4.353E-09

     total cpu time spent up to now is       87.6 secs

     total energy              =    -258.20983825 Ry
     estimated scf accuracy    <       0.00000432 Ry

     total magnetization       =     7.00 Bohr mag/cell
     absolute magnetization    =     7.02 Bohr mag/cell

     iteration # 86     ecut=   300.00 Ry     beta= 0.20
     Davidson diagonalization with overlap
     ethr =  2.09E-08,  avg # of iterations =  7.0

     negative rho (up, down):  1.084E-08 2.388E-09

     total cpu time spent up to now is       88.7 secs

     total energy              =    -258.20982885 Ry
     estimated scf accuracy    <       0.00000727 Ry

     total magnetization       =     7.00 Bohr mag/cell
     absolute magnetization    =     7.02 Bohr mag/cell

     iteration # 87     ecut=   300.00 Ry     beta= 0.20
     Davidson diagonalization with overlap
     ethr =  2.09E-08,  avg # of iterations =  5.5

     total cpu time spent up to now is       89.8 secs

     total energy              =    -258.20983926 Ry
     estimated scf accuracy    <       0.00000805 Ry

     total magnetization       =     7.00 Bohr mag/cell
     absolute magnetization    =     7.02 Bohr mag/cell

     iteration # 88     ecut=   300.00 Ry     beta= 0.20
     Davidson diagonalization with overlap
     ethr =  2.09E-08,  avg # of iterations =  1.5

     total cpu time spent up to now is       90.8 secs

     total energy              =    -258.20983481 Ry
     estimated scf accuracy    <       0.00000520 Ry

     total magnetization       =     7.00 Bohr mag/cell
     absolute magnetization    =     7.02 Bohr mag/cell

     iteration # 89     ecut=   300.00 Ry     beta= 0.20
     Davidson diagonalization with overlap
     ethr =  2.09E-08,  avg # of iterations =  8.5

     total cpu time spent up to now is       92.0 secs

     total energy              =    -258.20986768 Ry
     estimated scf accuracy    <       0.00000390 Ry

     total magnetization       =     7.00 Bohr mag/cell
     absolute magnetization    =     7.02 Bohr mag/cell

     iteration # 90     ecut=   300.00 Ry     beta= 0.20
     Davidson diagonalization with overlap
     ethr =  2.05E-08,  avg # of iterations =  1.0

     total cpu time spent up to now is       93.0 secs

     total energy              =    -258.20987223 Ry
     estimated scf accuracy    <       0.00000466 Ry

     total magnetization       =     7.00 Bohr mag/cell
     absolute magnetization    =     7.02 Bohr mag/cell

     iteration # 91     ecut=   300.00 Ry     beta= 0.20
     Davidson diagonalization with overlap
     ethr =  2.05E-08,  avg # of iterations =  1.5

     total cpu time spent up to now is       94.0 secs

     total energy              =    -258.20987540 Ry
     estimated scf accuracy    <       0.00000213 Ry

     total magnetization       =     7.00 Bohr mag/cell
     absolute magnetization    =     7.02 Bohr mag/cell

     iteration # 92     ecut=   300.00 Ry     beta= 0.20
     Davidson diagonalization with overlap
     ethr =  1.12E-08,  avg # of iterations =  6.5

     total cpu time spent up to now is       95.1 secs

     total energy              =    -258.20987346 Ry
     estimated scf accuracy    <       0.00000581 Ry

     total magnetization       =     7.00 Bohr mag/cell
     absolute magnetization    =     7.02 Bohr mag/cell

     iteration # 93     ecut=   300.00 Ry     beta= 0.20
     Davidson diagonalization with overlap
     ethr =  1.12E-08,  avg # of iterations =  1.5

     total cpu time spent up to now is       96.1 secs

     total energy              =    -258.20987074 Ry
     estimated scf accuracy    <       0.00000672 Ry

     total magnetization       =     7.00 Bohr mag/cell
     absolute magnetization    =     7.02 Bohr mag/cell

     iteration # 94     ecut=   300.00 Ry     beta= 0.20
     Davidson diagonalization with overlap
     ethr =  1.12E-08,  avg # of iterations =  1.5

     total cpu time spent up to now is       97.1 secs

     total energy              =    -258.20987847 Ry
     estimated scf accuracy    <       0.00001145 Ry

     total magnetization       =     7.00 Bohr mag/cell
     absolute magnetization    =     7.02 Bohr mag/cell

     iteration # 95     ecut=   300.00 Ry     beta= 0.20
     Davidson diagonalization with overlap
     ethr =  1.12E-08,  avg # of iterations =  6.5

     total cpu time spent up to now is       98.3 secs

     total energy              =    -258.20987608 Ry
     estimated scf accuracy    <       0.00000417 Ry

     total magnetization       =     7.00 Bohr mag/cell
     absolute magnetization    =     7.02 Bohr mag/cell

     iteration # 96     ecut=   300.00 Ry     beta= 0.20
     Davidson diagonalization with overlap
     ethr =  1.12E-08,  avg # of iterations =  6.0

     total cpu time spent up to now is       99.3 secs

     total energy              =    -258.20987854 Ry
     estimated scf accuracy    <       0.00000469 Ry

     total magnetization       =     7.00 Bohr mag/cell
     absolute magnetization    =     7.02 Bohr mag/cell

     iteration # 97     ecut=   300.00 Ry     beta= 0.20
     Davidson diagonalization with overlap
     ethr =  1.12E-08,  avg # of iterations =  1.5

     total cpu time spent up to now is      100.3 secs

     total energy              =    -258.20988212 Ry
     estimated scf accuracy    <       0.00000433 Ry

     total magnetization       =     7.00 Bohr mag/cell
     absolute magnetization    =     7.02 Bohr mag/cell

     iteration # 98     ecut=   300.00 Ry     beta= 0.20
     Davidson diagonalization with overlap
     ethr =  1.12E-08,  avg # of iterations =  5.5

     total cpu time spent up to now is      101.4 secs

     total energy              =    -258.20988266 Ry
     estimated scf accuracy    <       0.00000393 Ry

     total magnetization       =     7.00 Bohr mag/cell
     absolute magnetization    =     7.02 Bohr mag/cell

     iteration # 99     ecut=   300.00 Ry     beta= 0.20
     Davidson diagonalization with overlap
     ethr =  1.12E-08,  avg # of iterations =  1.0

     total cpu time spent up to now is      102.3 secs

     total energy              =    -258.20988079 Ry
     estimated scf accuracy    <       0.00000428 Ry

     total magnetization       =     7.00 Bohr mag/cell
     absolute magnetization    =     7.02 Bohr mag/cell

     iteration #100     ecut=   300.00 Ry     beta= 0.20
     Davidson diagonalization with overlap
     ethr =  1.12E-08,  avg # of iterations =  1.5

     total cpu time spent up to now is      103.3 secs

     total energy              =    -258.20988487 Ry
     estimated scf accuracy    <       0.00000511 Ry

     total magnetization       =     7.00 Bohr mag/cell
     absolute magnetization    =     7.02 Bohr mag/cell

     iteration #101     ecut=   300.00 Ry     beta= 0.20
     Davidson diagonalization with overlap
     ethr =  1.12E-08,  avg # of iterations = 10.5

     total cpu time spent up to now is      104.6 secs

     total energy              =    -258.20990326 Ry
     estimated scf accuracy    <       0.00001202 Ry

     total magnetization       =     7.00 Bohr mag/cell
     absolute magnetization    =     7.02 Bohr mag/cell

     iteration #102     ecut=   300.00 Ry     beta= 0.20
     Davidson diagonalization with overlap
     ethr =  1.12E-08,  avg # of iterations =  8.0

     total cpu time spent up to now is      105.9 secs

     total energy              =    -258.20989168 Ry
     estimated scf accuracy    <       0.00000926 Ry

     total magnetization       =     7.00 Bohr mag/cell
     absolute magnetization    =     7.02 Bohr mag/cell

     iteration #103     ecut=   300.00 Ry     beta= 0.20
     Davidson diagonalization with overlap
     c_bands:  1 eigenvalues not converged
     ethr =  1.12E-08,  avg # of iterations = 11.0

     total cpu time spent up to now is      107.2 secs

     total energy              =    -258.20990128 Ry
     estimated scf accuracy    <       0.00002212 Ry

     total magnetization       =     7.00 Bohr mag/cell
     absolute magnetization    =     7.02 Bohr mag/cell

     iteration #104     ecut=   300.00 Ry     beta= 0.20
     Davidson diagonalization with overlap
     ethr =  1.12E-08,  avg # of iterations =  2.0

     total cpu time spent up to now is      108.2 secs

     total energy              =    -258.20989408 Ry
     estimated scf accuracy    <       0.00002159 Ry

     total magnetization       =     7.00 Bohr mag/cell
     absolute magnetization    =     7.02 Bohr mag/cell

     iteration #105     ecut=   300.00 Ry     beta= 0.20
     Davidson diagonalization with overlap
     ethr =  1.12E-08,  avg # of iterations =  2.0

     total cpu time spent up to now is      109.2 secs

     total energy              =    -258.20988888 Ry
     estimated scf accuracy    <       0.00001193 Ry

     total magnetization       =     7.00 Bohr mag/cell
     absolute magnetization    =     7.02 Bohr mag/cell

     iteration #106     ecut=   300.00 Ry     beta= 0.20
     Davidson diagonalization with overlap
     c_bands:  1 eigenvalues not converged
     ethr =  1.12E-08,  avg # of iterations = 10.5

     total cpu time spent up to now is      110.4 secs

     total energy              =    -258.20988540 Ry
     estimated scf accuracy    <       0.00001235 Ry

     total magnetization       =     7.00 Bohr mag/cell
     absolute magnetization    =     7.02 Bohr mag/cell

     iteration #107     ecut=   300.00 Ry     beta= 0.20
     Davidson diagonalization with overlap
     c_bands:  1 eigenvalues not converged
     ethr =  1.12E-08,  avg # of iterations = 11.0

     total cpu time spent up to now is      111.6 secs

     total energy              =    -258.20987321 Ry
     estimated scf accuracy    <       0.00000637 Ry

     total magnetization       =     7.00 Bohr mag/cell
     absolute magnetization    =     7.02 Bohr mag/cell

     iteration #108     ecut=   300.00 Ry     beta= 0.20
     Davidson diagonalization with overlap
     ethr =  1.12E-08,  avg # of iterations =  7.5

     total cpu time spent up to now is      112.9 secs

     total energy              =    -258.20981880 Ry
     estimated scf accuracy    <       0.00000443 Ry

     total magnetization       =     7.00 Bohr mag/cell
     absolute magnetization    =     7.02 Bohr mag/cell

     iteration #109     ecut=   300.00 Ry     beta= 0.20
     Davidson diagonalization with overlap
     ethr =  1.12E-08,  avg # of iterations =  8.5

     total cpu time spent up to now is      114.2 secs

     total energy              =    -258.20992811 Ry
     estimated scf accuracy    <       0.00000382 Ry

     total magnetization       =     7.00 Bohr mag/cell
     absolute magnetization    =     7.02 Bohr mag/cell

     iteration #110     ecut=   300.00 Ry     beta= 0.20
     Davidson diagonalization with overlap
     ethr =  1.12E-08,  avg # of iterations =  1.5

     total cpu time spent up to now is      115.1 secs

     total energy              =    -258.20992558 Ry
     estimated scf accuracy    <       0.00000324 Ry

     total magnetization       =     7.00 Bohr mag/cell
     absolute magnetization    =     7.02 Bohr mag/cell

     iteration #111     ecut=   300.00 Ry     beta= 0.20
     Davidson diagonalization with overlap
     ethr =  1.12E-08,  avg # of iterations =  6.0

     total cpu time spent up to now is      116.2 secs

     total energy              =    -258.20993271 Ry
     estimated scf accuracy    <       0.00000672 Ry

     total magnetization       =     7.00 Bohr mag/cell
     absolute magnetization    =     7.02 Bohr mag/cell

     iteration #112     ecut=   300.00 Ry     beta= 0.20
     Davidson diagonalization with overlap
     ethr =  1.12E-08,  avg # of iterations =  6.0

     total cpu time spent up to now is      117.3 secs

     total energy              =    -258.20993209 Ry
     estimated scf accuracy    <       0.00000613 Ry

     total magnetization       =     7.00 Bohr mag/cell
     absolute magnetization    =     7.02 Bohr mag/cell

     iteration #113     ecut=   300.00 Ry     beta= 0.20
     Davidson diagonalization with overlap
     ethr =  1.12E-08,  avg # of iterations =  6.5

     negative rho (up, down):  1.979E-08 4.186E-09

     total cpu time spent up to now is      118.4 secs

     total energy              =    -258.20992999 Ry
     estimated scf accuracy    <       0.00000462 Ry

     total magnetization       =     7.00 Bohr mag/cell
     absolute magnetization    =     7.02 Bohr mag/cell

     iteration #114     ecut=   300.00 Ry     beta= 0.20
     Davidson diagonalization with overlap
     ethr =  1.12E-08,  avg # of iterations =  7.0

     total cpu time spent up to now is      119.7 secs

     total energy              =    -258.20996172 Ry
     estimated scf accuracy    <       0.00000584 Ry

     total magnetization       =     7.00 Bohr mag/cell
     absolute magnetization    =     7.02 Bohr mag/cell

     iteration #115     ecut=   300.00 Ry     beta= 0.20
     Davidson diagonalization with overlap
     ethr =  1.12E-08,  avg # of iterations =  3.5

     total cpu time spent up to now is      120.7 secs

     total energy              =    -258.20996251 Ry
     estimated scf accuracy    <       0.00000353 Ry

     total magnetization       =     7.00 Bohr mag/cell
     absolute magnetization    =     7.02 Bohr mag/cell

     iteration #116     ecut=   300.00 Ry     beta= 0.20
     Davidson diagonalization with overlap
     ethr =  1.12E-08,  avg # of iterations =  6.5

     total cpu time spent up to now is      121.9 secs

     total energy              =    -258.20993982 Ry
     estimated scf accuracy    <       0.00000915 Ry

     total magnetization       =     7.00 Bohr mag/cell
     absolute magnetization    =     7.02 Bohr mag/cell

     iteration #117     ecut=   300.00 Ry     beta= 0.20
     Davidson diagonalization with overlap
     ethr =  1.12E-08,  avg # of iterations =  6.0

     total cpu time spent up to now is      123.0 secs

     total energy              =    -258.20995693 Ry
     estimated scf accuracy    <       0.00000519 Ry

     total magnetization       =     7.00 Bohr mag/cell
     absolute magnetization    =     7.02 Bohr mag/cell

     iteration #118     ecut=   300.00 Ry     beta= 0.20
     Davidson diagonalization with overlap
     ethr =  1.12E-08,  avg # of iterations =  1.5

     total cpu time spent up to now is      124.0 secs

     total energy              =    -258.20992639 Ry
     estimated scf accuracy    <       0.00000375 Ry

     total magnetization       =     7.00 Bohr mag/cell
     absolute magnetization    =     7.02 Bohr mag/cell

     iteration #119     ecut=   300.00 Ry     beta= 0.20
     Davidson diagonalization with overlap
     ethr =  1.12E-08,  avg # of iterations =  6.5

     total cpu time spent up to now is      125.2 secs

     total energy              =    -258.20992616 Ry
     estimated scf accuracy    <       0.00000626 Ry

     total magnetization       =     7.00 Bohr mag/cell
     absolute magnetization    =     7.02 Bohr mag/cell

     iteration #120     ecut=   300.00 Ry     beta= 0.20
     Davidson diagonalization with overlap
     ethr =  1.12E-08,  avg # of iterations =  6.5

     total cpu time spent up to now is      126.3 secs

     total energy              =    -258.20993161 Ry
     estimated scf accuracy    <       0.00001092 Ry

     total magnetization       =     7.00 Bohr mag/cell
     absolute magnetization    =     7.02 Bohr mag/cell

     iteration #121     ecut=   300.00 Ry     beta= 0.20
     Davidson diagonalization with overlap
     ethr =  1.12E-08,  avg # of iterations =  6.0

     total cpu time spent up to now is      127.4 secs

     total energy              =    -258.20993942 Ry
     estimated scf accuracy    <       0.00000345 Ry

     total magnetization       =     7.00 Bohr mag/cell
     absolute magnetization    =     7.02 Bohr mag/cell

     iteration #122     ecut=   300.00 Ry     beta= 0.20
     Davidson diagonalization with overlap
     ethr =  1.12E-08,  avg # of iterations =  1.5

     total cpu time spent up to now is      128.3 secs

     total energy              =    -258.20993597 Ry
     estimated scf accuracy    <       0.00000289 Ry

     total magnetization       =     7.00 Bohr mag/cell
     absolute magnetization    =     7.02 Bohr mag/cell

     iteration #123     ecut=   300.00 Ry     beta= 0.20
     Davidson diagonalization with overlap
     ethr =  1.12E-08,  avg # of iterations =  6.5

     total cpu time spent up to now is      129.6 secs

     total energy              =    -258.20971888 Ry
     estimated scf accuracy    <       0.00000506 Ry

     total magnetization       =     7.00 Bohr mag/cell
     absolute magnetization    =     7.02 Bohr mag/cell

     iteration #124     ecut=   300.00 Ry     beta= 0.20
     Davidson diagonalization with overlap
     c_bands:  1 eigenvalues not converged
     ethr =  1.12E-08,  avg # of iterations = 13.0

     total cpu time spent up to now is      131.1 secs

     total energy              =    -258.21000714 Ry
     estimated scf accuracy    <       0.00002333 Ry

     total magnetization       =     7.00 Bohr mag/cell
     absolute magnetization    =     7.02 Bohr mag/cell

     iteration #125     ecut=   300.00 Ry     beta= 0.20
     Davidson diagonalization with overlap
     ethr =  1.12E-08,  avg # of iterations =  7.0

     total cpu time spent up to now is      132.4 secs

     total energy              =    -258.20985539 Ry
     estimated scf accuracy    <       0.00003481 Ry

     total magnetization       =     7.00 Bohr mag/cell
     absolute magnetization    =     7.02 Bohr mag/cell

     iteration #126     ecut=   300.00 Ry     beta= 0.20
     Davidson diagonalization with overlap
     ethr =  1.12E-08,  avg # of iterations =  9.0

     total cpu time spent up to now is      133.7 secs

     total energy              =    -258.20975702 Ry
     estimated scf accuracy    <       0.00000537 Ry

     total magnetization       =     7.00 Bohr mag/cell
     absolute magnetization    =     7.02 Bohr mag/cell

     iteration #127     ecut=   300.00 Ry     beta= 0.20
     Davidson diagonalization with overlap
     ethr =  1.12E-08,  avg # of iterations =  9.5

     total cpu time spent up to now is      135.1 secs

     total energy              =    -258.20994350 Ry
     estimated scf accuracy    <       0.00000575 Ry

     total magnetization       =     7.00 Bohr mag/cell
     absolute magnetization    =     7.02 Bohr mag/cell

     iteration #128     ecut=   300.00 Ry     beta= 0.20
     Davidson diagonalization with overlap
     ethr =  1.12E-08,  avg # of iterations =  5.5

     total cpu time spent up to now is      136.2 secs

     total energy              =    -258.20994888 Ry
     estimated scf accuracy    <       0.00000505 Ry

     total magnetization       =     7.00 Bohr mag/cell
     absolute magnetization    =     7.02 Bohr mag/cell

     iteration #129     ecut=   300.00 Ry     beta= 0.20
     Davidson diagonalization with overlap
     ethr =  1.12E-08,  avg # of iterations =  1.5

     total cpu time spent up to now is      137.2 secs

     total energy              =    -258.20990794 Ry
     estimated scf accuracy    <       0.00001388 Ry

     total magnetization       =     7.00 Bohr mag/cell
     absolute magnetization    =     7.02 Bohr mag/cell

     iteration #130     ecut=   300.00 Ry     beta= 0.20
     Davidson diagonalization with overlap
     ethr =  1.12E-08,  avg # of iterations =  7.0

     total cpu time spent up to now is      138.4 secs

     total energy              =    -258.20992974 Ry
     estimated scf accuracy    <       0.00000854 Ry

     total magnetization       =     7.00 Bohr mag/cell
     absolute magnetization    =     7.02 Bohr mag/cell

     iteration #131     ecut=   300.00 Ry     beta= 0.20
     Davidson diagonalization with overlap
     ethr =  1.12E-08,  avg # of iterations =  7.0

     total cpu time spent up to now is      139.5 secs

     total energy              =    -258.20989305 Ry
     estimated scf accuracy    <       0.00000347 Ry

     total magnetization       =     7.00 Bohr mag/cell
     absolute magnetization    =     7.02 Bohr mag/cell

     iteration #132     ecut=   300.00 Ry     beta= 0.20
     Davidson diagonalization with overlap
     ethr =  1.12E-08,  avg # of iterations =  7.5

     total cpu time spent up to now is      140.8 secs

     total energy              =    -258.20994738 Ry
     estimated scf accuracy    <       0.00000292 Ry

     total magnetization       =     7.00 Bohr mag/cell
     absolute magnetization    =     7.02 Bohr mag/cell

     iteration #133     ecut=   300.00 Ry     beta= 0.20
     Davidson diagonalization with overlap
     ethr =  1.12E-08,  avg # of iterations =  6.5

     total cpu time spent up to now is      142.0 secs

     total energy              =    -258.20988208 Ry
     estimated scf accuracy    <       0.00000332 Ry

     total magnetization       =     7.00 Bohr mag/cell
     absolute magnetization    =     7.02 Bohr mag/cell

     iteration #134     ecut=   300.00 Ry     beta= 0.20
     Davidson diagonalization with overlap
     ethr =  1.12E-08,  avg # of iterations =  8.5

     total cpu time spent up to now is      143.3 secs

     total energy              =    -258.20999085 Ry
     estimated scf accuracy    <       0.00000525 Ry

     total magnetization       =     7.00 Bohr mag/cell
     absolute magnetization    =     7.02 Bohr mag/cell

     iteration #135     ecut=   300.00 Ry     beta= 0.20
     Davidson diagonalization with overlap
     ethr =  1.12E-08,  avg # of iterations =  7.0

     total cpu time spent up to now is      144.4 secs

     total energy              =    -258.20997919 Ry
     estimated scf accuracy    <       0.00000620 Ry

     total magnetization       =     7.00 Bohr mag/cell
     absolute magnetization    =     7.02 Bohr mag/cell

     iteration #136     ecut=   300.00 Ry     beta= 0.20
     Davidson diagonalization with overlap
     ethr =  1.12E-08,  avg # of iterations =  7.5

     total cpu time spent up to now is      145.6 secs

     total energy              =    -258.20958545 Ry
     estimated scf accuracy    <       0.00001270 Ry

     total magnetization       =     7.00 Bohr mag/cell
     absolute magnetization    =     7.02 Bohr mag/cell

     iteration #137     ecut=   300.00 Ry     beta= 0.20
     Davidson diagonalization with overlap
     c_bands:  1 eigenvalues not converged
     ethr =  1.12E-08,  avg # of iterations = 13.0

     total cpu time spent up to now is      147.3 secs

     total energy              =    -258.20986882 Ry
     estimated scf accuracy    <       0.00024834 Ry

     total magnetization       =     7.00 Bohr mag/cell
     absolute magnetization    =     7.01 Bohr mag/cell

     iteration #138     ecut=   300.00 Ry     beta= 0.20
     Davidson diagonalization with overlap
     ethr =  1.12E-08,  avg # of iterations =  9.0

     total cpu time spent up to now is      148.6 secs

     total energy              =    -258.21006251 Ry
     estimated scf accuracy    <       0.00015073 Ry

     total magnetization       =     7.00 Bohr mag/cell
     absolute magnetization    =     7.02 Bohr mag/cell

     iteration #139     ecut=   300.00 Ry     beta= 0.20
     Davidson diagonalization with overlap
     ethr =  1.12E-08,  avg # of iterations =  6.5

     total cpu time spent up to now is      149.8 secs

     total energy              =    -258.21006237 Ry
     estimated scf accuracy    <       0.00007667 Ry

     total magnetization       =     7.00 Bohr mag/cell
     absolute magnetization    =     7.02 Bohr mag/cell

     iteration #140     ecut=   300.00 Ry     beta= 0.20
     Davidson diagonalization with overlap
     ethr =  1.12E-08,  avg # of iterations =  6.5

     total cpu time spent up to now is      151.0 secs

     total energy              =    -258.21002888 Ry
     estimated scf accuracy    <       0.00005667 Ry

     total magnetization       =     7.00 Bohr mag/cell
     absolute magnetization    =     7.02 Bohr mag/cell

     iteration #141     ecut=   300.00 Ry     beta= 0.20
     Davidson diagonalization with overlap
     ethr =  1.12E-08,  avg # of iterations =  6.0

     total cpu time spent up to now is      152.1 secs

     total energy              =    -258.21002201 Ry
     estimated scf accuracy    <       0.00016190 Ry

     total magnetization       =     7.00 Bohr mag/cell
     absolute magnetization    =     7.02 Bohr mag/cell

     iteration #142     ecut=   300.00 Ry     beta= 0.20
     Davidson diagonalization with overlap
     ethr =  1.12E-08,  avg # of iterations =  8.0

     total cpu time spent up to now is      153.4 secs

     total energy              =    -258.21001601 Ry
     estimated scf accuracy    <       0.00000628 Ry

     total magnetization       =     7.00 Bohr mag/cell
     absolute magnetization    =     7.02 Bohr mag/cell

     iteration #143     ecut=   300.00 Ry     beta= 0.20
     Davidson diagonalization with overlap
     ethr =  1.12E-08,  avg # of iterations =  8.5

     total cpu time spent up to now is      154.8 secs

     total energy              =    -258.21010347 Ry
     estimated scf accuracy    <       0.00000107 Ry

     total magnetization       =     7.00 Bohr mag/cell
     absolute magnetization    =     7.02 Bohr mag/cell

     iteration #144     ecut=   300.00 Ry     beta= 0.20
     Davidson diagonalization with overlap
     ethr =  5.63E-09,  avg # of iterations =  6.5

     total cpu time spent up to now is      155.9 secs

     total energy              =    -258.21010145 Ry
     estimated scf accuracy    <       0.00001058 Ry

     total magnetization       =     7.00 Bohr mag/cell
     absolute magnetization    =     7.02 Bohr mag/cell

     iteration #145     ecut=   300.00 Ry     beta= 0.20
     Davidson diagonalization with overlap
     ethr =  5.63E-09,  avg # of iterations =  7.0

     total cpu time spent up to now is      157.1 secs

     total energy              =    -258.21010638 Ry
     estimated scf accuracy    <       0.00000984 Ry

     total magnetization       =     7.00 Bohr mag/cell
     absolute magnetization    =     7.02 Bohr mag/cell

     iteration #146     ecut=   300.00 Ry     beta= 0.20
     Davidson diagonalization with overlap
     ethr =  5.63E-09,  avg # of iterations =  6.0

     total cpu time spent up to now is      158.3 secs

     total energy              =    -258.21011263 Ry
     estimated scf accuracy    <       0.00000265 Ry

     total magnetization       =     7.00 Bohr mag/cell
     absolute magnetization    =     7.02 Bohr mag/cell

     iteration #147     ecut=   300.00 Ry     beta= 0.20
     Davidson diagonalization with overlap
     ethr =  5.63E-09,  avg # of iterations =  6.5
 
     Magnetic moment per site  (integrated on atomic sphere of radius R)
     atom   1 (R=0.413)  charge= 18.9541  magn=  6.9765

     total cpu time spent up to now is      159.4 secs

     End of self-consistent calculation

 ------ SPIN UP ------------


          k = 0.0000 0.0000 0.0000 (295945 PWs)   bands (ev):

   -48.4102 -25.5318 -25.1325 -25.0501 -12.0714 -12.0378 -11.7568 -11.7246
   -11.2662 -11.1365  -9.4707  -3.4703  -1.4629  -1.0345  -1.0265  -0.8950
    -0.7090  -0.6596  -0.6415  -0.6202

 ------ SPIN DOWN ----------


          k = 0.0000 0.0000 0.0000 (295945 PWs)   bands (ev):

   -45.3528 -23.4753 -23.2532 -22.9831  -4.5075  -2.7307  -2.5954  -0.4268
    -0.3865  -0.2568  -0.1910  -0.1009   0.0126   0.0570   0.1471   0.2093
     0.7981   1.0937   1.3414   1.5165

     highest occupied, lowest unoccupied level (ev):    -1.4629   -2.5954

!    total energy              =    -258.21011528 Ry
     estimated scf accuracy    <       0.00000052 Ry

     The total energy is the sum of the following terms:
     one-electron contribution =    -364.08576854 Ry
     hartree contribution      =     188.17210554 Ry
     xc contribution           =     -28.09471520 Ry
     ewald contribution        =     -54.20173708 Ry

     total magnetization       =     7.00 Bohr mag/cell
     absolute magnetization    =     7.02 Bohr mag/cell

     convergence has been achieved in 147 iterations

     Writing all to output data dir pwscf_output/pwscf.save/
 
     init_run     :      1.35s CPU      1.76s WALL (       1 calls)
     electrons    :    156.25s CPU    157.55s WALL (       1 calls)

     Called by init_run:
     wfcinit      :      0.11s CPU      0.30s WALL (       1 calls)
     potinit      :      0.34s CPU      0.47s WALL (       1 calls)
     hinit0       :      0.36s CPU      0.42s WALL (       1 calls)

     Called by electrons:
     c_bands      :     86.33s CPU     86.94s WALL (     147 calls)
     sum_band     :     20.34s CPU     20.50s WALL (     147 calls)
     v_of_rho     :     41.07s CPU     41.38s WALL (     148 calls)
     mix_rho      :      7.93s CPU      8.01s WALL (     147 calls)

     Called by c_bands:
     init_us_2    :      0.89s CPU      0.90s WALL (     588 calls)
     init_us_2:cp :      0.88s CPU      0.90s WALL (     588 calls)
     regterg      :     83.26s CPU     83.82s WALL (     294 calls)

     Called by *egterg:
     rdiaghg      :      0.47s CPU      0.50s WALL (    1422 calls)
     h_psi        :     73.12s CPU     73.58s WALL (    1424 calls)
     g_psi        :      0.23s CPU      0.24s WALL (    1130 calls)

     Called by h_psi:
     h_psi:calbec :      1.80s CPU      1.83s WALL (    1424 calls)
     vloc_psi     :     70.26s CPU     70.68s WALL (    1424 calls)
     add_vuspsi   :      0.92s CPU      0.92s WALL (    1424 calls)

     General routines
     calbec       :      1.80s CPU      1.82s WALL (    1424 calls)
     fft          :     22.73s CPU     22.94s WALL (    2216 calls)
     ffts         :      2.39s CPU      2.41s WALL (     294 calls)
     fftw         :     80.72s CPU     81.22s WALL (   17240 calls)
 
     Parallel routines
 
     PWSCF        :   2m37.83s CPU   2m40.10s WALL

 
   This run was terminated on:  14:24: 8   5Apr2022            

=------------------------------------------------------------------------------=
   JOB DONE.
=------------------------------------------------------------------------------=
