
 Primary working directories    : /global/cscratch1/sd/haihan
 Secondary working directories  : /global/cscratch1/sd/haihan
 Wavefunction directory         : /global/homes/h/haihan/wfu/
 Main file repository           : /global/cscratch1/sd/haihan/

 SHA1      : 19cd028119e0e09f93f0674bd8af7968d9b3eff6
 NAME      : 2015.1.36
 ARCHNAME  : linux/x86_64
 FC        : /opt/cray/pe/craype/2.5.14/bin/ftn
 BLASLIB   : -L/opt/intel/compilers_and_libraries_2018.1.163/linux/mkl/lib/intel64 -Wl,-_start-group -lmkl_intel_ilp64 -lmkl_intel_thread -lmkl_core -Wl,-_end-group -liomp5
 id        : lbl

 Nodes     nprocs
 nid00284    11
 Number of processes for MPI-2 version of Molpro:   nprocs(total)=   12   nprocs(compute)=   11   nprocs(helper)=    1

 Using customized tuning parameters: mindgm=7; mindgv=16; mindgc=1; mindgr=1; noblas=0; minvec=7
 default implementation of scratch files=sf  

 ***,Calculation for Y atom, singlet and triplet
 memory,1,g
 
 gthresh,twoint=1.0E-12
 
 
 basis={
 ecp,O,2,1,0
 3
 1,  12.30997,  6.000000
 3,  14.76962,  73.85984
 2,  13.71419, -47.87600
 1
 2,  13.65512,  85.86406
 Including file /global/u2/h/haihan/Research/ECP/f_group_element_ecps/Y/Molpro/molecule/bias_O/O-aug-cc-pwCVTZ.basis
 }
 
 
 
 geometry={
    1
    Oxygen
    O 0.0 0.0 0.0
 }
 {rhf;
  start,atden
  wf,6,7,2;
  occ,1,1,1,0,1,0,0,0;
  closed,1,1,0,0,0,0,0,0;
 }
 O_scf=energy
 _CC_NORM_MAX=2.0
 {rccsd(t);maxit,100;core}
 O_ccsd=energy
 
 
 table,1.10,O_ccsd
 save
 type,csv
 

 Variables initialized (889), CPU time= 0.00 sec
 Commands  initialized (702), CPU time= 0.02 sec, 572 directives.
 Default parameters read. Elapsed time= 0.13 sec

 Checking input...
 Passed
1


                                         ***  PROGRAM SYSTEM MOLPRO  ***
                                       Copyright, TTI GmbH Stuttgart, 2015
                                    Version 2015.1 linked Dec 29 2018 15:55:43


 **********************************************************************************************************************************
 LABEL *   Calculation for Y atom, singlet and triplet                                   
  64 bit mpp version                                                                     DATE: 03-Sep-22          TIME: 21:22:25  
 **********************************************************************************************************************************

 SHA1:             19cd028119e0e09f93f0674bd8af7968d9b3eff6
 **********************************************************************************************************************************

 THRESHOLDS:

 ZERO    =  1.00D-12  ONEINT  =  1.00D-12  TWOINT  =  1.00D-12  PREFAC  =  1.00D-14  LOCALI  =  1.00D-09  EORDER  =  1.00D-04
 ENERGY  =  0.00D+00  ETEST   =  0.00D+00  EDENS   =  0.00D+00  THRDEDEF=  1.00D-06  GRADIENT=  1.00D-02  STEP    =  1.00D-03
 ORBITAL =  1.00D-05  CIVEC   =  1.00D-05  COEFF   =  1.00D-04  PRINTCI =  5.00D-02  PUNCHCI =  9.90D+01  OPTGRAD =  3.00D-04
 OPTENERG=  1.00D-06  OPTSTEP =  3.00D-04  THRGRAD =  1.00D-10  COMPRESS=  1.00D-11  VARMIN  =  1.00D-07  VARMAX  =  1.00D-03
 THRDOUB =  0.00D+00  THRDIV  =  1.00D-05  THRRED  =  1.00D-07  THRPSP  =  1.00D+00  THRDC   =  1.00D-10  THRCS   =  1.00D-10
 THRNRM  =  1.00D-08  THREQ   =  0.00D+00  THRDE   =  1.00D+00  THRREF  =  1.00D-05  SPARFAC =  1.00D+00  THRDLP  =  1.00D-07
 THRDIA  =  1.00D-10  THRDLS  =  1.00D-07  THRGPS  =  0.00D+00  THRKEX  =  0.00D+00  THRDIS  =  2.00D-01  THRVAR  =  1.00D-10
 THRLOC  =  1.00D-06  THRGAP  =  1.00D-06  THRLOCT = -1.00D+00  THRGAPT = -1.00D+00  THRORB  =  1.00D-06  THRMLTP =  0.00D+00
 THRCPQCI=  1.00D-10  KEXTA   =  0.00D+00  THRCOARS=  0.00D+00  SYMTOL  =  1.00D-06  GRADTOL =  1.00D-06  THROVL  =  1.00D-08
 THRORTH =  1.00D-08  GRID    =  1.00D-06  GRIDMAX =  1.00D-03  DTMAX   =  0.00D+00  THROCCDE=  1.00D-01  THROCCDE=  1.00D-01



 Variable memory set to 1000000000 words,  buffer space   230000 words

 SETTING BASIS          =    USERDEF

Geometry recognized as XYZ



 Recomputing integrals since basis changed


 Using spherical harmonics



 PROGRAM * SEWARD (Integral evaluation for generally contracted gaussian basis sets)     Author: Roland Lindh, 1990

 Geometry written to block  1 of record 700

 Orientation using atomic masses  
 Molecule type: Atom
 Symmetry elements: X,Y,Z
 Rotational constants:       0.0000000      0.0000000      0.0000000 GHz  (calculated with average atomic masses)

 Point group  D2h 



 ATOMIC COORDINATES

 NR  ATOM    CHARGE       X              Y              Z

   1  O       6.00    0.000000000    0.000000000    0.000000000

 NUCLEAR CHARGE:                    6
 NUMBER OF PRIMITIVE AOS:          81
 NUMBER OF SYMMETRY AOS:           71
 NUMBER OF CONTRACTIONS:           71   (  21Ag  +  12B3u +  12B2u +   4B1g +  12B1u +   4B2g +   4B3g +   2Au  )
 NUMBER OF CORE ORBITALS:           0   (   0Ag  +   0B3u +   0B2u +   0B1g +   0B1u +   0B2g +   0B3g +   0Au  )
 NUMBER OF VALENCE ORBITALS:        4   (   1Ag  +   1B3u +   1B2u +   0B1g +   1B1u +   0B2g +   0B3g +   0Au  )


 NUCLEAR REPULSION ENERGY    0.00000000

 EXTRA SYMMETRY OF AOS IN SYMMETRY 1:   1 1 1 1 1 1 1 1 1 1   1 1 1 2 3 2 3 2 3 2   3
 EXTRA SYMMETRY OF AOS IN SYMMETRY 2:   1 1 1 1 1 1 1 1 2 3   2 3
 EXTRA SYMMETRY OF AOS IN SYMMETRY 3:   1 1 1 1 1 1 1 1 2 3   2 3
 EXTRA SYMMETRY OF AOS IN SYMMETRY 5:   1 1 1 1 1 1 1 1 2 3   2 3

 Eigenvalues of metric

         1 0.744E-04 0.110E-02 0.105E-01 0.299E-01 0.669E-01 0.138E+00 0.243E+00 0.243E+00
         2 0.343E-02 0.497E-01 0.112E+00 0.328E+00 0.447E+00 0.447E+00 0.772E+00 0.131E+01
         3 0.343E-02 0.497E-01 0.112E+00 0.328E+00 0.447E+00 0.447E+00 0.772E+00 0.131E+01
         4 0.243E+00 0.623E+00 0.120E+01 0.193E+01
         5 0.343E-02 0.497E-01 0.112E+00 0.328E+00 0.447E+00 0.447E+00 0.772E+00 0.131E+01
         6 0.243E+00 0.623E+00 0.120E+01 0.193E+01
         7 0.243E+00 0.623E+00 0.120E+01 0.193E+01
         8 0.447E+00 0.155E+01


 Contracted 2-electron integrals neglected if value below      1.0D-12
 AO integral compression algorithm  1   Integral accuracy      1.0D-12

     6.029 MB (compressed) written to integral file ( 82.7%)

     Node minimum: 0.262 MB, node maximum: 1.049 MB


 NUMBER OF SORTED TWO-ELECTRON INTEGRALS:      41286.     BUFFER LENGTH:  32768
 NUMBER OF SEGMENTS:   1  SEGMENT LENGTH:      41286      RECORD LENGTH: 524288

 Memory used in sort:       0.60 MW

 SORT1 READ      886537. AND WROTE       32062. INTEGRALS IN      1 RECORDS. CPU TIME:     0.03 SEC, REAL TIME:     0.04 SEC
 SORT2 READ      360129. AND WROTE      465933. INTEGRALS IN     22 RECORDS. CPU TIME:     0.00 SEC, REAL TIME:     0.15 SEC

 Node minimum:       39357.  Node maximum:       49441. integrals

 OPERATOR DM      FOR CENTER  0  COORDINATES:    0.000000    0.000000    0.000000


 **********************************************************************************************************************************
 DATASETS  * FILE   NREC   LENGTH (MB)   RECORD NAMES
              1      19       19.91       500      610      700      900      950      970     1000      129      960     1100   
                                          VAR    BASINP    GEOM    SYMINP    ZMAT    AOBASIS   BASIS     P2S    ABASIS      S 
                                         1400     1410     1420     1200     1210     1080     1600     1650     1700   
                                           T        V       ECP      H0       H01     AOSYM     SMH    MOLCAS    OPER   

 PROGRAMS   *        TOTAL       INT
 CPU TIMES  *         1.05      0.43
 REAL TIME  *         2.24 SEC
 DISK USED  *        49.42 MB      
 GA USED    *         0.00 MB       (max)       0.00 MB       (current)
 **********************************************************************************************************************************


 PROGRAM * RHF-SCF (OPEN SHELL)       Authors: W. Meyer, H.-J. Werner


 NUMBER OF ELECTRONS:       4+    2-    SPACE SYMMETRY=7    SPIN SYMMETRY: Triplet 
 CONVERGENCE THRESHOLDS:    1.00E-05 (Density)    1.00E-07 (Energy)
 MAX. NUMBER OF ITERATIONS:       60
 INTERPOLATION TYPE:            DIIS
 INTERPOLATION STEPS:              2 (START)      1 (STEP)
 LEVEL SHIFTS:                 -0.60 (CLOSED) -0.30 (OPEN) 

 Number of closed-shell orbitals:    2 (   1   1   0   0   0   0   0   0 )
 Number of open-shell orbitals:      2 (   0   0   1   0   1   0   0   0 )


 Orbital guess generated from atomic densities. Full valence occupancy:    1   1   1   0   1   0   0   0


 Molecular orbital dump at record        2100.2

 ITERATION    DDIFF          GRAD             ENERGY        2-EL.EN.            DIPOLE MOMENTS         DIIS   ORB.
    1      0.000D+00      0.000D+00       -15.66039819     20.330539    0.00000    0.00000    0.00000    0    start
    2      0.000D+00      0.193D-01       -15.68536969     21.181375    0.00000    0.00000    0.00000    1    diag,B
    3      0.509D-02      0.458D-02       -15.68662570     21.212592    0.00000    0.00000    0.00000    2    diag,B
    4      0.121D-02      0.176D-02       -15.68700232     21.242230    0.00000    0.00000    0.00000    3    diag,B
    5      0.804D-03      0.454D-03       -15.68703412     21.246622    0.00000    0.00000    0.00000    4    diag,B
    6      0.362D-03      0.859D-04       -15.68703499     21.245994    0.00000    0.00000    0.00000    5    diag,B
    7      0.805D-04      0.174D-04       -15.68703503     21.245904    0.00000    0.00000    0.00000    6    fixocc
    8      0.168D-04      0.420D-05       -15.68703503     21.245849    0.00000    0.00000    0.00000    7    diag,B
    9      0.278D-05      0.153D-05       -15.68703503     21.245840    0.00000    0.00000    0.00000    0    orth

 Final alpha occupancy:   1   1   1   0   1   0   0   0
 Final beta  occupancy:   1   1   0   0   0   0   0   0

 !RHF STATE 1.7 Energy                -15.687035028488
 Nuclear energy                         0.00000000
 One-electron energy                  -26.30995504
 Two-electron energy                   10.62292001
 Virial quotient                       -1.32525448
 !RHF STATE 1.7 Dipole moment           0.00000000     0.00000000     0.00000000
 Dipole moment /Debye                   0.00000000     0.00000000     0.00000000

 Orbital energies:

         1.1          2.1          3.1
     -1.260913     0.149568     0.622341

         1.2          2.2          3.2
     -0.567541     0.162606     0.903976

         1.3          2.3          3.3
     -0.703601     0.153107     0.860919

         1.4          2.4
      0.638321     2.083577

         1.5          2.5          3.5
     -0.703601     0.153107     0.860919

         1.6          2.6
      0.638321     2.083577

         1.7          2.7
      0.622341     2.037085

         1.8          2.8
      2.017754     6.381289

 HOMO      1.2    -0.567541 =     -15.4436eV
 LUMO      2.1     0.149568 =       4.0700eV
 LUMO-HOMO         0.717110 =      19.5135eV


 **********************************************************************************************************************************
 DATASETS  * FILE   NREC   LENGTH (MB)   RECORD NAMES
              1      19       19.92       500      610      700      900      950      970     1000      129      960     1100   
                                          VAR    BASINP    GEOM    SYMINP    ZMAT    AOBASIS   BASIS     P2S    ABASIS      S 
                                         1400     1410     1420     1200     1210     1080     1600     1650     1700   
                                           T        V       ECP      H0       H01     AOSYM     SMH    MOLCAS    OPER   

              2       4        2.78       700     1000      520     2100   
                                         GEOM     BASIS   MCVARS     RHF  

 PROGRAMS   *        TOTAL       RHF       INT
 CPU TIMES  *         1.13      0.07      0.43
 REAL TIME  *         2.41 SEC
 DISK USED  *       300.95 MB      
 SF USED    *         0.00 MB      
 GA USED    *         0.00 MB       (max)       0.00 MB       (current)
 **********************************************************************************************************************************
 SETTING O_SCF          =       -15.68703503  AU                              
 SETTING _CC_NORM_MAX   =         2.00000000                                  


 PROGRAM * CCSD (Restricted open-shell coupled cluster)     Authors: C. Hampel, H.-J. Werner, 1991, M. Deegan, P.J. Knowles, 1992


 Convergence thresholds:  THRVAR = 1.00D-08  THRDEN = 1.00D-06

 CCSD(T)     terms to be evaluated (factor= 1.000)


 Number of closed-shell orbitals:   2 (   1   1   0   0   0   0   0   0 )
 Number of active  orbitals:        2 (   0   0   1   0   1   0   0   0 )
 Number of external orbitals:      67 (  20  11  11   4  11   4   4   2 )

 Memory could be reduced to 0.80 Mwords without degradation in triples

 Number of N-1 electron functions:               6
 Number of N-2 electron functions:              15
 Number of singly external CSFs:                86
 Number of doubly external CSFs:              7480
 Total number of CSFs:                        7566

 Molecular orbitals read from record     2100.2  Type=RHF/CANONICAL (state 1.7)

 Integral transformation finished. Total CPU:   0.01 sec, npass=  1  Memory used:   0.13 MW

 Starting RMP2 calculation

 Wavefunction is spin-projected

 ITER.      SQ.NORM     CORR.ENERGY   TOTAL ENERGY   ENERGY CHANGE        DEN1      VAR(S)    VAR(P)  DIIS     TIME
   1      1.03161141    -0.15876487   -15.84579990    -0.15876487    -0.00023742  0.13D-05  0.65D-04  1  1     0.01
   2      1.03177127    -0.15901599   -15.84605102    -0.00025112    -0.00000027  0.54D-08  0.86D-07  2  2     0.01
   3      1.03177488    -0.15901945   -15.84605448    -0.00000346    -0.00000000  0.12D-10  0.18D-09  3  3     0.02
   4      1.03177491    -0.15901945   -15.84605447     0.00000001    -0.00000000  0.17D-12  0.95D-12  4  4     0.02

 Norm of t1 vector:      0.03658768      S-energy:    -0.00425069      T1 diagnostic:  0.00055538
 Norm of t2 vector:      0.17445987      P-energy:    -0.15476875
                                         Alpha-Beta:  -0.11876912
                                         Alpha-Alpha: -0.03162570
                                         Beta-Beta:   -0.00437393

 Spin contamination <S**2-Sz**2-Sz>     0.00000000
  Reference energy                    -15.687035028488
  RHF-RMP2 correlation energy          -0.159019445096
 !RHF-RMP2 energy                     -15.846054473584
 (NB above energy spin projected)

 Starting RCCSD calculation

 ITER.      SQ.NORM     CORR.ENERGY   TOTAL ENERGY   ENERGY CHANGE        DEN1      VAR(S)    VAR(P)  DIIS     TIME
   1      1.03830275    -0.17093871   -15.85797374    -0.17093871    -0.00343790  0.27D-03  0.68D-03  1  1     0.02
   2      1.04150612    -0.17466350   -15.86169853    -0.00372479    -0.00016278  0.46D-04  0.33D-04  2  2     0.02
   3      1.04259571    -0.17526556   -15.86230059    -0.00060206    -0.00001282  0.59D-05  0.24D-05  3  3     0.03
   4      1.04290264    -0.17535965   -15.86239468    -0.00009409    -0.00000151  0.82D-06  0.29D-06  4  4     0.03
   5      1.04302503    -0.17539054   -15.86242557    -0.00003088    -0.00000006  0.27D-07  0.13D-07  5  5     0.04
   6      1.04303686    -0.17539066   -15.86242569    -0.00000013    -0.00000000  0.11D-08  0.56D-09  6  6     0.04

 Norm of t1 vector:      0.05622363      S-energy:    -0.00526741      T1 diagnostic:  0.00615773
                                                                       D1 diagnostic:  0.01184995
 Norm of t2 vector:      0.19968916      P-energy:    -0.17012325
                                         Alpha-Beta:  -0.13416250
                                         Alpha-Alpha: -0.03154425
                                         Beta-Beta:   -0.00441650

 Spin contamination <S**2-Sz**2-Sz>     0.00000000

 Memory could be reduced to 0.82 Mwords without degradation in triples
 

 RESULTS
 =======

  Reference energy                    -15.687035028488
  RCCSD singles energy                 -0.005267411568
  RCCSD pair energy                    -0.170123250860
  RCCSD correlation energy             -0.175390662428
  Triples (T) contribution             -0.003795268993
  Total correlation energy             -0.179185931422
 
  RHF-RCCSD energy                    -15.862425690916
  RHF-RCCSD[T] energy                 -15.866242147977
  RHF-RCCSD-T energy                  -15.866189196562
 !RHF-RCCSD(T) energy                 -15.866220959910

 Program statistics:

 Available memory in ccsd:               999999732
 Min. memory needed in ccsd:                 46789
 Max. memory used in ccsd:                   53185
 Max. memory used in cckext:                 75703 ( 6 integral passes)
 Max. memory used in cckint:                130342 ( 1 integral passes)



 **********************************************************************************************************************************
 DATASETS  * FILE   NREC   LENGTH (MB)   RECORD NAMES
              1      19       19.92       500      610      700      900      950      970     1000      129      960     1100   
                                          VAR    BASINP    GEOM    SYMINP    ZMAT    AOBASIS   BASIS     P2S    ABASIS      S 
                                         1400     1410     1420     1200     1210     1080     1600     1650     1700   
                                           T        V       ECP      H0       H01     AOSYM     SMH    MOLCAS    OPER   

              2       4        2.78       700     1000      520     2100   
                                         GEOM     BASIS   MCVARS     RHF  

 PROGRAMS   *        TOTAL  RCCSD(T)       RHF       INT
 CPU TIMES  *         1.25      0.12      0.07      0.43
 REAL TIME  *         2.74 SEC
 DISK USED  *       309.78 MB      
 SF USED    *         5.53 MB      
 GA USED    *         0.00 MB       (max)       0.00 MB       (current)
 **********************************************************************************************************************************
 SETTING O_CCSD         =       -15.86622096  AU                              
 Output type csv         
                                                                                                                                                                                                                                                                

  1.10,O_CCSD
   1.1,   -15.86622096
                                                  

 RCCSD(T)/USERDEF energy=    -15.866220959910

        RCCSD(T)        RHF-SCF 
    -15.86622096    -15.68703503
 **********************************************************************************************************************************
 Molpro calculation terminated
 Variable memory released
