<?xml version="1.0"?>
<molpro xmlns="http://www.molpro.net/schema/molpro-output"
  xmlns:xsd="http://www.w3.org/1999/XMLSchema"
  xmlns:cml="http://www.xml-cml.org/schema"
  xmlns:stm="http://www.xml-cml.org/schema"
  xmlns:xhtml="http://www.w3.org/1999/xhtml">
 <!--

 Nodes     nprocs
 nid00918    11
 Number of processes for MPI-2 version of Molpro:   nprocs(total)=   12   nprocs(compute)=   11   nprocs(helper)=    1

 Using customized tuning parameters: mindgm=7; mindgv=16; mindgc=1; mindgr=1; noblas=0; minvec=7
 default implementation of scratch files=sf

 --><job>
  <!--

 Variables initialized (889), CPU time= 0.01 sec
 Commands  initialized (702), CPU time= 0.01 sec, 572 directives.
 Default parameters read. Elapsed time= 0.11 sec

 Checking input...
 Passed
1


                                         ***  PROGRAM SYSTEM MOLPRO  ***
                                       Copyright, TTI GmbH Stuttgart, 2015
                                    Version 2015.1 linked Dec 29 2018 15:55:43


 **********************************************************************************************************************************
 LABEL *   Calculation for Lu atom, singlet and triplet
  64 bit mpp version                                                                     DATE: 09-May-23          TIME: 09:38:20
 **********************************************************************************************************************************

 SHA1:             19cd028119e0e09f93f0674bd8af7968d9b3eff6
 **********************************************************************************************************************************
  -->
  <!--

 THRESHOLDS:

 ZERO    =  1.00D-12  ONEINT  =  1.00D-12  TWOINT  =  1.00D-15  PREFAC  =  1.00D-14  LOCALI  =  1.00D-09  EORDER  =  1.00D-04
 ENERGY  =  0.00D+00  ETEST   =  0.00D+00  EDENS   =  0.00D+00  THRDEDEF=  1.00D-06  GRADIENT=  1.00D-02  STEP    =  1.00D-03
 ORBITAL =  1.00D-05  CIVEC   =  1.00D-05  COEFF   =  1.00D-04  PRINTCI =  5.00D-02  PUNCHCI =  9.90D+01  OPTGRAD =  3.00D-04
 OPTENERG=  1.00D-06  OPTSTEP =  3.00D-04  THRGRAD =  1.00D-10  COMPRESS=  1.00D-11  VARMIN  =  1.00D-07  VARMAX  =  1.00D-03
 THRDOUB =  0.00D+00  THRDIV  =  1.00D-05  THRRED  =  1.00D-07  THRPSP  =  1.00D+00  THRDC   =  1.00D-10  THRCS   =  1.00D-10
 THRNRM  =  1.00D-08  THREQ   =  0.00D+00  THRDE   =  1.00D+00  THRREF  =  1.00D-05  SPARFAC =  1.00D+00  THRDLP  =  1.00D-07
 THRDIA  =  1.00D-10  THRDLS  =  1.00D-07  THRGPS  =  0.00D+00  THRKEX  =  0.00D+00  THRDIS  =  2.00D-01  THRVAR  =  1.00D-10
 THRLOC  =  1.00D-06  THRGAP  =  1.00D-06  THRLOCT = -1.00D+00  THRGAPT = -1.00D+00  THRORB  =  1.00D-06  THRMLTP =  0.00D+00
 THRCPQCI=  1.00D-10  KEXTA   =  0.00D+00  THRCOARS=  0.00D+00  SYMTOL  =  1.00D-06  GRADTOL =  1.00D-06  THROVL  =  1.00D-08
 THRORTH =  1.00D-08  GRID    =  1.00D-06  GRIDMAX =  1.00D-03  DTMAX   =  0.00D+00  THROCCDE=  1.00D-01  THROCCDE=  1.00D-01



 THRESHOLDS:

 ZERO    =  1.00D-12  ONEINT  =  1.00D-15  TWOINT  =  1.00D-15  PREFAC  =  1.00D-14  LOCALI  =  1.00D-09  EORDER  =  1.00D-04
 ENERGY  =  0.00D+00  ETEST   =  0.00D+00  EDENS   =  0.00D+00  THRDEDEF=  1.00D-06  GRADIENT=  1.00D-02  STEP    =  1.00D-03
 ORBITAL =  1.00D-05  CIVEC   =  1.00D-05  COEFF   =  1.00D-04  PRINTCI =  5.00D-02  PUNCHCI =  9.90D+01  OPTGRAD =  3.00D-04
 OPTENERG=  1.00D-06  OPTSTEP =  3.00D-04  THRGRAD =  1.00D-10  COMPRESS=  1.00D-11  VARMIN  =  1.00D-07  VARMAX  =  1.00D-03
 THRDOUB =  0.00D+00  THRDIV  =  1.00D-05  THRRED  =  1.00D-07  THRPSP  =  1.00D+00  THRDC   =  1.00D-10  THRCS   =  1.00D-10
 THRNRM  =  1.00D-08  THREQ   =  0.00D+00  THRDE   =  1.00D+00  THRREF  =  1.00D-05  SPARFAC =  1.00D+00  THRDLP  =  1.00D-07
 THRDIA  =  1.00D-10  THRDLS  =  1.00D-07  THRGPS  =  0.00D+00  THRKEX  =  0.00D+00  THRDIS  =  2.00D-01  THRVAR  =  1.00D-10
 THRLOC  =  1.00D-06  THRGAP  =  1.00D-06  THRLOCT = -1.00D+00  THRGAPT = -1.00D+00  THRORB  =  1.00D-06  THRMLTP =  0.00D+00
 THRCPQCI=  1.00D-10  KEXTA   =  0.00D+00  THRCOARS=  0.00D+00  SYMTOL  =  1.00D-06  GRADTOL =  1.00D-06  THROVL  =  1.00D-08
 THRORTH =  1.00D-08  GRID    =  1.00D-06  GRIDMAX =  1.00D-03  DTMAX   =  0.00D+00  THROCCDE=  1.00D-01  THROCCDE=  1.00D-01



Geometry recognized as XYZ


 Variable memory set to 1000000000 words,  buffer space   230000 words

 SETTING BASIS          =    USERDEF

 DO I                   =         1.00000000

 Running procedure=ID1S2
  --><jobstep command="RHF-SCF" commandset="SCFPRO">
   <!--


 Recomputing integrals since basis changed


 Using spherical harmonics



 PROGRAM * SEWARD (Integral evaluation for generally contracted gaussian basis sets)     Author: Roland Lindh, 1990

 Geometry written to block  1 of record 700

 Orientation using atomic masses
 Molecule type: Atom
 Symmetry elements: X,Y,Z
 Rotational constants:       0.0000000      0.0000000      0.0000000 GHz  (calculated with average atomic masses)

 Point group  D2h


   --><cml:molecule>
    <cml:symmetry pointGroup="D2h"/>
    <cml:atomArray>
     <cml:atom id="a1" elementType="Lu" x3="0.0" y3="0.0" z3="0.0"/>
    </cml:atomArray>
    <cml:bondArray>
    </cml:bondArray>
   </cml:molecule><!--

 ATOMIC COORDINATES

 NR  ATOM    CHARGE       X              Y              Z

   1  LU     11.00    0.000000000    0.000000000    0.000000000

 NUCLEAR CHARGE:                   11
 NUMBER OF PRIMITIVE AOS:         503
 NUMBER OF SYMMETRY AOS:          380
 NUMBER OF CONTRACTIONS:          380   (  85Ag  +  62B3u +  62B2u +  30B1g +  62B1u +  30B2g +  30B3g +  19Au  )
 NUMBER OF CORE ORBITALS:           0   (   0Ag  +   0B3u +   0B2u +   0B1g +   0B1u +   0B2g +   0B3g +   0Au  )
 NUMBER OF VALENCE ORBITALS:       10   (   4Ag  +   1B3u +   1B2u +   1B1g +   1B1u +   1B2g +   1B3g +   0Au  )


 NUCLEAR REPULSION ENERGY    0.00000000

 EXTRA SYMMETRY OF AOS IN SYMMETRY 1:   1 1 1 1 1 1 1 1 1 1   1 1 1 1 1 1 1 1 1 1   1 1 1 1 1 1 1 1 1 1   1 2 3 2 3 2 3 2 3 2
                                        3 2 3 2 3 2 3 2 3 2   3 2 3 2 3 2 3 2 3 2   3 2 3 2 3 2 3 4 5 6   4 5 6 4 5 6 4 5 6 4
                                        5 6 4 5 6
 EXTRA SYMMETRY OF AOS IN SYMMETRY 2:   1 1 1 1 1 1 1 1 1 1   1 1 1 1 1 1 1 1 1 1   1 1 1 1 1 1 1 2 3 2   3 2 3 2 3 2 3 2 3 2
                                        3 2 3 2 3 2 3 2 3 2   3 2 3 4 5 6 4 5 6 4   5 6
 EXTRA SYMMETRY OF AOS IN SYMMETRY 3:   1 1 1 1 1 1 1 1 1 1   1 1 1 1 1 1 1 1 1 1   1 1 1 1 1 1 1 2 3 2   3 2 3 2 3 2 3 2 3 2
                                        3 2 3 2 3 2 3 2 3 2   3 2 3 4 5 6 4 5 6 4   5 6
 EXTRA SYMMETRY OF AOS IN SYMMETRY 4:   1 1 1 1 1 1 1 1 1 1   1 1 1 1 1 1 1 1 2 3   2 3 2 3 2 3 2 3 2 3
 EXTRA SYMMETRY OF AOS IN SYMMETRY 5:   1 1 1 1 1 1 1 1 1 1   1 1 1 1 1 1 1 1 1 1   1 1 1 1 1 1 1 2 3 2   3 2 3 2 3 2 3 2 3 2
                                        3 2 3 2 3 2 3 2 3 2   3 2 3 4 5 6 4 5 6 4   5 6
 EXTRA SYMMETRY OF AOS IN SYMMETRY 6:   1 1 1 1 1 1 1 1 1 1   1 1 1 1 1 1 1 1 2 3   2 3 2 3 2 3 2 3 2 3
 EXTRA SYMMETRY OF AOS IN SYMMETRY 7:   1 1 1 1 1 1 1 1 1 1   1 1 1 1 1 1 1 1 2 3   2 3 2 3 2 3 2 3 2 3
 EXTRA SYMMETRY OF AOS IN SYMMETRY 8:   1 1 1 1 1 1 1 1 1 1   1 1 1 2 3 2 3 2 3

 Eigenvalues of metric

         1 0.433E-04 0.526E-04 0.113E-03 0.205E-03 0.387E-03 0.579E-03 0.702E-03 0.702E-03
         2 0.122E-04 0.207E-04 0.110E-03 0.494E-03 0.158E-02 0.385E-02 0.728E-02 0.144E-01
         3 0.122E-04 0.207E-04 0.110E-03 0.494E-03 0.158E-02 0.385E-02 0.728E-02 0.144E-01
         4 0.702E-03 0.220E-02 0.838E-02 0.215E-01 0.345E-01 0.566E-01 0.104E+00 0.174E+00
         5 0.122E-04 0.207E-04 0.110E-03 0.494E-03 0.158E-02 0.385E-02 0.728E-02 0.144E-01
         6 0.702E-03 0.220E-02 0.838E-02 0.215E-01 0.345E-01 0.566E-01 0.104E+00 0.174E+00
         7 0.702E-03 0.220E-02 0.838E-02 0.215E-01 0.345E-01 0.566E-01 0.104E+00 0.174E+00
         8 0.144E-01 0.330E-01 0.524E-01 0.114E+00 0.217E+00 0.268E+00 0.268E+00 0.366E+00


 Contracted 2-electron integrals neglected if value below      1.0D-15
 AO integral compression algorithm  1   Integral accuracy      1.0D-15

     1958.740 MB (compressed) written to integral file ( 43.0%)

     Node minimum: 94.372 MB, node maximum: 234.095 MB


 NUMBER OF SORTED TWO-ELECTRON INTEGRALS:   30635607.     BUFFER LENGTH:  32768
 NUMBER OF SEGMENTS:   1  SEGMENT LENGTH:   30635607      RECORD LENGTH: 524288

 Memory used in sort:      31.19 MW

 SORT1 READ   568811974. AND WROTE    17427516. INTEGRALS IN     50 RECORDS. CPU TIME:    14.33 SEC, REAL TIME:    17.28 SEC
 SORT2 READ   190908661. AND WROTE   335703620. INTEGRALS IN   6534 RECORDS. CPU TIME:     1.42 SEC, REAL TIME:     1.89 SEC

 Node minimum:    30394465.  Node maximum:    30635607. integrals

 OPERATOR DM      FOR CENTER  0  COORDINATES:    0.000000    0.000000    0.000000


 **********************************************************************************************************************************
 DATASETS  * FILE   NREC   LENGTH (MB)   RECORD NAMES
              1      19       20.90       500      610      700      900      950      970     1000      129      960     1100
                                          VAR    BASINP    GEOM    SYMINP    ZMAT    AOBASIS   BASIS     P2S    ABASIS      S
                                         1400     1410     1420     1200     1210     1080     1600     1650     1700
                                           T        V       ECP      H0       H01     AOSYM     SMH    MOLCAS    OPER

 PROGRAMS   *        TOTAL       INT
 CPU TIMES  *        66.62     66.14
 REAL TIME  *        71.62 SEC
 DISK USED  *         4.27 GB
 GA USED    *         0.00 MB       (max)       0.00 MB       (current)
 **********************************************************************************************************************************


 PROGRAM * RHF-SCF (OPEN SHELL)       Authors: W. Meyer, H.-J. Werner


 NUMBER OF ELECTRONS:       6+    5-    SPACE SYMMETRY=1    SPIN SYMMETRY: Doublet
 CONVERGENCE THRESHOLDS:    1.00E-05 (Density)    1.00E-07 (Energy)
 MAX. NUMBER OF ITERATIONS:       60
 INTERPOLATION TYPE:            DIIS
 INTERPOLATION STEPS:              2 (START)      1 (STEP)
 LEVEL SHIFTS:                 -0.60 (CLOSED) -0.30 (OPEN)

 Number of closed-shell orbitals:    5 (   2   1   1   0   1   0   0   0 )
 Number of open-shell orbitals:      1 (   1   0   0   0   0   0   0   0 )



 Extra symmetries of mos in symmetry 1:   1   1   3   2
 Orbital guess generated from atomic densities. Full valence occupancy:    4   1   1   1   1   1   1   0


 Molecular orbital dump at record        4202.2

 ITERATION    DDIFF          GRAD             ENERGY        2-EL.EN.            DIPOLE MOMENTS         DIIS   ORB.
    1      0.000D+00      0.000D+00       -37.01857137     43.628740    0.00000    0.00000    0.00000    0    start
    2      0.000D+00      0.850D-02       -37.10138707     45.861872    0.00000    0.00000    0.00000    1    diag,B
    3      0.170D+00      0.276D-02       -37.14227049     47.166042    0.00000    0.00000    0.00000    2    diag,B
    4      0.110D+00      0.229D-02       -37.17613690     48.128343    0.00000    0.00000    0.00000    3    diag,B
    5      0.727D-01      0.169D-02       -37.19876496     48.674470    0.00000    0.00000    0.00000    4    diag,B
    6      0.291D-01      0.627D-03       -37.20024286     48.750609    0.00000    0.00000    0.00000    5    diag,B
    7      0.186D-02      0.496D-03       -37.20086820     48.726334    0.00000    0.00000    0.00000    6    fixocc
    8      0.148D-02      0.260D-03       -37.20103809     48.681934    0.00000    0.00000    0.00000    7    diag,B
    9      0.145D-02      0.156D-03       -37.20112220     48.631214    0.00000    0.00000    0.00000    8    diag,B
   10      0.119D-02      0.852D-04       -37.20114374     48.626521    0.00000    0.00000    0.00000    9    orth
   11      0.148D-02      0.529D-04       -37.20115589     48.627713    0.00000    0.00000    0.00000    9    diag,B
   12      0.145D-02      0.350D-04       -37.20116489     48.635050    0.00000    0.00000    0.00000    9    diag,B
   13      0.938D-03      0.241D-04       -37.20116993     48.635840    0.00000    0.00000    0.00000    9    diag,B
   14      0.938D-04      0.157D-04       -37.20117302     48.637768    0.00000    0.00000    0.00000    9    diag,B
   15      0.381D-03      0.123D-04       -37.20117509     48.637609    0.00000    0.00000    0.00000    9    diag,B
   16      0.314D-03      0.117D-04       -37.20117568     48.637674    0.00000    0.00000    0.00000    9    diag,B
   17      0.261D-04      0.117D-04       -37.20117192     48.637581    0.00000    0.00000    0.00000    9    diag,B
   18      0.524D-04      0.113D-04       -37.20114796     48.637681    0.00000    0.00000    0.00000    9    diag,B
   19      0.174D-03      0.905D-05       -37.20114559     48.637281    0.00000    0.00000    0.00000    9    diag,B
   20      0.412D-04      0.760D-05       -37.20113571     48.637278    0.00000    0.00000    0.00000    9    orth
   21      0.158D-03      0.749D-05       -37.20113571     48.637026    0.00000    0.00000    0.00000    9    diag,B
   22      0.164D-04      0.592D-05       -37.20113486     48.637124    0.00000    0.00000    0.00000    9    diag,B
   23      0.524D-04      0.313D-05       -37.20113459     48.637689    0.00000    0.00000    0.00000    9    diag,B
   24      0.568D-04      0.219D-05       -37.20113456     48.637768    0.00000    0.00000    0.00000    9    diag,B
   25      0.276D-04      0.150D-05       -37.20113456     48.637645    0.00000    0.00000    0.00000    9    diag,B
   26      0.143D-04      0.105D-05       -37.20113456     48.637508    0.00000    0.00000    0.00000    9    diag,B
   27      0.145D-04      0.451D-06       -37.20113457     48.637456    0.00000    0.00000    0.00000    9    diag,B
   28      0.164D-04      0.271D-06       -37.20113457     48.637427    0.00000    0.00000    0.00000    9    diag,B
   29      0.501D-05      0.169D-06       -37.20113457     48.637439    0.00000    0.00000    0.00000    0    orth

 Final alpha occupancy:   3   1   1   0   1   0   0   0
 Final beta  occupancy:   2   1   1   0   1   0   0   0

 !RHF STATE 1.1 Energy                -37.201134566239
   --><property name="Energy" method="RHF" principal="true" stateSymmetry="1" stateNumber="1"
     value="-37.2011345662386"/><!--
 Nuclear energy                         0.00000000
 One-electron energy                  -61.51985407
 Two-electron energy                   24.31871951
 Virial quotient                       -3.23345700
 !RHF STATE 1.1 Dipole moment           0.00000000     0.00000000     0.00000000
 Dipole moment /Debye                   0.00000000     0.00000000     0.00000000
   --><property name="Dipole moment" method="RHF" principal="true" stateSymmetry="1"
     stateNumber="1" value="0.0 0.0 0.0"/><!--

 ELECTRON ORBITALS
 =================


   Orb  Occ    Energy  Couls-En    Coefficients

                                   1 1s      1 1s      1 1s      1 1s      1 1s      1 1s      1 1s      1 1s      1 1s      1 1s
                                   1 1s      1 1s      1 1s      1 1s      1 1s      1 1s      1 1s      1 1s      1 1s      1 1s
                                   1 1s      1 1s      1 1s      1 1s      1 1s      1 1s      1 1s      1 1s      1 1s      1 1s
                                   1 1s      1 3d0     1 3d2+    1 3d0     1 3d2+    1 3d0     1 3d2+    1 3d0     1 3d2+    1 3d0
                                   1 3d2+    1 3d0     1 3d2+    1 3d0     1 3d2+    1 3d0     1 3d2+    1 3d0     1 3d2+    1 3d0
                                   1 3d2+    1 3d0     1 3d2+    1 3d0     1 3d2+    1 3d0     1 3d2+    1 3d0     1 3d2+    1 3d0
                                   1 3d2+    1 3d0     1 3d2+    1 3d0     1 3d2+    1 3d0     1 3d2+    1 5g0     1 5g4+    1 5g2+
                                   1 5g0     1 5g4+    1 5g2+    1 5g0     1 5g4+    1 5g2+    1 5g0     1 5g4+    1 5g2+    1 5g0
                                   1 5g4+    1 5g2+    1 5g0     1 5g4+    1 5g2+

   1.1   2    -2.2772   -9.5686  0.000000 -0.000000  0.000000 -0.000000  0.000000 -0.000000  0.000001 -0.000002  0.000005 -0.000012
                                 0.000029 -0.000070  0.000163 -0.000368  0.000795 -0.001653  0.003157 -0.005097  0.005802 -0.021851
                                 0.050040  0.194691 -0.738209  0.030169  0.753271  0.508396  0.022703  0.027064 -0.019776  0.016049
                                -0.005269 -0.000000  0.000000  0.000000 -0.000000 -0.000000  0.000000  0.000000 -0.000000 -0.000002
                                 0.000000  0.000005 -0.000000 -0.000012  0.000000  0.000032 -0.000000 -0.000066  0.000000  0.000206
                                -0.000000 -0.000445  0.000000 -0.000266  0.000000  0.004373 -0.000003  0.001443 -0.000002 -0.001037
                                -0.000001  0.001926 -0.000001 -0.002151  0.000000  0.000701 -0.000000  0.000001  0.000006 -0.000000
                                -0.000004 -0.000016  0.000000  0.000058  0.000290 -0.000000  0.000257  0.001428 -0.000000 -0.000061
                                -0.000341  0.000000  0.000036  0.000200 -0.000000

   2.1   2    -0.1980   -2.9910 -0.000000  0.000000 -0.000000  0.000000 -0.000000  0.000000 -0.000000  0.000001 -0.000002  0.000004
                                -0.000010  0.000024 -0.000055  0.000124 -0.000268  0.000558 -0.001065  0.001717 -0.001952  0.007446
                                -0.019919 -0.050957  0.235681 -0.027063 -0.275382 -0.354105 -0.078139  0.220128  0.694913 -0.075734
                                 0.403499 -0.000000  0.000000  0.000000 -0.000000 -0.000001  0.000000  0.000003 -0.000000 -0.000009
                                 0.000000  0.000027 -0.000000 -0.000071  0.000000  0.000174 -0.000000 -0.000351  0.000000  0.000974
                                -0.000000 -0.001977  0.000001 -0.000110  0.000000  0.010082 -0.000004  0.021739 -0.000009  0.032383
                                -0.000013  0.003081  0.000008  0.012568 -0.000021  0.001319  0.000015  0.000003  0.000009 -0.000000
                                -0.000015 -0.000044  0.000000  0.000148  0.000409 -0.000000  0.000502  0.000528 -0.000000 -0.000010
                                -0.000357  0.000000  0.000108  0.000273 -0.000000

   3.1   +    -0.2695   -4.5211 -0.000000  0.000000 -0.000000  0.000000 -0.000000  0.000000 -0.000000  0.000000 -0.000000  0.000000
                                -0.000000  0.000000 -0.000000  0.000000 -0.000000  0.000000 -0.000000  0.000000 -0.000000  0.000000
                                -0.000001 -0.000001  0.000005 -0.000001 -0.000007 -0.000011  0.000000  0.000010  0.000023 -0.000004
                                 0.000012  0.000000 -0.000000 -0.000000  0.000002  0.000000 -0.000012 -0.000000  0.000052  0.000000
                                -0.000181 -0.000000  0.000547  0.000000 -0.001456 -0.000001  0.003625  0.000001 -0.007347 -0.000004
                                 0.021548  0.000008 -0.044735  0.000002 -0.009197 -0.000052  0.284343 -0.000087  0.474862 -0.000073
                                 0.404224  0.000013 -0.072163 -0.000037  0.204586  0.000009 -0.051236  0.000000  0.000000 -0.000006
                                -0.000000 -0.000000  0.000027  0.000000  0.000000 -0.000275  0.000001  0.000001 -0.001961  0.000000
                                -0.000000 -0.000531  0.000000  0.000000 -0.000103

   4.1   0     0.0506   -2.4922 -0.000000  0.000000 -0.000000  0.000000 -0.000000  0.000000 -0.000000  0.000000 -0.000001  0.000001
                                -0.000003  0.000008 -0.000019  0.000042 -0.000091  0.000188 -0.000353  0.000553 -0.000595  0.001903
                                -0.006320  0.004197  0.008597  0.025768 -0.086438  0.098129 -0.380517  0.726427 -1.760208  3.033170
                                -1.688788  0.000000  0.000000 -0.000001 -0.000000  0.000008  0.000000 -0.000034 -0.000000  0.000118
                                 0.000000 -0.000356 -0.000000  0.000945  0.000000 -0.002315 -0.000000  0.004685  0.000001 -0.012820
                                -0.000002  0.026029  0.000005  0.000731  0.000000 -0.137311 -0.000025 -0.272200 -0.000049 -0.121677
                                -0.000021 -1.669946 -0.000324  3.091430  0.000601 -2.267416 -0.000440 -0.000010  0.000023  0.000000
                                 0.000047 -0.000108 -0.000000 -0.000541  0.001110  0.000000 -0.002521  0.006041  0.000001 -0.000818
                                 0.001004  0.000000 -0.001479  0.001395  0.000001

   5.1   0     0.0447   -1.1906  0.000000 -0.000000  0.000000 -0.000000  0.000000 -0.000000  0.000000 -0.000001  0.000003 -0.000008
                                 0.000020 -0.000048  0.000113 -0.000254  0.000546 -0.001125  0.002110 -0.003293  0.003512 -0.010869
                                 0.037446 -0.043848  0.011921 -0.186938  0.508960 -0.790380  2.619300 -4.930117 12.279479-21.059087
                                12.026394  0.000000  0.000000 -0.000000 -0.000000  0.000001  0.000000 -0.000005 -0.000000  0.000017
                                 0.000000 -0.000052 -0.000000  0.000137  0.000000 -0.000337 -0.000000  0.000683  0.000000 -0.001896
                                -0.000000  0.003860  0.000001  0.000271 -0.000000 -0.021048 -0.000004 -0.040602 -0.000008 -0.029065
                                 0.000001 -0.172563 -0.000075  0.307912  0.000145 -0.235669 -0.000103 -0.000003 -0.000002  0.000000
                                 0.000012  0.000013 -0.000000 -0.000122 -0.000049  0.000000 -0.000721 -0.000945  0.000001 -0.000174
                                -0.000223  0.000000 -0.000476 -0.001246  0.000000

                                   1 2px     1 2px     1 2px     1 2px     1 2px     1 2px     1 2px     1 2px     1 2px     1 2px
                                   1 2px     1 2px     1 2px     1 2px     1 2px     1 2px     1 2px     1 2px     1 2px     1 2px
                                   1 2px     1 2px     1 2px     1 2px     1 2px     1 2px     1 2px     1 4f1+    1 4f3+    1 4f1+
                                   1 4f3+    1 4f1+    1 4f3+    1 4f1+    1 4f3+    1 4f1+    1 4f3+    1 4f1+    1 4f3+    1 4f1+
                                   1 4f3+    1 4f1+    1 4f3+    1 4f1+    1 4f3+    1 4f1+    1 4f3+    1 4f1+    1 4f3+    1 4f1+
                                   1 4f3+    1 4f1+    1 4f3+    1 6h1+    1 6h3+    1 6h5+    1 6h1+    1 6h3+    1 6h5+    1 6h1+
                                   1 6h3+    1 6h5+

   1.2   2    -1.2755   -7.4572 -0.000000  0.000000 -0.000000  0.000000 -0.000000  0.000000 -0.000001  0.000002 -0.000007  0.000021
                                -0.000062  0.000170 -0.000448  0.001307 -0.002426  0.016690 -0.034769  0.090418 -0.256218  0.066231
                                 0.581453 -0.074104  0.501518  0.054402  0.101249 -0.000958 -0.051817 -0.000000 -0.000000  0.000000
                                 0.000000 -0.000001 -0.000000  0.000004  0.000001 -0.000016 -0.000015  0.000031  0.000015  0.000138
                                 0.000448  0.000783  0.001455  0.002287  0.003688  0.000225  0.005619 -0.000579  0.002223  0.000241
                                -0.000446 -0.000083  0.000181 -0.000000  0.000001 -0.000006 -0.000056  0.000064 -0.000409 -0.000004
                                 0.000016 -0.000048

   2.2   0     0.0178   -1.6096  0.000000 -0.000000  0.000000 -0.000000  0.000000 -0.000000  0.000001 -0.000002  0.000006 -0.000020
                                 0.000059 -0.000162  0.000430 -0.001203  0.003449 -0.019877  0.036018 -0.037413  0.056855 -0.048574
                                 0.070399 -0.293027  0.142455-28.860068 -0.189246  0.696571 29.349439 -0.000000 -0.000000  0.000000
                                 0.000000 -0.000000 -0.000001 -0.000000  0.000003  0.000001 -0.000011 -0.000001  0.000020 -0.000057
                                 0.000113 -0.000154  0.000408 -0.000545  0.000784 -0.000423  0.004660  0.001258  0.008164  0.000491
                                 0.000680  0.002453  0.004242  0.000001 -0.000000  0.000003 -0.000004  0.000002 -0.000019  0.000034
                                -0.000026  0.000217

   3.2   0     0.0830   -1.4265 -0.000000  0.000000 -0.000000  0.000000 -0.000000  0.000000 -0.000001  0.000005 -0.000018  0.000055
                                -0.000160  0.000441 -0.001172  0.003244 -0.010256  0.057630 -0.102642  0.070526 -0.018806  0.104015
                                -0.643300  1.024673 -0.950145 82.873305  0.651814 -1.329865-81.773808 -0.000000  0.000000  0.000000
                                -0.000000 -0.000000  0.000000  0.000000  0.000000  0.000001 -0.000004 -0.000000  0.000001 -0.000077
                                 0.000202 -0.000194  0.000421 -0.000723  0.001290 -0.000462  0.005169  0.001572  0.014031  0.000323
                                -0.007754  0.002628  0.025540  0.000001 -0.000000  0.000003 -0.000003  0.000001 -0.000012  0.000039
                                -0.000027  0.000247

                                   1 2py     1 2py     1 2py     1 2py     1 2py     1 2py     1 2py     1 2py     1 2py     1 2py
                                   1 2py     1 2py     1 2py     1 2py     1 2py     1 2py     1 2py     1 2py     1 2py     1 2py
                                   1 2py     1 2py     1 2py     1 2py     1 2py     1 2py     1 2py     1 4f1-    1 4f3-    1 4f1-
                                   1 4f3-    1 4f1-    1 4f3-    1 4f1-    1 4f3-    1 4f1-    1 4f3-    1 4f1-    1 4f3-    1 4f1-
                                   1 4f3-    1 4f1-    1 4f3-    1 4f1-    1 4f3-    1 4f1-    1 4f3-    1 4f1-    1 4f3-    1 4f1-
                                   1 4f3-    1 4f1-    1 4f3-    1 6h1-    1 6h3-    1 6h5-    1 6h1-    1 6h3-    1 6h5-    1 6h1-
                                   1 6h3-    1 6h5-

   1.3   2    -1.2755   -7.4572 -0.000000  0.000000 -0.000000  0.000000 -0.000000  0.000000 -0.000001  0.000002 -0.000007  0.000021
                                -0.000062  0.000170 -0.000448  0.001307 -0.002426  0.016690 -0.034769  0.090418 -0.256219  0.066231
                                 0.581453 -0.074103  0.501518  0.054404  0.101247 -0.000959 -0.051818 -0.000000  0.000000  0.000000
                                -0.000000 -0.000001  0.000000  0.000004 -0.000001 -0.000016  0.000015  0.000031 -0.000015  0.000138
                                -0.000449  0.000783 -0.001455  0.002287 -0.003691  0.000227 -0.005620 -0.000578 -0.002222  0.000241
                                 0.000446 -0.000083 -0.000181 -0.000000 -0.000001 -0.000006 -0.000055 -0.000064 -0.000409 -0.000004
                                -0.000016 -0.000048

   2.3   0     0.0178   -1.6096  0.000000 -0.000000  0.000000 -0.000000  0.000000 -0.000000  0.000001 -0.000002  0.000006 -0.000020
                                 0.000059 -0.000162  0.000430 -0.001203  0.003449 -0.019877  0.036017 -0.037413  0.056854 -0.048573
                                 0.070400 -0.293025  0.142454-28.859913 -0.189247  0.696568 29.349289 -0.000000  0.000000  0.000000
                                -0.000000 -0.000000  0.000001 -0.000000 -0.000003  0.000001  0.000011 -0.000001 -0.000020 -0.000057
                                -0.000113 -0.000154 -0.000407 -0.000545 -0.000783 -0.000421 -0.004659  0.001260 -0.008166  0.000491
                                -0.000680  0.002453 -0.004248  0.000001  0.000000  0.000003 -0.000004 -0.000002 -0.000019  0.000034
                                 0.000026  0.000217

   3.3   0     0.0830   -1.4265 -0.000000  0.000000 -0.000000  0.000000 -0.000000  0.000000 -0.000001  0.000005 -0.000018  0.000055
                                -0.000160  0.000441 -0.001172  0.003244 -0.010256  0.057630 -0.102642  0.070526 -0.018807  0.104015
                                -0.643296  1.024670 -0.950142 82.873261  0.651810 -1.329860-81.773767 -0.000000 -0.000000  0.000000
                                 0.000000 -0.000000 -0.000000  0.000000 -0.000000  0.000001  0.000004 -0.000000 -0.000001 -0.000077
                                -0.000202 -0.000193 -0.000421 -0.000722 -0.001289 -0.000460 -0.005169  0.001577 -0.014030  0.000318
                                 0.007744  0.002639 -0.025530  0.000001  0.000000  0.000003 -0.000003 -0.000001 -0.000012  0.000039
                                 0.000027  0.000247

                                   1 3d2-    1 3d2-    1 3d2-    1 3d2-    1 3d2-    1 3d2-    1 3d2-    1 3d2-    1 3d2-    1 3d2-
                                   1 3d2-    1 3d2-    1 3d2-    1 3d2-    1 3d2-    1 3d2-    1 3d2-    1 3d2-    1 5g2-    1 5g4-
                                   1 5g2-    1 5g4-    1 5g2-    1 5g4-    1 5g2-    1 5g4-    1 5g2-    1 5g4-    1 5g2-    1 5g4-


   1.4   0     0.0599   -1.8649  0.000000 -0.000001  0.000007 -0.000028  0.000098 -0.000295  0.000780 -0.001889  0.003816 -0.009899
                                 0.019824 -0.003085 -0.086372 -0.204116  0.030955 -2.434927  4.665789 -3.267945 -0.000006  0.000000
                                 0.000029 -0.000000 -0.000324  0.000000 -0.001684  0.000000 -0.000669  0.000000 -0.001145  0.000003

   2.4   0     0.1042   -2.5493  0.000000 -0.000001  0.000004 -0.000019  0.000065 -0.000198  0.000536 -0.001408  0.002873 -0.010200
                                 0.021939  0.015700 -0.192483 -0.228723 -0.664153  3.637419 -7.503658  4.457567 -0.000011  0.000000
                                 0.000049 -0.000000 -0.000553  0.000000 -0.002676  0.000001 -0.000438  0.000002 -0.000744 -0.000002

                                   1 2pz     1 2pz     1 2pz     1 2pz     1 2pz     1 2pz     1 2pz     1 2pz     1 2pz     1 2pz
                                   1 2pz     1 2pz     1 2pz     1 2pz     1 2pz     1 2pz     1 2pz     1 2pz     1 2pz     1 2pz
                                   1 2pz     1 2pz     1 2pz     1 2pz     1 2pz     1 2pz     1 2pz     1 4f0     1 4f2+    1 4f0
                                   1 4f2+    1 4f0     1 4f2+    1 4f0     1 4f2+    1 4f0     1 4f2+    1 4f0     1 4f2+    1 4f0
                                   1 4f2+    1 4f0     1 4f2+    1 4f0     1 4f2+    1 4f0     1 4f2+    1 4f0     1 4f2+    1 4f0
                                   1 4f2+    1 4f0     1 4f2+    1 6h2+    1 6h4+    1 6h0     1 6h2+    1 6h4+    1 6h0     1 6h2+
                                   1 6h4+    1 6h0

   1.5   2    -1.2803   -7.4667 -0.000000  0.000000 -0.000000  0.000000 -0.000000  0.000000 -0.000001  0.000002 -0.000007  0.000021
                                -0.000062  0.000171 -0.000452  0.001318 -0.002458  0.016888 -0.035150  0.090849 -0.256775  0.065812
                                 0.582360 -0.069927  0.499795  0.054918  0.097401 -0.001152 -0.052254 -0.000000  0.000000  0.000000
                                -0.000000 -0.000001  0.000000  0.000005 -0.000000 -0.000025  0.000000  0.000044 -0.000000  0.000314
                                -0.000000  0.001440 -0.000001  0.004005 -0.000002  0.002119 -0.000002  0.000053 -0.000000  0.000141
                                 0.000000 -0.000038 -0.000000  0.000000 -0.000004 -0.000000  0.000000 -0.000259 -0.000070  0.000000
                                -0.000026  0.000002

   2.5   0     0.0166   -1.6242  0.000000 -0.000000  0.000000 -0.000000  0.000000 -0.000000  0.000000 -0.000002  0.000006 -0.000020
                                 0.000057 -0.000157  0.000417 -0.001168  0.003341 -0.019271  0.034937 -0.036548  0.056125 -0.047223
                                 0.065383 -0.282797  0.132932-27.973861 -0.184713  0.687769 28.472113 -0.000000  0.000000  0.000000
                                -0.000000 -0.000000  0.000000  0.000001 -0.000000 -0.000002  0.000000  0.000006 -0.000000 -0.000031
                                -0.000000 -0.000039 -0.000000 -0.000392  0.000000  0.001097 -0.000001  0.004389 -0.000003  0.000858
                                -0.000000  0.004429 -0.000004 -0.000000  0.000002  0.000001  0.000000 -0.000012 -0.000006 -0.000000
                                 0.000136  0.000049

   3.5   0     0.0822   -1.4147 -0.000000  0.000000 -0.000000  0.000000 -0.000000  0.000000 -0.000001  0.000005 -0.000018  0.000055
                                -0.000160  0.000441 -0.001172  0.003245 -0.010254  0.057632 -0.102657  0.070787 -0.019841  0.104522
                                -0.640757  1.024925 -0.949552 82.998760  0.650213 -1.326131-81.913118 -0.000000  0.000000  0.000000
                                -0.000000 -0.000000  0.000000  0.000000 -0.000000 -0.000000  0.000000  0.000001 -0.000000 -0.000023
                                 0.000000 -0.000078 -0.000000 -0.000425  0.000000  0.001209 -0.000001  0.006641 -0.000003 -0.002162
                                -0.000002  0.011628 -0.000002 -0.000000  0.000002  0.000001  0.000000 -0.000007 -0.000005 -0.000000
                                 0.000151  0.000055

                                   1 3d1+    1 3d1+    1 3d1+    1 3d1+    1 3d1+    1 3d1+    1 3d1+    1 3d1+    1 3d1+    1 3d1+
                                   1 3d1+    1 3d1+    1 3d1+    1 3d1+    1 3d1+    1 3d1+    1 3d1+    1 3d1+    1 5g1+    1 5g3+
                                   1 5g1+    1 5g3+    1 5g1+    1 5g3+    1 5g1+    1 5g3+    1 5g1+    1 5g3+    1 5g1+    1 5g3+


   1.6   0     0.0537   -2.3171  0.000000 -0.000001  0.000008 -0.000032  0.000114 -0.000342  0.000908 -0.002217  0.004485 -0.012113
                                 0.024514 -0.000378 -0.123964 -0.255334 -0.079702 -1.909048  3.577852 -2.582475 -0.000007 -0.000012
                                 0.000034  0.000056 -0.000389 -0.000591 -0.001856 -0.003113 -0.000751 -0.000485 -0.001383 -0.000591

   2.6   0     0.0947   -2.2530  0.000000 -0.000001  0.000004 -0.000016  0.000056 -0.000171  0.000464 -0.001231  0.002515 -0.009223
                                 0.019948  0.015782 -0.182440 -0.211246 -0.649610  3.773301 -7.739438  4.734991 -0.000009 -0.000014
                                 0.000042  0.000063 -0.000476 -0.000669 -0.002096 -0.003354 -0.000204 -0.000243  0.000170 -0.001935

                                   1 3d1-    1 3d1-    1 3d1-    1 3d1-    1 3d1-    1 3d1-    1 3d1-    1 3d1-    1 3d1-    1 3d1-
                                   1 3d1-    1 3d1-    1 3d1-    1 3d1-    1 3d1-    1 3d1-    1 3d1-    1 3d1-    1 5g1-    1 5g3-
                                   1 5g1-    1 5g3-    1 5g1-    1 5g3-    1 5g1-    1 5g3-    1 5g1-    1 5g3-    1 5g1-    1 5g3-


   1.7   0     0.0537   -2.3173  0.000000 -0.000001  0.000008 -0.000032  0.000114 -0.000342  0.000908 -0.002217  0.004485 -0.012114
                                 0.024516 -0.000377 -0.123981 -0.255356 -0.079754 -1.908790  3.577323 -2.582138 -0.000007  0.000012
                                 0.000034 -0.000056 -0.000390  0.000591 -0.001856  0.003116 -0.000751  0.000486 -0.001382  0.000594

   2.7   0     0.0947   -2.2528  0.000000 -0.000001  0.000004 -0.000016  0.000056 -0.000171  0.000464 -0.001231  0.002515 -0.009222
                                 0.019947  0.015782 -0.182433 -0.211234 -0.649599  3.773358 -7.739533  4.735107 -0.000009  0.000014
                                 0.000042 -0.000063 -0.000476  0.000670 -0.002097  0.003356 -0.000203  0.000245  0.000168  0.001932

                                   1 4f2-    1 4f2-    1 4f2-    1 4f2-    1 4f2-    1 4f2-    1 4f2-    1 4f2-    1 4f2-    1 4f2-
                                   1 4f2-    1 4f2-    1 4f2-    1 6h4-    1 6h2-    1 6h4-    1 6h2-    1 6h4-    1 6h2-

   1.8   0     0.1172   -0.9987  0.000003 -0.000018  0.000075 -0.000253  0.000701 -0.001708  0.004041 -0.007521  0.020314 -0.048599
                                 0.305903 -0.765519  1.420918 -0.000000  0.000002  0.000000 -0.000016 -0.000000  0.000065

   2.8   0     0.2972   -1.2410 -0.000006  0.000040 -0.000172  0.000582 -0.001666  0.003950 -0.006828  0.023507 -0.033238  0.147479
                                -0.631395  2.157153 -1.119539 -0.000000  0.000016  0.000000 -0.000103 -0.000000  0.000430

 HOMO      3.1    -0.269491 =      -7.3332eV
 LUMO      2.5     0.016609 =       0.4519eV
 LUMO-HOMO         0.286100 =       7.7852eV


 **********************************************************************************************************************************
 DATASETS  * FILE   NREC   LENGTH (MB)   RECORD NAMES
              1      19       20.94       500      610      700      900      950      970     1000      129      960     1100
                                          VAR    BASINP    GEOM    SYMINP    ZMAT    AOBASIS   BASIS     P2S    ABASIS      S
                                         1400     1410     1420     1200     1210     1080     1600     1650     1700
                                           T        V       ECP      H0       H01     AOSYM     SMH    MOLCAS    OPER

              2       5        6.02       200      700     1000      520     4202
                                        OPTIONS   GEOM     BASIS   MCVARS     RHF

 PROGRAMS   *        TOTAL       RHF       INT
 CPU TIMES  *        70.00      3.38     66.14
 REAL TIME  *        75.33 SEC
 DISK USED  *         4.60 GB
 SF USED    *         0.09 MB
 GA USED    *         0.00 MB       (max)       0.00 MB       (current)
 **********************************************************************************************************************************
   -->
   <time start="09:38:20" end="09:39:35" cpu="70.0" system="4.99" real="75.33"/>
   <storage units="megabyte" memory="8001.84" sf="0.09" df="332.83" eaf="4265.96" ga="0.0"/>
  </jobstep><!--
  --><jobstep command="POP" commandset="POP">
   <!--


 PROGRAM * POP (Mulliken population analysis)


 Density matrix read from record         4202.2  Type=RHF/CHARGE (state 1.1)

 Population analysis by basis function type

 Unique atom        s        p        d        f        g    Total    Charge
   1  LU      3.99173  5.99944  1.00826  0.00056  0.00001 11.00000  - 0.00000


 **********************************************************************************************************************************
 DATASETS  * FILE   NREC   LENGTH (MB)   RECORD NAMES
              1      19       20.94       500      610      700      900      950      970     1000      129      960     1100
                                          VAR    BASINP    GEOM    SYMINP    ZMAT    AOBASIS   BASIS     P2S    ABASIS      S
                                         1400     1410     1420     1200     1210     1080     1600     1650     1700
                                           T        V       ECP      H0       H01     AOSYM     SMH    MOLCAS    OPER

              2       5        6.02       200      700     1000      520     4202
                                        OPTIONS   GEOM     BASIS   MCVARS     RHF

 PROGRAMS   *        TOTAL       POP       RHF       INT
 CPU TIMES  *        70.01      0.00      3.38     66.14
 REAL TIME  *        75.34 SEC
 DISK USED  *         4.60 GB
 SF USED    *         0.09 MB
 GA USED    *         0.00 MB       (max)       0.00 MB       (current)
 **********************************************************************************************************************************
   -->
   <time start="09:39:35" end="09:39:35" cpu="0.01" system="0.01" real="0.01"/>
   <storage units="megabyte" memory="8001.84" sf="0.09" df="332.83" eaf="4265.96" ga="0.0"/>
  </jobstep><!--
  --><jobstep command="MULTI" commandset="MULTI">
   <!--


 PROGRAM * MULTI (Direct Multiconfiguration SCF)       Authors: P.J. Knowles, H.-J. Werner (1984)     S.T. Elbert (1988)


 Number of closed-shell orbitals:   5 (   2   1   1   0   1   0   0   0 )
 Number of active  orbitals:        5 (   2   0   0   1   0   1   1   0 )
 Number of external orbitals:     370 (  81  61  61  29  61  29  29  19 )

 State symmetry 1

 Number of electrons:     1    Spin symmetry=Doublet   Space symmetry=1
 Number of states:        2
 Number of CSFs:          2   (2 determinants, 5 intermediate states)

 State symmetry 2

 Number of electrons:     1    Spin symmetry=Doublet   Space symmetry=4
 Number of states:        1
 Number of CSFs:          1   (1 determinants, 5 intermediate states)

 State symmetry 3

 Number of electrons:     1    Spin symmetry=Doublet   Space symmetry=6
 Number of states:        1
 Number of CSFs:          1   (1 determinants, 5 intermediate states)

 State symmetry 4

 Number of electrons:     1    Spin symmetry=Doublet   Space symmetry=7
 Number of states:        1
 Number of CSFs:          1   (1 determinants, 5 intermediate states)

 Molecular orbitals read from record     4202.2  Type=RHF/CANONICAL (state 1.1)
 *** IN SYMMETRY 1 ORBITAL  1 SYMMETRY CONTAMINATION OF 0.635D-02 HAS BEEN REMOVED
 *** IN SYMMETRY 1 ORBITAL  2 SYMMETRY CONTAMINATION OF 0.344D-01 HAS BEEN REMOVED
 *** IN SYMMETRY 1 ORBITAL  3 SYMMETRY CONTAMINATION OF 0.206D-02 HAS BEEN REMOVED
 *** IN SYMMETRY 1 ORBITAL  4 SYMMETRY CONTAMINATION OF 0.507D+00 HAS BEEN REMOVED

 EXTRA SYMMETRY OF MOS IN SYMMETRY 1:   1 1 3 2 1 3 2 1 3 4   6 5 2 3 2 1 4 6 5 3   2 1 4 6 5 1 2 3 4 6   5 1 2 3 1 4 6 5 2 3
                                        1 2 3 1 4 6 5 2 3 1   2 3 1 2 3 1 2 3 1 2   3 1 1 2 3 1 2 3 1 2   3 1 1 2 3 1 1 1 1 1
                                        1 1 1 1 1
 *** IN SYMMETRY 2 ORBITAL  1 SYMMETRY CONTAMINATION OF 0.103D-01 HAS BEEN REMOVED
 EXTRA SYMMETRY OF MOS IN SYMMETRY 2:   1 1 1 2 3 1 3 2 3 2   1 3 2 1 2 3 4 5 6 1   2 3 4 5 6 1 2 3 1 4   5 6 1 2 3 1 2 3 1 1
                                        2 3 1 2 3 1 1 2 3 1   2 3 1 1 1 1 1 1 1 1   1 1
 *** IN SYMMETRY 3 ORBITAL  1 SYMMETRY CONTAMINATION OF 0.103D-01 HAS BEEN REMOVED
 EXTRA SYMMETRY OF MOS IN SYMMETRY 3:   1 1 1 2 3 1 3 2 3 2   1 3 2 1 2 3 4 5 6 1   2 3 4 5 6 1 2 3 1 4   5 6 1 2 3 1 2 3 1 1
                                        2 3 1 2 3 1 1 2 3 1   2 3 1 1 1 1 1 1 1 1   1 1
 *** IN SYMMETRY 4 ORBITAL  1 SYMMETRY CONTAMINATION OF 0.360D-03 HAS BEEN REMOVED
 EXTRA SYMMETRY OF MOS IN SYMMETRY 4:   1 1 2 3 1 1 2 3 1 2   3 1 2 3 1 2 3 1 1 2   3 1 1 1 1 1 1 1 1 1
 *** IN SYMMETRY 5 ORBITAL  1 SYMMETRY CONTAMINATION OF 0.466D-02 HAS BEEN REMOVED
 EXTRA SYMMETRY OF MOS IN SYMMETRY 5:   1 1 1 2 3 1 3 2 3 2   1 3 2 1 2 3 6 4 5 1   2 3 6 4 5 1 2 3 1 6   4 5 1 2 3 1 2 3 1 1
                                        2 3 1 2 3 1 1 2 3 1   2 3 1 1 1 1 1 1 1 1   1 1
 *** IN SYMMETRY 6 ORBITAL  1 SYMMETRY CONTAMINATION OF 0.108D-02 HAS BEEN REMOVED
 EXTRA SYMMETRY OF MOS IN SYMMETRY 6:   1 1 2 3 1 1 2 3 1 2   3 1 2 3 1 2 3 1 1 2   3 1 1 1 1 1 1 1 1 1
 *** IN SYMMETRY 7 ORBITAL  1 SYMMETRY CONTAMINATION OF 0.108D-02 HAS BEEN REMOVED
 EXTRA SYMMETRY OF MOS IN SYMMETRY 7:   1 1 2 3 1 1 2 3 1 2   3 1 2 3 1 2 3 1 1 2   3 1 1 1 1 1 1 1 1 1
 EXTRA SYMMETRY OF MOS IN SYMMETRY 8:   1 1 1 1 1 3 2 1 3 2   1 3 2 1 1 1 1 1 1

 Wavefunction dump at record             5202.2

 Convergence thresholds  0.10E-01 (gradient)  0.10E-05 (energy)  0.10E-02 (step length)

 Weight factors for state symmetry  1:    0.20000   0.20000
 Weight factors for state symmetry  2:    0.20000
 Weight factors for state symmetry  3:    0.20000
 Weight factors for state symmetry  4:    0.20000

 Number of orbital rotations:      598   (     4 Core/Active    345 Core/Virtual   0 Active/Active    249 Active/Virtual)
 Total number of variables:        605


 ITER. MIC  NCI  NEG     ENERGY(VAR)     ENERGY(PROJ)   ENERGY CHANGE     GRAD(0)  GRAD(ORB)   GRAD(CI)     STEP       TIME

   1   44   16    1     -37.10671756     -37.20049855   -0.09378099    0.14070611 0.00000000 0.00000000  0.14D+01      0.64
   2   17   20    0     -37.19765754     -37.19897131   -0.00131377    0.04563847 0.00000000 0.00000000  0.51D-01      1.28
   3   25   20    0     -37.19898512     -37.19898549   -0.00000038    0.00063911 0.00000000 0.00000000  0.93D-03      1.93

 ** WVFN ****  CONVERGENCE REACHED, FINAL GRADIENT:  0.19D-06



 Results for state 1.1
 =====================

 !MCSCF STATE 1.1 Energy              -37.198985492619
   --><property name="Energy" method="MCSCF" principal="true" stateSymmetry="1" stateNumber="1"
     value="-37.1989854926188"/><!--
 Nuclear energy                         0.00000000
 Kinetic energy                        11.49782751
 One electron energy                  -61.51050231
 Two electron energy                   24.31151682
 Virial ratio                           4.23530558

 !MCSCF STATE 1.1 Dipole moment         0.00000000     0.00000000     0.00000000
 Dipole moment /Debye                   0.00000000     0.00000000     0.00000000
   --><property name="Dipole moment" method="MCSCF" principal="true" stateSymmetry="1"
     stateNumber="1" value="0.0 0.0 0.0"/><!--

 Results for state 2.1
 =====================

 !MCSCF STATE 2.1 Energy              -37.198985492618
   --><property name="Energy" method="MCSCF" principal="true" stateSymmetry="1" stateNumber="2"
     value="-37.1989854926181"/><!--
 Nuclear energy                         0.00000000
 Kinetic energy                        11.49782733
 One electron energy                  -61.51050207
 Two electron energy                   24.31151658
 Virial ratio                           4.23530563

 !MCSCF STATE 2.1 Dipole moment         0.00000000     0.00000000     0.00000000
 Dipole moment /Debye                   0.00000000     0.00000000     0.00000000
   --><property name="Dipole moment" method="MCSCF" principal="true" stateSymmetry="1"
     stateNumber="2" value="0.0 0.0 0.0"/><!--



 Results for state 1.4
 =====================

 !MCSCF STATE 1.4 Energy              -37.198985492618
   --><property name="Energy" method="MCSCF" principal="true" stateSymmetry="4" stateNumber="1"
     value="-37.1989854926181"/><!--
 Nuclear energy                         0.00000000
 Kinetic energy                        11.49782756
 One electron energy                  -61.51050237
 Two electron energy                   24.31151688
 Virial ratio                           4.23530557

 !MCSCF STATE 1.4 Dipole moment         0.00000000     0.00000000     0.00000000
 Dipole moment /Debye                   0.00000000     0.00000000     0.00000000
   --><property name="Dipole moment" method="MCSCF" principal="true" stateSymmetry="4"
     stateNumber="1" value="0.0 0.0 0.0"/><!--



 Results for state 1.6
 =====================

 !MCSCF STATE 1.6 Energy              -37.198985492619
   --><property name="Energy" method="MCSCF" principal="true" stateSymmetry="6" stateNumber="1"
     value="-37.1989854926186"/><!--
 Nuclear energy                         0.00000000
 Kinetic energy                        11.49782753
 One electron energy                  -61.51050233
 Two electron energy                   24.31151683
 Virial ratio                           4.23530557

 !MCSCF STATE 1.6 Dipole moment         0.00000000     0.00000000     0.00000000
 Dipole moment /Debye                   0.00000000     0.00000000     0.00000000
   --><property name="Dipole moment" method="MCSCF" principal="true" stateSymmetry="6"
     stateNumber="1" value="0.0 0.0 0.0"/><!--



 Results for state 1.7
 =====================

 !MCSCF STATE 1.7 Energy              -37.198985492619
   --><property name="Energy" method="MCSCF" principal="true" stateSymmetry="7" stateNumber="1"
     value="-37.1989854926186"/><!--
 Nuclear energy                         0.00000000
 Kinetic energy                        11.49782753
 One electron energy                  -61.51050233
 Two electron energy                   24.31151683
 Virial ratio                           4.23530557

 !MCSCF STATE 1.7 Dipole moment         0.00000000     0.00000000     0.00000000
 Dipole moment /Debye                   0.00000000     0.00000000     0.00000000
   --><property name="Dipole moment" method="MCSCF" principal="true" stateSymmetry="7"
     stateNumber="1" value="0.0 0.0 0.0"/><!--

 State-averaged charge density matrix saved on record  5202.2 (density set 1)


 NATURAL ORBITALS (state averaged)
 =================================

   Orb     Occ        Energy       Coefficients

                                   1 1s      1 1s      1 1s      1 1s      1 1s      1 1s      1 1s      1 1s      1 1s      1 1s
                                   1 1s      1 1s      1 1s      1 1s      1 1s      1 1s      1 1s      1 1s      1 1s      1 1s
                                   1 1s      1 1s      1 1s      1 1s      1 1s      1 1s      1 1s      1 1s      1 1s      1 1s
                                   1 1s      1 3d0     1 3d2+    1 3d0     1 3d2+    1 3d0     1 3d2+    1 3d0     1 3d2+    1 3d0
                                   1 3d2+    1 3d0     1 3d2+    1 3d0     1 3d2+    1 3d0     1 3d2+    1 3d0     1 3d2+    1 3d0
                                   1 3d2+    1 3d0     1 3d2+    1 3d0     1 3d2+    1 3d0     1 3d2+    1 3d0     1 3d2+    1 3d0
                                   1 3d2+    1 3d0     1 3d2+    1 3d0     1 3d2+    1 3d0     1 3d2+    1 5g0     1 5g4+    1 5g2+
                                   1 5g0     1 5g4+    1 5g2+    1 5g0     1 5g4+    1 5g2+    1 5g0     1 5g4+    1 5g2+    1 5g0
                                   1 5g4+    1 5g2+    1 5g0     1 5g4+    1 5g2+

   1.1  2.00000    -2.278492     0.000000 -0.000000  0.000000 -0.000000  0.000000 -0.000000  0.000001 -0.000002  0.000005 -0.000012
                                 0.000029 -0.000070  0.000163 -0.000368  0.000795 -0.001653  0.003158 -0.005097  0.005803 -0.021854
                                 0.050048  0.194707 -0.738289  0.030138  0.753526  0.508365  0.022522  0.027105 -0.019812  0.016077
                                -0.005278  0.000000  0.000000  0.000000  0.000000  0.000000  0.000000  0.000000  0.000000  0.000000
                                 0.000000  0.000000  0.000000  0.000000  0.000000  0.000000  0.000000  0.000000  0.000000  0.000000
                                 0.000000  0.000000  0.000000  0.000000  0.000000  0.000000  0.000000  0.000000  0.000000  0.000000
                                 0.000000  0.000000  0.000000  0.000000  0.000000  0.000000  0.000000  0.000000  0.000000  0.000000
                                 0.000000  0.000000  0.000000  0.000000  0.000000  0.000000  0.000000  0.000000  0.000000  0.000000
                                 0.000000  0.000000  0.000000  0.000000  0.000000

   2.1  2.00000    -0.198060    -0.000000  0.000000 -0.000000  0.000000 -0.000000  0.000000 -0.000000  0.000001 -0.000002  0.000004
                                -0.000010  0.000024 -0.000055  0.000124 -0.000269  0.000558 -0.001066  0.001720 -0.001955  0.007456
                                -0.019950 -0.051013  0.235979 -0.027071 -0.275757 -0.354904 -0.078260  0.220826  0.696330 -0.075706
                                 0.404001  0.000000  0.000000  0.000000  0.000000  0.000000  0.000000  0.000000  0.000000  0.000000
                                 0.000000  0.000000  0.000000  0.000000  0.000000  0.000000  0.000000  0.000000  0.000000  0.000000
                                 0.000000  0.000000  0.000000  0.000000  0.000000  0.000000  0.000000  0.000000  0.000000  0.000000
                                 0.000000  0.000000  0.000000  0.000000  0.000000  0.000000  0.000000  0.000000  0.000000  0.000000
                                 0.000000  0.000000  0.000000  0.000000  0.000000  0.000000  0.000000  0.000000  0.000000  0.000000
                                 0.000000  0.000000  0.000000  0.000000  0.000000

   3.1  0.20000     0.068296     0.000000  0.000000  0.000000  0.000000  0.000000  0.000000  0.000000  0.000000  0.000000  0.000000
                                 0.000000  0.000000  0.000000  0.000000  0.000000  0.000000  0.000000  0.000000  0.000000  0.000000
                                 0.000000  0.000000  0.000000  0.000000  0.000000  0.000000  0.000000  0.000000  0.000000  0.000000
                                 0.000000  0.000000  0.000000 -0.000002  0.000000  0.000012  0.000000 -0.000051  0.000000  0.000181
                                 0.000000 -0.000545  0.000000  0.001453  0.000000 -0.003616  0.000000  0.007328  0.000000 -0.021494
                                 0.000000  0.044623  0.000000  0.009166  0.000000 -0.283607  0.000000 -0.473359  0.000000 -0.404337
                                 0.000000  0.068488  0.000000 -0.202799  0.000000  0.049484  0.000000  0.000000  0.000000  0.000000
                                 0.000000  0.000000  0.000000  0.000000  0.000000  0.000000  0.000000  0.000000  0.000000  0.000000
                                 0.000000  0.000000  0.000000  0.000000  0.000000

   4.1  0.20000     0.068296     0.000000  0.000000  0.000000  0.000000  0.000000  0.000000  0.000000  0.000000  0.000000  0.000000
                                 0.000000  0.000000  0.000000  0.000000  0.000000  0.000000  0.000000  0.000000  0.000000  0.000000
                                 0.000000  0.000000  0.000000  0.000000  0.000000  0.000000  0.000000  0.000000  0.000000  0.000000
                                 0.000000  0.000000 -0.000000  0.000000  0.000002  0.000000 -0.000012  0.000000  0.000051  0.000000
                                -0.000181  0.000000  0.000545  0.000000 -0.001453  0.000000  0.003616  0.000000 -0.007328  0.000000
                                 0.021494  0.000000 -0.044623  0.000000 -0.009166  0.000000  0.283607  0.000000  0.473359  0.000000
                                 0.404338  0.000000 -0.068487  0.000000  0.202799  0.000000 -0.049484  0.000000  0.000000  0.000000
                                 0.000000  0.000000  0.000000  0.000000  0.000000  0.000000  0.000000  0.000000  0.000000  0.000000
                                 0.000000  0.000000  0.000000  0.000000  0.000000

                                   1 2px     1 2px     1 2px     1 2px     1 2px     1 2px     1 2px     1 2px     1 2px     1 2px
                                   1 2px     1 2px     1 2px     1 2px     1 2px     1 2px     1 2px     1 2px     1 2px     1 2px
                                   1 2px     1 2px     1 2px     1 2px     1 2px     1 2px     1 2px     1 4f1+    1 4f3+    1 4f1+
                                   1 4f3+    1 4f1+    1 4f3+    1 4f1+    1 4f3+    1 4f1+    1 4f3+    1 4f1+    1 4f3+    1 4f1+
                                   1 4f3+    1 4f1+    1 4f3+    1 4f1+    1 4f3+    1 4f1+    1 4f3+    1 4f1+    1 4f3+    1 4f1+
                                   1 4f3+    1 4f1+    1 4f3+    1 6h1+    1 6h3+    1 6h5+    1 6h1+    1 6h3+    1 6h5+    1 6h1+
                                   1 6h3+    1 6h5+

   1.2  2.00000    -1.278138    -0.000000  0.000000 -0.000000  0.000000 -0.000000  0.000000 -0.000001  0.000002 -0.000007  0.000021
                                -0.000062  0.000171 -0.000450  0.001311 -0.002438  0.016764 -0.034911  0.090587 -0.256471  0.066123
                                 0.581885 -0.072560  0.500853  0.054532  0.099782 -0.001025 -0.051920  0.000000  0.000000  0.000000
                                 0.000000  0.000000  0.000000  0.000000  0.000000  0.000000  0.000000  0.000000  0.000000  0.000000
                                 0.000000  0.000000  0.000000  0.000000  0.000000  0.000000  0.000000  0.000000  0.000000  0.000000
                                 0.000000  0.000000  0.000000  0.000000  0.000000  0.000000  0.000000  0.000000  0.000000  0.000000
                                 0.000000  0.000000

                                   1 2py     1 2py     1 2py     1 2py     1 2py     1 2py     1 2py     1 2py     1 2py     1 2py
                                   1 2py     1 2py     1 2py     1 2py     1 2py     1 2py     1 2py     1 2py     1 2py     1 2py
                                   1 2py     1 2py     1 2py     1 2py     1 2py     1 2py     1 2py     1 4f1-    1 4f3-    1 4f1-
                                   1 4f3-    1 4f1-    1 4f3-    1 4f1-    1 4f3-    1 4f1-    1 4f3-    1 4f1-    1 4f3-    1 4f1-
                                   1 4f3-    1 4f1-    1 4f3-    1 4f1-    1 4f3-    1 4f1-    1 4f3-    1 4f1-    1 4f3-    1 4f1-
                                   1 4f3-    1 4f1-    1 4f3-    1 6h1-    1 6h3-    1 6h5-    1 6h1-    1 6h3-    1 6h5-    1 6h1-
                                   1 6h3-    1 6h5-

   1.3  2.00000    -1.278138    -0.000000  0.000000 -0.000000  0.000000 -0.000000  0.000000 -0.000001  0.000002 -0.000007  0.000021
                                -0.000062  0.000171 -0.000450  0.001311 -0.002438  0.016764 -0.034911  0.090587 -0.256471  0.066123
                                 0.581885 -0.072560  0.500853  0.054532  0.099782 -0.001025 -0.051920  0.000000  0.000000  0.000000
                                 0.000000  0.000000  0.000000  0.000000  0.000000  0.000000  0.000000  0.000000  0.000000  0.000000
                                 0.000000  0.000000  0.000000  0.000000  0.000000  0.000000  0.000000  0.000000  0.000000  0.000000
                                 0.000000  0.000000  0.000000  0.000000  0.000000  0.000000  0.000000  0.000000  0.000000  0.000000
                                 0.000000  0.000000

                                   1 3d2-    1 3d2-    1 3d2-    1 3d2-    1 3d2-    1 3d2-    1 3d2-    1 3d2-    1 3d2-    1 3d2-
                                   1 3d2-    1 3d2-    1 3d2-    1 3d2-    1 3d2-    1 3d2-    1 3d2-    1 3d2-    1 5g2-    1 5g4-
                                   1 5g2-    1 5g4-    1 5g2-    1 5g4-    1 5g2-    1 5g4-    1 5g2-    1 5g4-    1 5g2-    1 5g4-


   1.4  0.20000     0.068296     0.000000 -0.000002  0.000012 -0.000051  0.000181 -0.000545  0.001453 -0.003616  0.007328 -0.021494
                                 0.044623  0.009166 -0.283607 -0.473359 -0.404337  0.068488 -0.202799  0.049484  0.000000  0.000000
                                 0.000000  0.000000  0.000000  0.000000  0.000000  0.000000  0.000000  0.000000  0.000000  0.000000

                                   1 2pz     1 2pz     1 2pz     1 2pz     1 2pz     1 2pz     1 2pz     1 2pz     1 2pz     1 2pz
                                   1 2pz     1 2pz     1 2pz     1 2pz     1 2pz     1 2pz     1 2pz     1 2pz     1 2pz     1 2pz
                                   1 2pz     1 2pz     1 2pz     1 2pz     1 2pz     1 2pz     1 2pz     1 4f0     1 4f2+    1 4f0
                                   1 4f2+    1 4f0     1 4f2+    1 4f0     1 4f2+    1 4f0     1 4f2+    1 4f0     1 4f2+    1 4f0
                                   1 4f2+    1 4f0     1 4f2+    1 4f0     1 4f2+    1 4f0     1 4f2+    1 4f0     1 4f2+    1 4f0
                                   1 4f2+    1 4f0     1 4f2+    1 6h2+    1 6h4+    1 6h0     1 6h2+    1 6h4+    1 6h0     1 6h2+
                                   1 6h4+    1 6h0

   1.5  2.00000    -1.278138    -0.000000  0.000000 -0.000000  0.000000 -0.000000  0.000000 -0.000001  0.000002 -0.000007  0.000021
                                -0.000062  0.000171 -0.000450  0.001311 -0.002438  0.016764 -0.034911  0.090587 -0.256471  0.066123
                                 0.581885 -0.072560  0.500853  0.054532  0.099782 -0.001025 -0.051920  0.000000  0.000000  0.000000
                                 0.000000  0.000000  0.000000  0.000000  0.000000  0.000000  0.000000  0.000000  0.000000  0.000000
                                 0.000000  0.000000  0.000000  0.000000  0.000000  0.000000  0.000000  0.000000  0.000000  0.000000
                                 0.000000  0.000000  0.000000  0.000000  0.000000  0.000000  0.000000  0.000000  0.000000  0.000000
                                 0.000000  0.000000

                                   1 3d1+    1 3d1+    1 3d1+    1 3d1+    1 3d1+    1 3d1+    1 3d1+    1 3d1+    1 3d1+    1 3d1+
                                   1 3d1+    1 3d1+    1 3d1+    1 3d1+    1 3d1+    1 3d1+    1 3d1+    1 3d1+    1 5g1+    1 5g3+
                                   1 5g1+    1 5g3+    1 5g1+    1 5g3+    1 5g1+    1 5g3+    1 5g1+    1 5g3+    1 5g1+    1 5g3+


   1.6  0.20000     0.068296     0.000000 -0.000002  0.000012 -0.000051  0.000181 -0.000545  0.001453 -0.003616  0.007328 -0.021494
                                 0.044623  0.009166 -0.283607 -0.473359 -0.404337  0.068488 -0.202799  0.049484  0.000000  0.000000
                                 0.000000  0.000000  0.000000  0.000000  0.000000  0.000000  0.000000  0.000000  0.000000  0.000000

                                   1 3d1-    1 3d1-    1 3d1-    1 3d1-    1 3d1-    1 3d1-    1 3d1-    1 3d1-    1 3d1-    1 3d1-
                                   1 3d1-    1 3d1-    1 3d1-    1 3d1-    1 3d1-    1 3d1-    1 3d1-    1 3d1-    1 5g1-    1 5g3-
                                   1 5g1-    1 5g3-    1 5g1-    1 5g3-    1 5g1-    1 5g3-    1 5g1-    1 5g3-    1 5g1-    1 5g3-


   1.7  0.20000     0.068296     0.000000 -0.000002  0.000012 -0.000051  0.000181 -0.000545  0.001453 -0.003616  0.007328 -0.021494
                                 0.044623  0.009166 -0.283607 -0.473359 -0.404337  0.068488 -0.202799  0.049484  0.000000  0.000000
                                 0.000000  0.000000  0.000000  0.000000  0.000000  0.000000  0.000000  0.000000  0.000000  0.000000


 EXTRA SYMMETRY OF MOS IN SYMMETRY 1:   1 1 2 3 1 2 3 1 2 3   6 4 5 2 3 1 4 6 5 2   3 1 5 4 6 1 2 3 5 6   4 1 3 2 1 5 6 4 3 2
                                        1 3 2 1 5 6 4 3 2 1   3 2 1 3 2 1 3 2 1 3   2 1 1 3 2 1 3 2 1 3   2 1 1 2 3 1 1 1 1 1
                                        1 1 1 1 1
 EXTRA SYMMETRY OF MOS IN SYMMETRY 2:   1 1 1 2 3 1 3 2 3 2   1 2 3 1 3 2 6 5 4 1   3 2 6 5 4 1 3 2 1 6   5 4 1 3 2 1 3 2 1 1
                                        3 2 1 3 2 1 1 3 2 1   3 2 1 1 1 1 1 1 1 1   1 1
 EXTRA SYMMETRY OF MOS IN SYMMETRY 3:   1 1 1 2 3 1 2 3 2 3   1 2 3 1 3 2 6 4 5 1   3 2 6 5 4 1 3 2 1 6   5 4 1 3 2 1 3 2 1 1
                                        3 2 1 3 2 1 1 3 2 1   3 2 1 1 1 1 1 1 1 1   1 1
 EXTRA SYMMETRY OF MOS IN SYMMETRY 4:   1 1 1 2 3 1 2 3 1 2   3 1 3 2 1 3 2 1 1 3   2 1 1 1 1 1 1 1 1 1
 EXTRA SYMMETRY OF MOS IN SYMMETRY 5:   1 1 1 2 3 1 3 2 3 2   1 2 3 1 3 2 5 4 6 1   3 2 5 4 6 1 3 2 1 5   4 6 1 3 2 1 3 2 1 1
                                        3 2 1 3 2 1 1 3 2 1   2 3 1 1 1 1 1 1 1 1   1 1
 EXTRA SYMMETRY OF MOS IN SYMMETRY 6:   1 1 1 2 3 1 2 3 1 3   2 1 3 2 1 3 2 1 1 3   2 1 1 1 1 1 1 1 1 1
 EXTRA SYMMETRY OF MOS IN SYMMETRY 7:   1 1 1 2 3 1 2 3 1 3   2 1 3 2 1 3 2 1 1 3   2 1 1 1 1 1 1 1 1 1
 EXTRA SYMMETRY OF MOS IN SYMMETRY 8:   1 1 1 1 1 2 3 1 2 3   1 2 3 1 1 1 1 1 1

 Natural orbital dump (state averaged) at molpro section  5202.2    (Orbital set 2)


 CI vector for state symmetry 1
 ==============================

 0a 0 0 0         -0.0015768   0.9999988
 a0 0 0 0          0.9999988   0.0015768

 TOTAL ENERGIES                       -37.19898549   -37.19898549

 CI vector for state symmetry 2
 ==============================

 00 a 0 0          1.0000000

 TOTAL ENERGIES                       -37.19898549

 CI vector for state symmetry 3
 ==============================

 00 0 a 0          1.0000000

 TOTAL ENERGIES                       -37.19898549

 CI vector for state symmetry 4
 ==============================

 00 0 0 a          1.0000000

 TOTAL ENERGIES                       -37.19898549



 **********************************************************************************************************************************
 DATASETS  * FILE   NREC   LENGTH (MB)   RECORD NAMES
              1      20       33.82       500      610      700      900      950      970     1000      129      960     1100
                                          VAR    BASINP    GEOM    SYMINP    ZMAT    AOBASIS   BASIS     P2S    ABASIS      S
                                         1400     1410     1420     1200     1210     1080     1600     1650     1700     1380
                                           T        V       ECP      H0       H01     AOSYM     SMH    MOLCAS    OPER     JKOP

              2       6        9.31       200      700     1000      520     4202     5202
                                        OPTIONS   GEOM     BASIS   MCVARS     RHF     MCSCF

 PROGRAMS   *        TOTAL     MULTI       POP       RHF       INT
 CPU TIMES  *        72.69      2.67      0.00      3.38     66.14
 REAL TIME  *        78.33 SEC
 DISK USED  *         4.60 GB
 SF USED    *        54.70 MB
 GA USED    *         0.00 MB       (max)       0.00 MB       (current)
 **********************************************************************************************************************************
   -->
   <time start="09:39:35" end="09:39:38" cpu="2.68" system="0.29" real="2.99"/>
   <storage units="megabyte" memory="8001.84" sf="54.7" df="332.83" eaf="4265.96" ga="0.0"/>
  </jobstep><!--
  --><jobstep command="RHF-SCF" commandset="SCFPRO">
   <!--


 PROGRAM * RHF-SCF (OPEN SHELL)       Authors: W. Meyer, H.-J. Werner


 NUMBER OF ELECTRONS:       6+    5-    SPACE SYMMETRY=1    SPIN SYMMETRY: Doublet
 CONVERGENCE THRESHOLDS:    1.00E-05 (Density)    1.00E-07 (Energy)
 MAX. NUMBER OF ITERATIONS:        0
 INTERPOLATION TYPE:            DIIS
 INTERPOLATION STEPS:              2 (START)      1 (STEP)
 LEVEL SHIFTS:                 -0.60 (CLOSED) -0.30 (OPEN)

 Number of closed-shell orbitals:    5 (   2   1   1   0   1   0   0   0 )
 Number of open-shell orbitals:      1 (   1   0   0   0   0   0   0   0 )


 Molecular orbitals read from record     5202.2  Type=MCSCF/NATURAL (state averaged)

 Molecular orbital dump at record        2101.2

 ITERATION    DDIFF          GRAD             ENERGY        2-EL.EN.            DIPOLE MOMENTS         DIIS   ORB.
    1      0.000D+00      0.000D+00       -37.19898549     48.623034    0.00000    0.00000    0.00000    0    start

 Final alpha occupancy:   3   1   1   0   1   0   0   0
 Final beta  occupancy:   2   1   1   0   1   0   0   0

 !RHF STATE 1.1 Energy                -37.198985492619
   --><property name="Energy" method="RHF" principal="true" stateSymmetry="1" stateNumber="1"
     value="-37.1989854926189"/><!--
 Nuclear energy                         0.00000000
 One-electron energy                  -61.51050231
 Two-electron energy                   24.31151682
 Virial quotient                       -3.23530558
 !RHF STATE 1.1 Dipole moment           0.00000000     0.00000000     0.00000000
 Dipole moment /Debye                   0.00000000     0.00000000     0.00000000
   --><property name="Dipole moment" method="RHF" principal="true" stateSymmetry="1"
     stateNumber="1" value="0.0 0.0 0.0"/><!--

 Orbital energies:

         1.1          2.1          3.1          4.1          5.1
     -2.278492    -0.198060     0.068296     0.068296     0.045424

         1.2          2.2          3.2
     -1.278138     0.018756     0.084452

         1.3          2.3          3.3
     -1.278138     0.018756     0.084452

         1.4          2.4
      0.068296     0.076220

         1.5          2.5          3.5
     -1.278138     0.018756     0.084452

         1.6          2.6
      0.068296     0.076220

         1.7          2.7
      0.068296     0.076220

         1.8          2.8
      0.117265     0.297203

 HOMO      3.1     0.068296 =       1.8584eV
 LUMO      2.2     0.018756 =       0.5104eV
 LUMO-HOMO        -0.049540 =      -1.3481eV


 **********************************************************************************************************************************
 DATASETS  * FILE   NREC   LENGTH (MB)   RECORD NAMES
              1      20       33.82       500      610      700      900      950      970     1000      129      960     1100
                                          VAR    BASINP    GEOM    SYMINP    ZMAT    AOBASIS   BASIS     P2S    ABASIS      S
                                         1400     1410     1420     1200     1210     1080     1600     1650     1700     1380
                                           T        V       ECP      H0       H01     AOSYM     SMH    MOLCAS    OPER     JKOP

              2       7       12.96       200      700     1000      520     4202     5202     2101
                                        OPTIONS   GEOM     BASIS   MCVARS     RHF     MCSCF     RHF

 PROGRAMS   *        TOTAL       RHF     MULTI       POP       RHF       INT
 CPU TIMES  *        72.83      0.13      2.67      0.00      3.38     66.14
 REAL TIME  *        78.49 SEC
 DISK USED  *         4.60 GB
 SF USED    *        54.70 MB
 GA USED    *         0.00 MB       (max)       0.00 MB       (current)
 **********************************************************************************************************************************
   -->
   <time start="09:39:38" end="09:39:38" cpu="0.14" system="0.0" real="0.16"/>
   <storage units="megabyte" memory="8001.84" sf="54.7" df="332.83" eaf="4265.96" ga="0.0"/>
  </jobstep><!--
 SETTING SCF(1)         =       -37.19898549  AU
 SETTING _CC_NORM_MAX   =         2.00000000
  --><jobstep command="RCCSD(T)" commandset="CCSD">
   <!--


 PROGRAM * CCSD (Restricted open-shell coupled cluster)     Authors: C. Hampel, H.-J. Werner, 1991, M. Deegan, P.J. Knowles, 1992


 Convergence thresholds:  THRVAR = 1.00D-08  THRDEN = 1.00D-06

 CCSD(T)     terms to be evaluated (factor= 1.000)


 Number of closed-shell orbitals:   5 (   2   1   1   0   1   0   0   0 )
 Number of active  orbitals:        1 (   1   0   0   0   0   0   0   0 )
 Number of external orbitals:     374 (  82  61  61  30  61  30  30  19 )

 Memory could be reduced to 86.58 Mwords without degradation in triples

 Number of N-1 electron functions:              11
 Number of N-2 electron functions:              55
 Number of singly external CSFs:               781
 Number of doubly external CSFs:            798538
 Total number of CSFs:                      799319

 Molecular orbitals read from record     2101.2  Type=RHF/CANONICAL (state 1.1)

 Integral transformation finished. Total CPU:   1.84 sec, npass=  1  Memory used:  12.28 MW

 Starting RMP2 calculation

 Wavefunction is spin-projected

 ITER.      SQ.NORM     CORR.ENERGY   TOTAL ENERGY   ENERGY CHANGE        DEN1      VAR(S)    VAR(P)  DIIS     TIME
   1      1.10143238    -0.32956536   -37.52855085    -0.32956536    -0.00586166  0.11D-03  0.33D-02  1  1     2.17
   2      1.11336276    -0.33655914   -37.53554464    -0.00699378    -0.00038424  0.24D-04  0.32D-03  2  2     2.30
   3      1.11900308    -0.33820675   -37.53719224    -0.00164761    -0.00001626  0.39D-05  0.11D-04  3  3     2.38
   4      1.11998390    -0.33839113   -37.53737662    -0.00018438    -0.00000094  0.63D-06  0.32D-06  4  4     2.47
   5      1.12008176    -0.33840336   -37.53738886    -0.00001223    -0.00000009  0.90D-07  0.14D-07  5  5     2.56
   6      1.12009317    -0.33840325   -37.53738874     0.00000011    -0.00000001  0.60D-08  0.26D-08  6  6     2.63

 Norm of t1 vector:      0.05216435      S-energy:    -0.00367230      T1 diagnostic:  0.00935000
 Norm of t2 vector:      0.34259604      P-energy:    -0.33473095
                                         Alpha-Beta:  -0.25416827
                                         Alpha-Alpha: -0.04618585
                                         Beta-Beta:   -0.03437683

 Spin contamination <S**2-Sz**2-Sz>     0.00000000
  Reference energy                    -37.198985492619
   --><property name="energy" method="Reference" stateSymmetry="1" stateNumber="1"
     value="-37.1989854926188"/><!--
  RHF-RMP2 correlation energy          -0.338403248851
   --><property name="energy" method="RHF-RMP2 correlation" stateSymmetry="1" stateNumber="1"
     value="-0.338403248851458"/><!--
 !RHF-RMP2 energy                     -37.537388741470
   --><property name="energy" method="RHF-RMP2" principal="true" stateSymmetry="1"
     stateNumber="1" value="-37.5373887414703"/><!--
 (NB above energy spin projected)

 Starting RCCSD calculation

 ITER.      SQ.NORM     CORR.ENERGY   TOTAL ENERGY   ENERGY CHANGE        DEN1      VAR(S)    VAR(P)  DIIS     TIME
   1      1.10193466    -0.33207892   -37.53106441    -0.33207892    -0.00976688  0.90D-03  0.38D-02  1  1     4.00
   2      1.12086588    -0.34310619   -37.54209169    -0.01102727    -0.00122451  0.37D-03  0.72D-03  2  2     4.92
   3      1.13502169    -0.34624421   -37.54522970    -0.00313801    -0.00035718  0.16D-03  0.19D-03  3  3     5.70
   4      1.14962335    -0.34830493   -37.54729042    -0.00206072    -0.00008160  0.47D-04  0.32D-04  4  4     6.52
   5      1.15690006    -0.34898972   -37.54797521    -0.00068479    -0.00003017  0.19D-04  0.11D-04  5  5     7.32
   6      1.16077142    -0.34920658   -37.54819207    -0.00021686    -0.00001349  0.85D-05  0.50D-05  6  6     8.14
   7      1.16402670    -0.34935829   -37.54834379    -0.00015172    -0.00000491  0.35D-05  0.14D-05  7  7     8.95
   8      1.16593044    -0.34941790   -37.54840339    -0.00005960    -0.00000161  0.14D-05  0.34D-06  8  8     9.79
   9      1.16673225    -0.34944094   -37.54842643    -0.00002304    -0.00000056  0.45D-06  0.15D-06  9  9    10.63
  10      1.16710758    -0.34945217   -37.54843767    -0.00001124    -0.00000015  0.78D-07  0.70D-07 10 10    11.48
  11      1.16727431    -0.34945549   -37.54844099    -0.00000332    -0.00000004  0.15D-07  0.25D-07 11 11    12.31
  12      1.16736677    -0.34945855   -37.54844405    -0.00000306    -0.00000001  0.62D-08  0.76D-08 12 12    13.19
  13      1.16740980    -0.34945932   -37.54844482    -0.00000077    -0.00000000  0.17D-08  0.19D-08 13 13    14.08

 Norm of t1 vector:      0.15592152      S-energy:    -0.00438524      T1 diagnostic:  0.03262557
                                                                       D1 diagnostic:  0.07844452
 Norm of t2 vector:      0.37828333      P-energy:    -0.34507408
                                         Alpha-Beta:  -0.27034147
                                         Alpha-Alpha: -0.04310970
                                         Beta-Beta:   -0.03162292

 Singles amplitudes (print threshold =  0.500E-01):

         I         SYM. A    A   T(IA) [Alpha-Alpha]

         2         1         3     -0.05925800
         2         1         6     -0.05270001

         I         SYM. A    A   T(IA) [Beta-Beta]

         2         1         1      0.10276888

 Doubles amplitudes (print threshold =  0.500E-01):

         I         J         SYM. A    SYM. B    A         B      T(IJ, AB) [Alpha-Beta]

         2         2         2         2         1         1     -0.05915897
         2         2         3         3         1         1     -0.05915897
         2         2         5         5         1         1     -0.05043502
         3         2         1         1         2         2     -0.05352877
         3         2         4         4         1         1     -0.05352876

 Spin contamination <S**2-Sz**2-Sz>     0.00000000

 Memory could be reduced to 87.47 Mwords without degradation in triples


 RESULTS
 =======

  Reference energy                    -37.198985492619
   --><property name="energy" method="Reference" stateSymmetry="1" stateNumber="1"
     value="-37.1989854926188"/><!--
  RCCSD singles energy                 -0.004385242621
   --><property name="energy" method="RCCSD singles" stateSymmetry="1" stateNumber="1"
     value="-0.438524262090145E-02"/><!--
  RCCSD pair energy                    -0.345074081113
   --><property name="energy" method="RCCSD pair" stateSymmetry="1" stateNumber="1"
     value="-0.345074081112771"/><!--
  RCCSD correlation energy             -0.349459323734
   --><property name="energy" method="RCCSD correlation" stateSymmetry="1" stateNumber="1"
     value="-0.349459323733672"/><!--
  Triples (T) contribution             -0.015571333960
   --><property name="contribution" method="Triples (T)" stateSymmetry="1" stateNumber="1"
     value="-0.15571333960211E-01"/><!--
  Total correlation energy             -0.365030657694
   --><property name="energy" method="Total correlation" stateSymmetry="1" stateNumber="1"
     value="-0.365030657693883"/><!--

  RHF-RCCSD energy                    -37.548444816352
   --><property name="energy" method="RHF-RCCSD" stateSymmetry="1" stateNumber="1"
     value="-37.5484448163525"/><!--
  RHF-RCCSD[T] energy                 -37.564452878170
   --><property name="energy" method="RHF-RCCSD[T]" stateSymmetry="1" stateNumber="1"
     value="-37.5644528781695"/><!--
  RHF-RCCSD-T energy                  -37.563965918371
   --><property name="energy" method="RHF-RCCSD-T" stateSymmetry="1" stateNumber="1"
     value="-37.5639659183712"/><!--
 !RHF-RCCSD(T) energy                 -37.564016150313
   --><property name="energy" method="RHF-RCCSD(T)" principal="true" stateSymmetry="1"
     stateNumber="1" value="-37.5640161503127"/><!--

 Program statistics:

 Available memory in ccsd:               999999552
 Min. memory needed in ccsd:               2738761
 Max. memory used in ccsd:                 3645648
 Max. memory used in cckext:               3148987 (13 integral passes)
 Max. memory used in cckint:              12278172 ( 1 integral passes)



 **********************************************************************************************************************************
 DATASETS  * FILE   NREC   LENGTH (MB)   RECORD NAMES
              1      20       33.82       500      610      700      900      950      970     1000      129      960     1100
                                          VAR    BASINP    GEOM    SYMINP    ZMAT    AOBASIS   BASIS     P2S    ABASIS      S
                                         1400     1410     1420     1200     1210     1080     1600     1650     1700     1380
                                           T        V       ECP      H0       H01     AOSYM     SMH    MOLCAS    OPER     JKOP

              2       7       12.96       200      700     1000      520     4202     5202     2101
                                        OPTIONS   GEOM     BASIS   MCVARS     RHF     MCSCF     RHF

 PROGRAMS   *        TOTAL  RCCSD(T)       RHF     MULTI       POP       RHF       INT
 CPU TIMES  *        97.33     24.45      0.13      2.67      0.00      3.38     66.14
 REAL TIME  *       106.82 SEC
 DISK USED  *         7.14 GB
 SF USED    *         1.07 GB
 GA USED    *         0.00 MB       (max)       0.00 MB       (current)
 **********************************************************************************************************************************
   -->
   <time start="09:39:38" end="09:40:06" cpu="24.5" system="2.93" real="28.33"/>
   <storage units="megabyte" memory="8001.84" sf="1073.49" df="2875.49" eaf="4265.96"
     ga="0.0"/>
  </jobstep><!--
 SETTING CCSD(1)        =       -37.56401615  AU

 DO I                   =         2.00000000

 Running procedure=IP1S2
  --><jobstep command="RHF-SCF" commandset="SCFPRO">
   <!--


 PROGRAM * RHF-SCF (CLOSED SHELL)       Authors: W. Meyer, H.-J. Werner


 NUMBER OF ELECTRONS:       5+    5-    SPACE SYMMETRY=1    SPIN SYMMETRY: Singlet
 CONVERGENCE THRESHOLDS:    1.00E-05 (Density)    1.00E-07 (Energy)
 MAX. NUMBER OF ITERATIONS:      150
 INTERPOLATION TYPE:            DIIS
 INTERPOLATION STEPS:              2 (START)      1 (STEP)
 LEVEL SHIFTS:                 -5.00 (CLOSED) -3.00 (OPEN)

 Number of closed-shell orbitals:    5 (   2   1   1   0   1   0   0   0 )


 Molecular orbitals read from record     2101.2  Type=RHF/CANONICAL (state 1.1)

 Molecular orbital dump at record        3202.2

 ITERATION    DDIFF          GRAD             ENERGY        2-EL.EN.            DIPOLE MOMENTS         DIIS   ORB.
    1      0.000D+00      0.000D+00       -36.93344953     40.663545    0.00000    0.00000    0.00000    0    start
[...]
                                   1 6h3-    1 6h5-

   1.3  2.00000    -1.415957    -0.000000  0.000000 -0.000000  0.000000 -0.000000  0.000000 -0.000001  0.000002 -0.000007  0.000022
                                -0.000065  0.000178 -0.000468  0.001365 -0.002569  0.017533 -0.036296  0.092759 -0.261799  0.068426
                                 0.590602 -0.051629  0.485419  0.044517  0.081117 -0.001793 -0.042245  0.000000  0.000000  0.000000
                                 0.000000  0.000000  0.000000  0.000000  0.000000  0.000000  0.000000  0.000000  0.000000  0.000000
                                 0.000000  0.000000  0.000000  0.000000  0.000000  0.000000  0.000000  0.000000  0.000000  0.000000
                                 0.000000  0.000000  0.000000  0.000000  0.000000  0.000000  0.000000  0.000000  0.000000  0.000000
                                 0.000000  0.000000

   2.3  0.33333    -0.011113     0.000000 -0.000000  0.000000 -0.000000  0.000000 -0.000000  0.000000 -0.000000  0.000001 -0.000003
                                 0.000009 -0.000025  0.000065 -0.000198  0.000137 -0.001423  0.003271 -0.019379  0.069322 -0.021314
                                -0.188352  0.041437 -0.229526 -0.592712  0.088949  0.601193  1.046750  0.000000  0.000000  0.000000
                                 0.000000  0.000000  0.000000  0.000000  0.000000  0.000000  0.000000  0.000000  0.000000  0.000000
                                 0.000000  0.000000  0.000000  0.000000  0.000000  0.000000  0.000000  0.000000  0.000000  0.000000
                                 0.000000  0.000000  0.000000  0.000000  0.000000  0.000000  0.000000  0.000000  0.000000  0.000000
                                 0.000000  0.000000

                                   1 2pz     1 2pz     1 2pz     1 2pz     1 2pz     1 2pz     1 2pz     1 2pz     1 2pz     1 2pz
                                   1 2pz     1 2pz     1 2pz     1 2pz     1 2pz     1 2pz     1 2pz     1 2pz     1 2pz     1 2pz
                                   1 2pz     1 2pz     1 2pz     1 2pz     1 2pz     1 2pz     1 2pz     1 4f0     1 4f2+    1 4f0
                                   1 4f2+    1 4f0     1 4f2+    1 4f0     1 4f2+    1 4f0     1 4f2+    1 4f0     1 4f2+    1 4f0
                                   1 4f2+    1 4f0     1 4f2+    1 4f0     1 4f2+    1 4f0     1 4f2+    1 4f0     1 4f2+    1 4f0
                                   1 4f2+    1 4f0     1 4f2+    1 6h2+    1 6h4+    1 6h0     1 6h2+    1 6h4+    1 6h0     1 6h2+
                                   1 6h4+    1 6h0

   1.5  2.00000    -1.415957    -0.000000  0.000000 -0.000000  0.000000 -0.000000  0.000000 -0.000001  0.000002 -0.000007  0.000022
                                -0.000065  0.000178 -0.000468  0.001365 -0.002569  0.017533 -0.036296  0.092759 -0.261799  0.068426
                                 0.590602 -0.051629  0.485419  0.044517  0.081117 -0.001793 -0.042245  0.000000  0.000000  0.000000
                                 0.000000  0.000000  0.000000  0.000000  0.000000  0.000000  0.000000  0.000000  0.000000  0.000000
                                 0.000000  0.000000  0.000000  0.000000  0.000000  0.000000  0.000000  0.000000  0.000000  0.000000
                                 0.000000  0.000000  0.000000  0.000000  0.000000  0.000000  0.000000  0.000000  0.000000  0.000000
                                 0.000000  0.000000

   2.5  0.33333    -0.011113     0.000000 -0.000000  0.000000 -0.000000  0.000000 -0.000000  0.000000 -0.000000  0.000001 -0.000003
                                 0.000009 -0.000025  0.000065 -0.000198  0.000137 -0.001423  0.003271 -0.019379  0.069322 -0.021314
                                -0.188352  0.041437 -0.229526 -0.592712  0.088949  0.601193  1.046750  0.000000  0.000000  0.000000
                                 0.000000  0.000000  0.000000  0.000000  0.000000  0.000000  0.000000  0.000000  0.000000  0.000000
                                 0.000000  0.000000  0.000000  0.000000  0.000000  0.000000  0.000000  0.000000  0.000000  0.000000
                                 0.000000  0.000000  0.000000  0.000000  0.000000  0.000000  0.000000  0.000000  0.000000  0.000000
                                 0.000000  0.000000


 EXTRA SYMMETRY OF MOS IN SYMMETRY 1:   1 1 2 3 1 3 2 1 3 2   4 6 5 2 3 1 6 5 4 2   3 1 6 4 5 1 2 3 4 5   6 1 2 3 1 4 5 6 2 3
                                        1 2 3 1 5 6 4 2 3 1   2 3 1 2 3 1 2 3 1 3   2 1 1 3 2 1 3 2 1 3   2 1 1 2 3 1 1 1 1 1
                                        1 1 1 1 1
 EXTRA SYMMETRY OF MOS IN SYMMETRY 2:   1 1 1 2 3 1 2 3 2 3   1 2 3 1 3 2 5 4 6 1   3 2 5 4 6 1 2 3 1 5   6 4 1 2 3 1 2 3 1 1
                                        2 3 1 2 3 1 1 3 2 1   3 2 1 1 1 1 1 1 1 1   1 1
 EXTRA SYMMETRY OF MOS IN SYMMETRY 3:   1 1 1 3 2 1 3 2 2 3   1 3 2 1 2 3 5 4 6 1   3 2 5 6 4 1 3 2 1 5   6 4 1 2 3 1 2 3 1 1
                                        2 3 1 2 3 1 1 2 3 1   3 2 1 1 1 1 1 1 1 1   1 1
 EXTRA SYMMETRY OF MOS IN SYMMETRY 4:   1 1 1 2 3 1 3 2 1 2   3 1 3 2 1 3 2 1 1 3   2 1 1 1 1 1 1 1 1 1
 EXTRA SYMMETRY OF MOS IN SYMMETRY 5:   1 1 1 2 3 1 2 3 2 3   1 3 2 1 2 3 6 5 4 1   2 3 6 4 5 1 3 2 1 6   5 4 1 3 2 1 3 2 1 1
                                        2 3 1 3 2 1 1 2 3 1   2 3 1 1 1 1 1 1 1 1   1 1
 EXTRA SYMMETRY OF MOS IN SYMMETRY 6:   1 1 1 3 2 1 2 3 1 3   2 1 2 3 1 2 3 1 1 2   3 1 1 1 1 1 1 1 1 1
 EXTRA SYMMETRY OF MOS IN SYMMETRY 8:   1 1 1 1 1 2 3 1 2 3   1 3 2 1 1 1 1 1 1

 Natural orbital dump (state averaged) at molpro section  5202.2    (Orbital set 2)


 CI vector for state symmetry 1
 ==============================

 a 0 0           1.0000000

 TOTAL ENERGIES                       -37.11995063

 CI vector for state symmetry 2
 ==============================

 0 a 0           1.0000000

 TOTAL ENERGIES                       -37.11995063

 CI vector for state symmetry 3
 ==============================

 0 0 a           1.0000000

 TOTAL ENERGIES                       -37.11995063



 **********************************************************************************************************************************
 DATASETS  * FILE   NREC   LENGTH (MB)   RECORD NAMES
              1      20       33.82       500      610      700      900      950      970     1000      129      960     1100
                                          VAR    BASINP    GEOM    SYMINP    ZMAT    AOBASIS   BASIS     P2S    ABASIS      S
                                         1400     1410     1420     1200     1210     1080     1600     1650     1700     1380
                                           T        V       ECP      H0       H01     AOSYM     SMH    MOLCAS    OPER     JKOP

              2       8       16.16       200      700     1000      520     4202     5202     2101     3202
                                        OPTIONS   GEOM     BASIS   MCVARS     RHF     MCSCF     RHF      RHF

 PROGRAMS   *        TOTAL     MULTI       POP       RHF       RHF  RCCSD(T)       RHF     MULTI       POP       RHF       INT
 CPU TIMES  *       103.86      2.74      0.00      1.74      1.98     24.45      0.13      2.67      0.00      3.38     66.14
 REAL TIME  *       113.94 SEC
 DISK USED  *         7.14 GB
 SF USED    *         1.07 GB
 GA USED    *         0.00 MB       (max)       0.00 MB       (current)
 **********************************************************************************************************************************
   -->
   <time start="09:40:10" end="09:40:13" cpu="2.75" system="0.15" real="2.91"/>
   <storage units="megabyte" memory="8001.84" sf="1073.49" df="2875.49" eaf="4265.96"
     ga="0.0"/>
  </jobstep><!--
  --><jobstep command="RHF-SCF" commandset="SCFPRO">
   <!--


 PROGRAM * RHF-SCF (OPEN SHELL)       Authors: W. Meyer, H.-J. Werner


 NUMBER OF ELECTRONS:       6+    5-    SPACE SYMMETRY=2    SPIN SYMMETRY: Doublet
 CONVERGENCE THRESHOLDS:    1.00E-05 (Density)    1.00E-07 (Energy)
 MAX. NUMBER OF ITERATIONS:        0
 INTERPOLATION TYPE:            DIIS
 INTERPOLATION STEPS:              2 (START)      1 (STEP)
 LEVEL SHIFTS:                 -0.60 (CLOSED) -0.30 (OPEN)

 Number of closed-shell orbitals:    5 (   2   1   1   0   1   0   0   0 )
 Number of open-shell orbitals:      1 (   0   1   0   0   0   0   0   0 )


 Molecular orbitals read from record     5202.2  Type=MCSCF/NATURAL (state averaged)

 Molecular orbital dump at record        2104.2

 ITERATION    DDIFF          GRAD             ENERGY        2-EL.EN.            DIPOLE MOMENTS         DIIS   ORB.
    1      0.000D+00      0.000D+00       -37.11995063     46.145402    0.00000    0.00000    0.00000    0    start

 Final alpha occupancy:   2   2   1   0   1   0   0   0
 Final beta  occupancy:   2   1   1   0   1   0   0   0

 !RHF STATE 1.2 Energy                -37.119950634509
   --><property name="Energy" method="RHF" principal="true" stateSymmetry="2" stateNumber="1"
     value="-37.1199506345092"/><!--
 Nuclear energy                         0.00000000
 One-electron energy                  -60.19265163
 Two-electron energy                   23.07270100
 Virial quotient                       -3.38813345
 !RHF STATE 1.2 Dipole moment           0.00000000     0.00000000     0.00000000
 Dipole moment /Debye                   0.00000000     0.00000000     0.00000000
   --><property name="Dipole moment" method="RHF" principal="true" stateSymmetry="2"
     stateNumber="1" value="0.0 0.0 0.0"/><!--

 Orbital energies:

         1.1          2.1          3.1          4.1
     -2.433054    -0.266222    -0.008091    -0.008091

         1.2          2.2          3.2          4.2
     -1.415957    -0.011113     0.063300     0.115550

         1.3          2.3          3.3
     -1.415957    -0.011113     0.063300

         1.4          2.4
     -0.008091     0.075211

         1.5          2.5          3.5
     -1.415957    -0.011113     0.063300

         1.6          2.6
     -0.008091     0.075211

         1.7          2.7
     -0.008091     0.075211

         1.8          2.8
      0.115550     0.285560

 HOMO      2.2    -0.011113 =      -0.3024eV
 LUMO      2.3    -0.011113 =      -0.3024eV
 LUMO-HOMO        -0.000000 =      -0.0000eV


 **********************************************************************************************************************************
 DATASETS  * FILE   NREC   LENGTH (MB)   RECORD NAMES
              1      20       33.82       500      610      700      900      950      970     1000      129      960     1100
                                          VAR    BASINP    GEOM    SYMINP    ZMAT    AOBASIS   BASIS     P2S    ABASIS      S
                                         1400     1410     1420     1200     1210     1080     1600     1650     1700     1380
                                           T        V       ECP      H0       H01     AOSYM     SMH    MOLCAS    OPER     JKOP

              2       9       19.72       200      700     1000      520     4202     5202     2101     3202     2104
                                        OPTIONS   GEOM     BASIS   MCVARS     RHF     MCSCF     RHF      RHF      RHF

 PROGRAMS   *        TOTAL       RHF     MULTI       POP       RHF       RHF  RCCSD(T)       RHF     MULTI       POP       RHF
 CPU TIMES  *       103.96      0.10      2.74      0.00      1.74      1.98     24.45      0.13      2.67      0.00      3.38
 REAL TIME  *       114.09 SEC
 DISK USED  *         7.14 GB
 SF USED    *         1.07 GB
 GA USED    *         0.00 MB       (max)       0.00 MB       (current)
 **********************************************************************************************************************************
   -->
   <time start="09:40:13" end="09:40:13" cpu="0.1" system="0.03" real="0.15"/>
   <storage units="megabyte" memory="8001.84" sf="1073.49" df="2875.49" eaf="4265.96"
     ga="0.0"/>
  </jobstep><!--
 SETTING SCF(2)         =       -37.11995063  AU
 SETTING _CC_NORM_MAX   =         2.00000000
  --><jobstep command="RCCSD(T)" commandset="CCSD">
   <!--


 PROGRAM * CCSD (Restricted open-shell coupled cluster)     Authors: C. Hampel, H.-J. Werner, 1991, M. Deegan, P.J. Knowles, 1992


 Convergence thresholds:  THRVAR = 1.00D-08  THRDEN = 1.00D-06

 CCSD(T)     terms to be evaluated (factor= 1.000)


 Number of closed-shell orbitals:   5 (   2   1   1   0   1   0   0   0 )
 Number of active  orbitals:        1 (   0   1   0   0   0   0   0   0 )
 Number of external orbitals:     374 (  83  60  61  30  61  30  30  19 )

 Memory could be reduced to 87.46 Mwords without degradation in triples

 Number of N-1 electron functions:              11
 Number of N-2 electron functions:              55
 Number of singly external CSFs:               759
 Number of doubly external CSFs:            788797
 Total number of CSFs:                      789556

 Molecular orbitals read from record     2104.2  Type=RHF/CANONICAL (state 1.2)

 Integral transformation finished. Total CPU:   1.60 sec, npass=  1  Memory used:  12.55 MW

 Starting RMP2 calculation

 Wavefunction is spin-projected

 ITER.      SQ.NORM     CORR.ENERGY   TOTAL ENERGY   ENERGY CHANGE        DEN1      VAR(S)    VAR(P)  DIIS     TIME
   1      1.10274124    -0.31716039   -37.43711103    -0.31716039    -0.00671769  0.26D-03  0.38D-02  1  1     1.88
   2      1.11711053    -0.32519411   -37.44514474    -0.00803372    -0.00042718  0.54D-04  0.37D-03  2  2     1.95
   3      1.12413498    -0.32707722   -37.44702785    -0.00188311    -0.00001745  0.36D-05  0.13D-04  3  3     2.04
   4      1.12528622    -0.32726834   -37.44721897    -0.00019112    -0.00000109  0.23D-06  0.85D-06  4  4     2.12
   5      1.12540480    -0.32727813   -37.44722877    -0.00000979    -0.00000005  0.10D-07  0.34D-07  5  5     2.22
   6      1.12541472    -0.32727872   -37.44722936    -0.00000059    -0.00000000  0.76D-09  0.15D-08  6  6     2.32

 Norm of t1 vector:      0.05999150      S-energy:    -0.00174687      T1 diagnostic:  0.00362777
 Norm of t2 vector:      0.34902112      P-energy:    -0.32553185
                                         Alpha-Beta:  -0.24912122
                                         Alpha-Alpha: -0.04033137
                                         Beta-Beta:   -0.03607927

 Spin contamination <S**2-Sz**2-Sz>     0.00000000
  Reference energy                    -37.119950634509
   --><property name="energy" method="Reference" stateSymmetry="1" stateNumber="1"
     value="-37.1199506345091"/><!--
  RHF-RMP2 correlation energy          -0.327278724821
   --><property name="energy" method="RHF-RMP2 correlation" stateSymmetry="1" stateNumber="1"
     value="-0.327278724821324"/><!--
 !RHF-RMP2 energy                     -37.447229359330
   --><property name="energy" method="RHF-RMP2" principal="true" stateSymmetry="2"
     stateNumber="1" value="-37.4472293593304"/><!--
 (NB above energy spin projected)

 Starting RCCSD calculation

 ITER.      SQ.NORM     CORR.ENERGY   TOTAL ENERGY   ENERGY CHANGE        DEN1      VAR(S)    VAR(P)  DIIS     TIME
   1      1.10511860    -0.31994952   -37.43990015    -0.31994952    -0.01100851  0.11D-02  0.48D-02  1  1     3.26
   2      1.13117225    -0.33257361   -37.45252425    -0.01262409    -0.00181153  0.44D-03  0.13D-02  2  2     4.13
   3      1.15490884    -0.33687284   -37.45682348    -0.00429923    -0.00073129  0.19D-03  0.57D-03  3  3     4.93
   4      1.18800240    -0.34048383   -37.46043446    -0.00361098    -0.00028749  0.81D-04  0.22D-03  4  4     5.72
   5      1.21576609    -0.34234977   -37.46230040    -0.00186594    -0.00012794  0.49D-04  0.87D-04  5  5     6.54
   6      1.24122098    -0.34345412   -37.46340475    -0.00110435    -0.00005221  0.31D-04  0.26D-04  6  6     7.36
   7      1.25704277    -0.34402203   -37.46397266    -0.00056791    -0.00002762  0.21D-04  0.96D-05  7  7     8.17
   8      1.26633816    -0.34424253   -37.46419317    -0.00022050    -0.00001723  0.16D-04  0.38D-05  8  8     9.31
   9      1.27475648    -0.34440552   -37.46435615    -0.00016299    -0.00001243  0.13D-04  0.19D-05  9  9    10.31
  10      1.28104622    -0.34446471   -37.46441534    -0.00005919    -0.00000957  0.93D-05  0.18D-05 10 10    11.25
  11      1.29093848    -0.34450919   -37.46445982    -0.00004448    -0.00000653  0.53D-05  0.20D-05 11 11    12.34
  12      1.30431232    -0.34453889   -37.46448953    -0.00002970    -0.00000365  0.19D-05  0.19D-05 12 12    13.59
  13      1.31888892    -0.34452850   -37.46447914     0.00001039    -0.00000115  0.40D-06  0.74D-06 13 13    14.72
  14      1.32683990    -0.34454126   -37.46449189    -0.00001275    -0.00000032  0.94D-07  0.22D-06 14 14    15.59
  15      1.32866375    -0.34453249   -37.46448313     0.00000877    -0.00000010  0.21D-07  0.74D-07 15 15    16.50
  16      1.32914980    -0.34453449   -37.46448512    -0.00000200    -0.00000004  0.75D-08  0.37D-07 15  1    17.58
  17      1.32959862    -0.34453385   -37.46448448     0.00000064    -0.00000002  0.26D-08  0.15D-07 15  2    18.48
  18      1.32992723    -0.34453415   -37.46448478    -0.00000030    -0.00000001  0.77D-09  0.46D-08 15  3    19.37

 Norm of t1 vector:      0.31844711      S-energy:    -0.00356448      T1 diagnostic:  0.06236482
                                                                       D1 diagnostic:  0.20075717
 Norm of t2 vector:      0.47803626      P-energy:    -0.34096967
                                         Alpha-Beta:  -0.27027123
                                         Alpha-Alpha: -0.03749981
                                         Beta-Beta:   -0.03319863

 Singles amplitudes (print threshold =  0.500E-01):

         I         SYM. A    A   T(IA) [Alpha-Alpha]

         2         1         2      0.08419995
         4         2         2      0.05221358

         I         SYM. A    A   T(IA) [Beta-Beta]

         2         1         1      0.13667319
         2         1         2      0.23570336

 Doubles amplitudes (print threshold =  0.500E-01):

         I         J         SYM. A    SYM. B    A         B      T(IJ, AB) [Alpha-Beta]

         2         2         1         1         1         1     -0.07755786
         2         2         1         1         2         2     -0.07833704
         2         2         3         3         1         1     -0.09342466
         2         2         4         4         1         1     -0.07275483
         2         2         5         5         1         1     -0.09350115
         2         2         6         6         1         1     -0.07285564
         2         2         7         7         1         1     -0.07701951
         4         2         1         2         1         1      0.08761004
         4         2         1         2         2         1      0.15150341
         4         2         3         4         1         1      0.10788224
         4         2         4         3         1         1      0.13492692
         4         2         5         6         1         1      0.10799517
         4         2         6         5         1         1      0.13502127

 Spin contamination <S**2-Sz**2-Sz>     0.00000000

 Memory could be reduced to 87.19 Mwords without degradation in triples


 RESULTS
 =======

  Reference energy                    -37.119950634509
   --><property name="energy" method="Reference" stateSymmetry="1" stateNumber="1"
     value="-37.1199506345091"/><!--
  RCCSD singles energy                 -0.003564482830
   --><property name="energy" method="RCCSD singles" stateSymmetry="1" stateNumber="1"
     value="-0.356448283032218E-02"/><!--
  RCCSD pair energy                    -0.340969665358
   --><property name="energy" method="RCCSD pair" stateSymmetry="1" stateNumber="1"
     value="-0.340969665357928"/><!--
  RCCSD correlation energy             -0.344534148188
   --><property name="energy" method="RCCSD correlation" stateSymmetry="1" stateNumber="1"
