<?xml version="1.0"?>
<molpro xmlns="http://www.molpro.net/schema/molpro-output"
  xmlns:xsd="http://www.w3.org/1999/XMLSchema"
  xmlns:cml="http://www.xml-cml.org/schema"
  xmlns:stm="http://www.xml-cml.org/schema"
  xmlns:xhtml="http://www.w3.org/1999/xhtml">
 <!--

 Nodes     nprocs
 nid01883    11
 Number of processes for MPI-2 version of Molpro:   nprocs(total)=   12   nprocs(compute)=   11   nprocs(helper)=    1

 Using customized tuning parameters: mindgm=7; mindgv=16; mindgc=1; mindgr=1; noblas=0; minvec=7
 default implementation of scratch files=sf

 --><job>
  <!--

 Variables initialized (889), CPU time= 0.02 sec
 Commands  initialized (702), CPU time= 0.01 sec, 572 directives.
 Default parameters read. Elapsed time= 0.11 sec

 Checking input...
 Passed
1


                                         ***  PROGRAM SYSTEM MOLPRO  ***
                                       Copyright, TTI GmbH Stuttgart, 2015
                                    Version 2015.1 linked Dec 29 2018 15:55:43


 **********************************************************************************************************************************
 LABEL *   Calculation for Y atom, singlet and triplet
  64 bit mpp version                                                                     DATE: 24-Sep-22          TIME: 19:41:57
 **********************************************************************************************************************************

 SHA1:             19cd028119e0e09f93f0674bd8af7968d9b3eff6
 **********************************************************************************************************************************
  -->
  <!--

 THRESHOLDS:

 ZERO    =  1.00D-12  ONEINT  =  1.00D-12  TWOINT  =  1.00D-15  PREFAC  =  1.00D-14  LOCALI  =  1.00D-09  EORDER  =  1.00D-04
 ENERGY  =  0.00D+00  ETEST   =  0.00D+00  EDENS   =  0.00D+00  THRDEDEF=  1.00D-06  GRADIENT=  1.00D-02  STEP    =  1.00D-03
 ORBITAL =  1.00D-05  CIVEC   =  1.00D-05  COEFF   =  1.00D-04  PRINTCI =  5.00D-02  PUNCHCI =  9.90D+01  OPTGRAD =  3.00D-04
 OPTENERG=  1.00D-06  OPTSTEP =  3.00D-04  THRGRAD =  1.00D-10  COMPRESS=  1.00D-11  VARMIN  =  1.00D-07  VARMAX  =  1.00D-03
 THRDOUB =  0.00D+00  THRDIV  =  1.00D-05  THRRED  =  1.00D-07  THRPSP  =  1.00D+00  THRDC   =  1.00D-10  THRCS   =  1.00D-10
 THRNRM  =  1.00D-08  THREQ   =  0.00D+00  THRDE   =  1.00D+00  THRREF  =  1.00D-05  SPARFAC =  1.00D+00  THRDLP  =  1.00D-07
 THRDIA  =  1.00D-10  THRDLS  =  1.00D-07  THRGPS  =  0.00D+00  THRKEX  =  0.00D+00  THRDIS  =  2.00D-01  THRVAR  =  1.00D-10
 THRLOC  =  1.00D-06  THRGAP  =  1.00D-06  THRLOCT = -1.00D+00  THRGAPT = -1.00D+00  THRORB  =  1.00D-06  THRMLTP =  0.00D+00
 THRCPQCI=  1.00D-10  KEXTA   =  0.00D+00  THRCOARS=  0.00D+00  SYMTOL  =  1.00D-06  GRADTOL =  1.00D-06  THROVL  =  1.00D-08
 THRORTH =  1.00D-08  GRID    =  1.00D-06  GRIDMAX =  1.00D-03  DTMAX   =  0.00D+00  THROCCDE=  1.00D-01  THROCCDE=  1.00D-01



 THRESHOLDS:

 ZERO    =  1.00D-12  ONEINT  =  1.00D-12  TWOINT  =  1.00D-15  PREFAC  =  1.00D-14  LOCALI  =  1.00D-09  EORDER  =  1.00D-04
 ENERGY  =  0.00D+00  ETEST   =  0.00D+00  EDENS   =  0.00D+00  THRDEDEF=  1.00D-06  GRADIENT=  1.00D-02  STEP    =  1.00D-03
 ORBITAL =  1.00D-05  CIVEC   =  1.00D-05  COEFF   =  1.00D-04  PRINTCI =  5.00D-02  PUNCHCI =  9.90D+01  OPTGRAD =  3.00D-04
 OPTENERG=  1.00D-06  OPTSTEP =  3.00D-04  THRGRAD =  1.00D-10  COMPRESS=  1.00D-11  VARMIN  =  1.00D-07  VARMAX  =  1.00D-03
 THRDOUB =  0.00D+00  THRDIV  =  1.00D-05  THRRED  =  1.00D-07  THRPSP  =  1.00D+00  THRDC   =  1.00D-10  THRCS   =  1.00D-10
 THRNRM  =  1.00D-08  THREQ   =  0.00D+00  THRDE   =  1.00D+00  THRREF  =  1.00D-05  SPARFAC =  1.00D+00  THRDLP  =  1.00D-07
 THRDIA  =  1.00D-10  THRDLS  =  1.00D-07  THRGPS  =  0.00D+00  THRKEX  =  0.00D+00  THRDIS  =  2.00D-01  THRVAR  =  1.00D-10
 THRLOC  =  1.00D-06  THRGAP  =  1.00D-06  THRLOCT = -1.00D+00  THRGAPT = -1.00D+00  THRORB  =  1.00D-06  THRMLTP =  0.00D+00
 THRCPQCI=  1.00D-10  KEXTA   =  0.00D+00  THRCOARS=  0.00D+00  SYMTOL  =  1.00D-06  GRADTOL =  1.00D-06  THROVL  =  1.00D-15
 THRORTH =  1.00D-08  GRID    =  1.00D-06  GRIDMAX =  1.00D-03  DTMAX   =  0.00D+00  THROCCDE=  1.00D-01  THROCCDE=  1.00D-01



 Variable memory set to 1000000000 words,  buffer space   230000 words

 SETTING BASIS          =    USERDEF
 SETTING ZR_CCSD        =       -46.40001722
 SETTING H_CCSD         =        -0.49982987
 SETTING NE             =        13.00000000
 SETTING SYMM           =         1.00000000
 SETTING SS             =         1.00000000
 SETTING A1             =         5.00000000
 SETTING B1             =         1.00000000
 SETTING B2             =         1.00000000
 SETTING A2             =     0.00000000D+00

Geometry recognized as XYZ

  --><jobstep command="RHF-SCF" commandset="SCFPRO">
   <!--


 Recomputing integrals since basis changed


 Using spherical harmonics



 PROGRAM * SEWARD (Integral evaluation for generally contracted gaussian basis sets)     Author: Roland Lindh, 1990

 Geometry written to block  1 of record 700


 Point group  C2v


   --><cml:molecule>
    <cml:symmetry pointGroup="C2v"/>
    <cml:atomArray>
     <cml:atom id="a1" elementType="Zr" x3="0.0" y3="0.0" z3="0.0"/>
     <cml:atom id="a2" elementType="H" x3="0.0" y3="0.0" z3="1.2"/>
    </cml:atomArray>
    <cml:bondArray>
     <cml:bond atomRefs2="a1 a2"/>
    </cml:bondArray>
   </cml:molecule><!--

 ATOMIC COORDINATES

 NR  ATOM    CHARGE       X              Y              Z

   1  ZR     12.00    0.000000000    0.000000000    0.000000000
   2  H       1.00    0.000000000    0.000000000    2.267671349

 Bond lengths in Bohr (Angstrom)

 1-2  2.267671349
     ( 1.200000000)

 NUCLEAR CHARGE:                   13
 NUMBER OF PRIMITIVE AOS:         347
 NUMBER OF SYMMETRY AOS:          295
 NUMBER OF CONTRACTIONS:          295   ( 129A1  +  67B1  +  67B2  +  32A2  )
 NUMBER OF CORE ORBITALS:           4   (   2A1  +   1B1  +   1B2  +   0A2  )
 NUMBER OF VALENCE ORBITALS:        7   (   4A1  +   1B1  +   1B2  +   1A2  )


 NUCLEAR REPULSION ENERGY    5.29177211

 EXTRA SYMMETRY OF AOS IN SYMMETRY 1:   1 1 1 1 1 1 1 1 1 1   1 1 1 1 1 1 1 1 1 1   1 1 1 1 1 1 1 1 1 1   1 1 1 1 1 1 1 1 1 1
                                        1 1 1 1 1 1 1 1 1 1   1 1 1 1 1 1 1 1 1 1   2 1 2 1 2 1 2 1 2 1   2 1 2 1 2 1 2 1 2 1
                                        2 1 2 1 2 1 2 1 2 1   2 1 2 1 2 1 2 1 2 1   2 1 2 1 2 1 2 1 3 2   1 3 2 1 3 2 1 1 1 1
                                        1 1 1 1 1 1 2 1 2
 EXTRA SYMMETRY OF AOS IN SYMMETRY 2:   1 1 1 1 1 1 1 1 1 1   1 1 1 1 1 1 1 1 1 1   1 1 1 1 1 1 1 1 1 1   1 1 1 1 1 1 1 1 1 1
                                        1 1 1 1 1 1 1 1 1 2   1 2 1 2 1 2 1 2 1 2   1 2 1 1 1 1 1
 EXTRA SYMMETRY OF AOS IN SYMMETRY 3:   1 1 1 1 1 1 1 1 1 1   1 1 1 1 1 1 1 1 1 1   1 1 1 1 1 1 1 1 1 1   1 1 1 1 1 1 1 1 1 1
                                        1 1 1 1 1 1 1 1 1 2   1 2 1 2 1 2 1 2 1 2   1 2 1 1 1 1 1
 EXTRA SYMMETRY OF AOS IN SYMMETRY 4:   1 1 1 1 1 1 1 1 1 1   1 1 1 1 1 1 1 1 1 1   1 1 1 1 1 2 1 2 1 2   1 1

 Eigenvalues of metric

         1 0.115E-07 0.885E-07 0.978E-07 0.111E-06 0.503E-06 0.998E-06 0.316E-05 0.643E-05
         2 0.122E-07 0.976E-07 0.117E-06 0.104E-05 0.805E-05 0.108E-04 0.356E-04 0.404E-04
         3 0.122E-07 0.976E-07 0.117E-06 0.104E-05 0.805E-05 0.108E-04 0.356E-04 0.404E-04
         4 0.978E-07 0.108E-04 0.404E-04 0.435E-03 0.212E-02 0.594E-02 0.164E-01 0.365E-01


 Contracted 2-electron integrals neglected if value below      1.0D-15
 AO integral compression algorithm  1   Integral accuracy      1.0D-15

     1302.856 MB (compressed) written to integral file ( 58.4%)

     Node minimum: 49.021 MB, node maximum: 335.282 MB


 NUMBER OF SORTED TWO-ELECTRON INTEGRALS:   22424184.     BUFFER LENGTH:  32768
 NUMBER OF SEGMENTS:   2  SEGMENT LENGTH:   15994395      RECORD LENGTH: 524288

 Memory used in sort:      16.55 MW

 SORT1 READ   279023068. AND WROTE    10455375. INTEGRALS IN     31 RECORDS. CPU TIME:     5.58 SEC, REAL TIME:     6.41 SEC
 SORT2 READ   115604372. AND WROTE   246753875. INTEGRALS IN   2343 RECORDS. CPU TIME:     0.61 SEC, REAL TIME:     1.32 SEC

 Node minimum:    22405599.  Node maximum:    22490595. integrals

 OPERATOR DM      FOR CENTER  0  COORDINATES:    0.000000    0.000000    0.000000


 **********************************************************************************************************************************
 DATASETS  * FILE   NREC   LENGTH (MB)   RECORD NAMES
              1      19       21.07       500      610      700      900      950      970     1000      129      960     1100
                                          VAR    BASINP    GEOM    SYMINP    ZMAT    AOBASIS   BASIS     P2S    ABASIS      S
                                         1400     1410     1420     1200     1210     1080     1600     1650     1700
                                           T        V       ECP      H0       H01     AOSYM     SMH    MOLCAS    OPER

 PROGRAMS   *        TOTAL       INT
 CPU TIMES  *        59.31     58.93
 REAL TIME  *        62.08 SEC
 DISK USED  *         2.75 GB
 GA USED    *         0.00 MB       (max)       0.00 MB       (current)
 **********************************************************************************************************************************


 PROGRAM * RHF-SCF (OPEN SHELL)       Authors: W. Meyer, H.-J. Werner


 NUMBER OF ELECTRONS:       7+    6-    SPACE SYMMETRY=1    SPIN SYMMETRY: Doublet
 CONVERGENCE THRESHOLDS:    1.00E-05 (Density)    1.00E-07 (Energy)
 MAX. NUMBER OF ITERATIONS:      200
 INTERPOLATION TYPE:            DIIS
 INTERPOLATION STEPS:              2 (START)      1 (STEP)
 LEVEL SHIFTS:                 -0.60 (CLOSED) -0.30 (OPEN)

 Number of closed-shell orbitals:    6 (   4   1   1   0 )
 Number of open-shell orbitals:      1 (   1   0   0   0 )


 Orbital guess generated from atomic densities. Full valence occupancy:    6   2   2   1

 Molecular orbital dump at record        2100.2

 ITERATION    DDIFF          GRAD             ENERGY        2-EL.EN.            DIPOLE MOMENTS         DIIS   ORB.
    1      0.000D+00      0.000D+00       -46.05736364     62.734464    0.00000    0.00000    0.21756    0    start
    2      0.000D+00      0.113D-01       -46.22537041     66.554020    0.00000    0.00000    1.04562    1    diag,B
    3      0.680D-01      0.367D-02       -46.26735535     67.988848    0.00000    0.00000    1.16240    2    diag,B
    4      0.255D-01      0.193D-02       -46.29288941     69.131428    0.00000    0.00000    1.07563    3    diag,B
    5      0.187D-01      0.917D-03       -46.30407383     69.732794    0.00000    0.00000    0.87779    4    diag,B
    6      0.124D-01      0.476D-03       -46.30804874     69.986311    0.00000    0.00000    0.70334    5    diag,B
    7      0.746D-02      0.191D-03       -46.30865833     70.063163    0.00000    0.00000    0.64156    6    diag,B
    8      0.412D-02      0.847D-04       -46.30876153     70.083909    0.00000    0.00000    0.61921    7    diag,B
    9      0.194D-02      0.408D-04       -46.30878373     70.089562    0.00000    0.00000    0.60797    8    diag,B
   10      0.134D-02      0.165D-04       -46.30878698     70.090119    0.00000    0.00000    0.60326    9    orth
   11      0.703D-03      0.845D-05       -46.30878798     70.089508    0.00000    0.00000    0.60066    9    diag,B
   12      0.136D-03      0.373D-05       -46.30878818     70.089005    0.00000    0.00000    0.59941    9    diag,B
   13      0.162D-03      0.148D-05       -46.30878821     70.088762    0.00000    0.00000    0.59923    9    diag,B
   14      0.523D-04      0.522D-06       -46.30878821     70.088772    0.00000    0.00000    0.59920    9    diag,B
   15      0.314D-04      0.219D-06       -46.30878821     70.088761    0.00000    0.00000    0.59924    9    diag,B
   16      0.111D-04      0.999D-07       -46.30878821     70.088753    0.00000    0.00000    0.59927    9    diag,B
   17      0.559D-05      0.570D-07       -46.30878821     70.088749    0.00000    0.00000    0.59928    0    orth

 Final alpha occupancy:   5   1   1   0
 Final beta  occupancy:   4   1   1   0

 !RHF STATE 1.1 Energy                -46.308788211525
   --><property name="Energy" method="RHF" principal="true" stateSymmetry="1" stateNumber="1"
     value="-46.3087882115247"/><!--
 Nuclear energy                         5.29177211
 One-electron energy                  -86.64493470
 Two-electron energy                   35.04437438
 Virial quotient                       -3.07148087
 !RHF STATE 1.1 Dipole moment           0.00000000     0.00000000     0.59927621
 Dipole moment /Debye                   0.00000000     0.00000000     1.52310842
   --><property name="Dipole moment" method="RHF" principal="true" stateSymmetry="1"
     stateNumber="1" value="0.0 0.0 0.599276206891066"/><!--

 ELECTRON ORBITALS
 =================


   Orb  Occ    Energy  Couls-En    Coefficients

                                   1 1s      1 1s      1 1s      1 1s      1 1s      1 1s      1 1s      1 1s      1 1s      1 1s
                                   1 1s      1 1s      1 1s      1 1s      1 1s      1 1s      1 1s      1 1s      1 1s      1 1s
                                   1 1s      1 1s      1 1s      1 1s      1 1s      1 1s      1 1s      1 1s      1 1s      1 1s
                                   1 1s      1 2pz     1 2pz     1 2pz     1 2pz     1 2pz     1 2pz     1 2pz     1 2pz     1 2pz
                                   1 2pz     1 2pz     1 2pz     1 2pz     1 2pz     1 2pz     1 2pz     1 2pz     1 2pz     1 2pz
                                   1 2pz     1 2pz     1 2pz     1 2pz     1 2pz     1 2pz     1 2pz     1 2pz     1 2pz     1 3d0
                                   1 3d2+    1 3d0     1 3d2+    1 3d0     1 3d2+    1 3d0     1 3d2+    1 3d0     1 3d2+    1 3d0
                                   1 3d2+    1 3d0     1 3d2+    1 3d0     1 3d2+    1 3d0     1 3d2+    1 3d0     1 3d2+    1 3d0
                                   1 3d2+    1 3d0     1 3d2+    1 3d0     1 3d2+    1 3d0     1 3d2+    1 3d0     1 3d2+    1 3d0
                                   1 3d2+    1 3d0     1 3d2+    1 3d0     1 3d2+    1 3d0     1 3d2+    1 3d0     1 3d2+    1 4f0
                                   1 4f2+    1 4f0     1 4f2+    1 4f0     1 4f2+    1 4f0     1 4f2+    1 5g0     1 5g4+    1 5g2+
                                   1 5g0     1 5g4+    1 5g2+    1 5g0     1 5g4+    1 5g2+    2 1s      2 1s      2 1s      2 1s
                                   2 1s      2 1s      2 2pz     2 2pz     2 2pz     2 3d0     2 3d2+    2 3d0     2 3d2+

   1.1   2    -2.5577  -11.3638  0.000000 -0.000000  0.000000 -0.000000  0.000000 -0.000000  0.000000 -0.000000  0.000001 -0.000003
                                 0.000008 -0.000023  0.000083 -0.000574  0.001773 -0.002158  0.001466 -0.000713 -0.024802 -0.031263
                                 0.371252 -0.638970  0.029623 -0.203968  0.775857  0.557523 -0.028511  0.043620 -0.017152  0.014940
                                -0.000623  0.000000 -0.000000  0.000000 -0.000000  0.000000 -0.000001  0.000002 -0.000007  0.000024
                                -0.000086  0.000392 -0.008231  0.013817 -0.028671  0.076035 -0.144624  0.165204 -0.162875  0.367045
                                -0.481198  0.279837 -0.077101  0.087675 -0.080445  0.005476 -0.001473  0.003707  0.000176  0.000000
                                 0.000000 -0.000000 -0.000000  0.000002  0.000000 -0.000011 -0.000000  0.000057  0.000000 -0.001027
                                -0.000000  0.001316  0.000000 -0.000711 -0.000000  0.001373  0.000000 -0.008627 -0.000000  0.056886
                                 0.000000 -0.161193 -0.000000  0.438795  0.000000 -0.388681 -0.000000  0.061358  0.000000 -0.017912
                                -0.000000  0.004572 -0.000000 -0.002248 -0.000000  0.000610 -0.000000  0.000319 -0.000000  0.000980
                                 0.000000 -0.001648  0.000000 -0.003397 -0.000000 -0.000380 -0.000000  0.000899  0.000000  0.000000
                                 0.001130 -0.000000  0.000000 -0.000609  0.000000  0.000000  0.000631  0.006089  0.022249  0.037949
                                -0.009760 -0.010888 -0.008530 -0.008995  0.006772  0.003046 -0.000000 -0.000736 -0.000000

   2.1   2    -1.6395   -9.4138  0.000000 -0.000000  0.000000 -0.000000  0.000000 -0.000000  0.000000 -0.000000  0.000000 -0.000000
                                 0.000000 -0.000000  0.000002 -0.000006  0.000029 -0.000019  0.000043 -0.000250  0.002980 -0.001182
                                -0.019187  0.036165  0.034193 -0.025173 -0.042902 -0.037752 -0.065686  0.003766 -0.001058 -0.000406
                                 0.000361  0.000000 -0.000000  0.000000 -0.000000  0.000000 -0.000001  0.000003 -0.000015  0.000041
                                -0.000148 -0.000645  0.015580 -0.023202 -0.009362  0.024440  0.021922 -0.080485 -0.111563  0.071027
                                 0.072149  0.138168  0.461051  0.392572 -0.105349  0.032360 -0.005015  0.000975 -0.000240  0.000000
                                -0.000000 -0.000001  0.000000  0.000004 -0.000000 -0.000019  0.000000  0.000088 -0.000000 -0.001699
                                 0.000000  0.002149 -0.000000 -0.001245  0.000000  0.002063 -0.000000 -0.014315  0.000000  0.089980
                                 0.000000 -0.232298 -0.000000  0.618094  0.000000 -0.529741 -0.000000  0.091752  0.000000 -0.025599
                                 0.000000  0.002560 -0.000000 -0.002824  0.000000 -0.000012 -0.000000  0.000038  0.000000  0.006311
                                 0.000000  0.005810  0.000000 -0.003739  0.000000 -0.000364  0.000000  0.002216 -0.000000 -0.000000
                                 0.000426 -0.000000  0.000000 -0.001986  0.000000 -0.000000  0.001744  0.017994  0.066723  0.128353
                                -0.001782 -0.000663 -0.016135 -0.029857  0.006438  0.004901  0.000000  0.001629  0.000000

   3.1   2    -0.5598   -6.2387 -0.000000  0.000000 -0.000000  0.000000 -0.000000  0.000000 -0.000000  0.000000 -0.000000  0.000000
                                -0.000000  0.000001 -0.000005  0.000039 -0.000104  0.000150 -0.000059 -0.000306  0.006849 -0.001873
                                -0.052500  0.108071  0.024895 -0.005987 -0.152399 -0.136142 -0.126191 -0.048172 -0.034447 -0.013876
                                -0.004180 -0.000000  0.000000 -0.000000  0.000000 -0.000000  0.000000 -0.000000  0.000002 -0.000003
                                 0.000009  0.000436 -0.010019  0.015855 -0.012419  0.033599 -0.093008  0.137940 -0.082776  0.285042
                                -0.469338  0.215380 -0.261650 -0.035718 -0.172401 -0.056997 -0.023432  0.006789 -0.002350  0.000000
                                -0.000000 -0.000003  0.000000  0.000008 -0.000000 -0.000073  0.000000  0.000185 -0.000000 -0.005366
                                 0.000000  0.006393 -0.000000 -0.004891  0.000000  0.002831 -0.000000 -0.024862  0.000000  0.250699
                                -0.000000 -0.592172  0.000000  2.204123 -0.000001 -2.074799  0.000001  0.697091 -0.000000  0.102103
                                -0.000000  0.071500 -0.000000  0.022606 -0.000000 -0.003595 -0.000000  0.000265 -0.000000  0.019656
                                -0.000000  0.023287 -0.000000 -0.003824 -0.000000 -0.003045 -0.000000  0.002187 -0.000000  0.000000
                                -0.001646  0.000000  0.000000 -0.006033 -0.000000 -0.000000  0.004042  0.043250  0.175808  0.489346
                                 0.273425  0.028347 -0.015285 -0.070954 -0.009634  0.004566  0.000000  0.003463  0.000000

   4.1   2    -0.2826   -4.3327 -0.000000  0.000000 -0.000000  0.000000 -0.000000  0.000000 -0.000000  0.000000 -0.000000  0.000001
                                -0.000002  0.000007 -0.000024  0.000170 -0.000516  0.000644 -0.000415  0.000008  0.011400  0.001918
                                -0.117061  0.238938 -0.049887  0.090346 -0.350225 -0.416710  0.063437  0.409509  0.537963  0.193877
                                -0.004346 -0.000000  0.000000 -0.000000  0.000000 -0.000000  0.000000 -0.000001  0.000004 -0.000011
                                 0.000041 -0.000099  0.001954 -0.003461  0.010974 -0.029257  0.050624 -0.051549  0.058470 -0.102238
                                 0.104013 -0.058362 -0.039476 -0.014059 -0.008620  0.071024  0.089462  0.045091  0.000840 -0.000000
                                -0.000000  0.000002  0.000000 -0.000006 -0.000000  0.000048  0.000000 -0.000150 -0.000000  0.003725
                                 0.000000 -0.004525 -0.000000  0.003163  0.000000 -0.002695 -0.000000  0.019427  0.000000 -0.167239
                                -0.000001  0.403290  0.000001 -1.391940 -0.000006  1.304399  0.000005 -0.408875 -0.000002 -0.084422
                                -0.000000 -0.077578 -0.000000 -0.060030 -0.000000  0.002860 -0.000000  0.000679 -0.000000 -0.001334
                                -0.000000  0.001917 -0.000000  0.003330 -0.000000 -0.002300 -0.000000  0.001552 -0.000000  0.000000
                                 0.004111  0.000000  0.000000  0.004432 -0.000000  0.000000  0.000209  0.002427  0.009365  0.020898
                                 0.011536 -0.056096  0.009315  0.018772  0.014074 -0.003563 -0.000000 -0.002568 -0.000000

   5.1   +    -0.1835   -3.3127 -0.000000  0.000000 -0.000000  0.000000 -0.000000  0.000000 -0.000000  0.000000 -0.000000  0.000000
                                -0.000000  0.000001 -0.000004  0.000020 -0.000076  0.000071 -0.000083  0.000311 -0.003146  0.002346
                                 0.015603 -0.034483 -0.021681  0.014581  0.050963  0.070966  0.023230  0.028976 -0.188461 -0.149735
                                -0.010175 -0.000000  0.000000 -0.000000  0.000000 -0.000000  0.000000 -0.000001  0.000004 -0.000012
                                 0.000044  0.000203 -0.005025  0.007630  0.001668 -0.004652 -0.013829  0.040769  0.008420  0.054968
                                -0.156366  0.050600 -0.208579 -0.091611 -0.052429  0.231679  0.563035  0.272572  0.001804 -0.000000
                                -0.000000  0.000001  0.000000 -0.000004 -0.000000  0.000030  0.000000 -0.000102 -0.000000  0.002384
                                 0.000000 -0.002920 -0.000000  0.001958  0.000000 -0.001933 -0.000000  0.013460  0.000001 -0.105264
                                -0.000005  0.252503  0.000012 -0.833492 -0.000047  0.772583  0.000045 -0.229447 -0.000015 -0.029915
                                -0.000003 -0.052795 -0.000004 -0.070234 -0.000004 -0.052969 -0.000001 -0.007030 -0.000000  0.002491
                                 0.000000  0.007037  0.000000  0.021577  0.000000  0.021425  0.000000  0.000293  0.000000  0.000000
                                 0.003543 -0.000000  0.000000  0.003573  0.000000 -0.000000  0.000376  0.004205  0.017754  0.035367
                                -0.008333 -0.022481  0.007792  0.013955  0.008208 -0.002164 -0.000000  0.000743 -0.000000

   6.1   0     0.0064   -4.6032 -0.000000  0.000000 -0.000000  0.000000 -0.000000  0.000000 -0.000000  0.000000 -0.000000  0.000000
                                -0.000000  0.000000 -0.000000  0.000000 -0.000000  0.000000 -0.000000  0.000000 -0.000000  0.000000
                                -0.000001  0.000001 -0.000004  0.000004 -0.000001  0.000001 -0.000004  0.000015 -0.000003  0.000030
                                -0.000006 -0.000000  0.000000 -0.000000  0.000000 -0.000000  0.000000 -0.000000  0.000000 -0.000000
                                 0.000000 -0.000000  0.000000 -0.000000  0.000001 -0.000002  0.000004 -0.000004  0.000004 -0.000009
                                 0.000011 -0.000007  0.000001 -0.000003  0.000001  0.000003  0.000010  0.000010  0.000017  0.000000
                                 0.000000 -0.000000 -0.000003  0.000000  0.000008  0.000000 -0.000076  0.000000  0.000198 -0.000000
                                -0.005618  0.000000  0.006702  0.000000 -0.005065  0.000000  0.002920 -0.000000 -0.024263  0.000000
                                 0.244871 -0.000001 -0.577454  0.000003  2.229260 -0.000003 -2.147059  0.000000  0.763990 -0.000001
                                 0.198062  0.000001  0.197910 -0.000000  0.246686 -0.000000  0.110093  0.000000  0.169415 -0.000000
                                 0.001118  0.000000  0.002749  0.000001  0.000413  0.000001  0.001476 -0.000000  0.000000 -0.001577
                                 0.000000  0.000000 -0.003829  0.000000  0.000000 -0.005603  0.000000  0.000000  0.000000 -0.000001
                                -0.000012 -0.000028  0.000000  0.000000  0.000002 -0.000000  0.001260  0.000000  0.000980

   7.1   0     0.0182   -1.1767  0.000000 -0.000000  0.000000 -0.000000  0.000000 -0.000000  0.000000 -0.000001  0.000002 -0.000005
                                 0.000014 -0.000041  0.000147 -0.000922  0.003052 -0.003406  0.002838 -0.005489  0.017092 -0.050020
                                 0.128687 -0.208843  0.529195 -0.517881  0.205940 -0.115012  0.233963  0.106048  1.406435  4.196499
                                 2.661694  0.000000 -0.000000  0.000000 -0.000000  0.000001 -0.000003  0.000010 -0.000032  0.000106
                                -0.000384  0.001941 -0.041047  0.068423 -0.133041  0.352408 -0.679138  0.781265 -0.739676  1.719776
                                -2.314010  1.368753 -0.538336  0.810847 -0.842100  0.615336  0.478886  1.968099  0.701090  0.000000
                                -0.000000 -0.000002  0.000000  0.000013 -0.000000 -0.000064  0.000000  0.000316 -0.000000 -0.005777
                                 0.000000  0.007364 -0.000000 -0.004043  0.000000  0.007439 -0.000000 -0.049813  0.000000  0.334139
                                -0.000001 -0.963581  0.000001  2.940718 -0.000005 -2.779745  0.000005  0.601008 -0.000002 -0.239735
                                -0.000000  0.354771 -0.000000  0.092745 -0.000001  0.353296 -0.000000  0.245913 -0.000000 -0.000779
                                -0.000000 -0.001311  0.000000  0.033137 -0.000000  0.080199  0.000000 -0.000652  0.000000  0.000000
                                 0.001589 -0.000000  0.000000  0.013447  0.000000  0.000000 -0.000149 -0.001877 -0.006519 -0.098839
                                -1.494517 -7.154191 -0.000998  0.006726  0.148819  0.001155 -0.000000  0.011487 -0.000000

                                   1 2px     1 2px     1 2px     1 2px     1 2px     1 2px     1 2px     1 2px     1 2px     1 2px
                                   1 2px     1 2px     1 2px     1 2px     1 2px     1 2px     1 2px     1 2px     1 2px     1 2px
                                   1 2px     1 2px     1 2px     1 2px     1 2px     1 2px     1 2px     1 2px     1 3d1+    1 3d1+
                                   1 3d1+    1 3d1+    1 3d1+    1 3d1+    1 3d1+    1 3d1+    1 3d1+    1 3d1+    1 3d1+    1 3d1+
                                   1 3d1+    1 3d1+    1 3d1+    1 3d1+    1 3d1+    1 3d1+    1 3d1+    1 3d1+    1 4f1+    1 4f3+
                                   1 4f1+    1 4f3+    1 4f1+    1 4f3+    1 4f1+    1 4f3+    1 5g1+    1 5g3+    1 5g1+    1 5g3+
                                   1 5g1+    1 5g3+    2 2px     2 2px     2 2px     2 3d1+    2 3d1+

   1.2   2    -1.5733   -9.2976  0.000000 -0.000000  0.000000 -0.000000  0.000000 -0.000000  0.000000 -0.000005  0.000009 -0.000029
                                -0.001321  0.030007 -0.047121  0.034355 -0.091605  0.250056 -0.347091  0.130544 -0.483849  0.804080
                                -0.254242  0.615847  0.289307  0.043580  0.039775 -0.000956  0.001061 -0.000285  0.000000 -0.000000
                                 0.000000 -0.000002  0.000005 -0.000129  0.000153 -0.000116  0.000049 -0.000475  0.003945 -0.003298
                                 0.002221  0.006373  0.000293  0.006184 -0.003143  0.000389 -0.000025  0.000015 -0.004840  0.000000
                                -0.007260  0.000000 -0.003859 -0.000000  0.000018  0.000000  0.000497 -0.000000  0.000031  0.000000
                                -0.000686 -0.000000  0.003248  0.000596  0.000124 -0.001298  0.001705

   2.2   0     0.0022   -2.1314 -0.000000  0.000000 -0.000000  0.000000 -0.000000  0.000001 -0.000004  0.000014 -0.000044  0.000160
                                -0.000560  0.011389 -0.019412  0.047322 -0.125277  0.227929 -0.248137  0.264153 -0.576765  0.732328
                                -0.459515  0.070458 -0.337141  0.248555  0.019613  0.400598  0.154421  0.599641 -0.000000  0.000000
                                -0.000001  0.000006 -0.000021  0.000501 -0.000611  0.000420 -0.000387  0.002893 -0.024386  0.061829
                                -0.213764  0.202970 -0.061568  0.002148 -0.019979 -0.009930 -0.022141  0.007621 -0.000013  0.000000
                                -0.001641  0.000000  0.000385  0.000000 -0.004286  0.000000 -0.000152 -0.000000  0.001129 -0.000000
                                -0.000249 -0.000000  0.000936 -0.001711 -0.014494  0.000497  0.003840

   3.2   0     0.0090   -4.3999 -0.000000  0.000000 -0.000000  0.000000 -0.000000  0.000000 -0.000000  0.000000 -0.000001  0.000002
                                 0.000027 -0.000628  0.000972 -0.000344  0.000721 -0.002901  0.004643  0.001523 -0.003559  0.003380
                                -0.011269 -0.007796 -0.023255  0.010445  0.004793  0.032934 -0.016484  0.059576  0.000000 -0.000002
                                 0.000008 -0.000071  0.000186 -0.005242  0.006258 -0.004707  0.002756 -0.022370  0.224520 -0.524713
                                 2.009305 -1.926588  0.684921  0.179184  0.186814  0.270767  0.124943  0.212036  0.002676 -0.000000
                                 0.003892 -0.000000  0.000140 -0.000000 -0.000741 -0.000000 -0.000769  0.000000 -0.003527  0.000000
                                -0.003486  0.000000  0.012057  0.024261 -0.011918 -0.003531  0.000622

                                   1 2py     1 2py     1 2py     1 2py     1 2py     1 2py     1 2py     1 2py     1 2py     1 2py
                                   1 2py     1 2py     1 2py     1 2py     1 2py     1 2py     1 2py     1 2py     1 2py     1 2py
                                   1 2py     1 2py     1 2py     1 2py     1 2py     1 2py     1 2py     1 2py     1 3d1-    1 3d1-
                                   1 3d1-    1 3d1-    1 3d1-    1 3d1-    1 3d1-    1 3d1-    1 3d1-    1 3d1-    1 3d1-    1 3d1-
                                   1 3d1-    1 3d1-    1 3d1-    1 3d1-    1 3d1-    1 3d1-    1 3d1-    1 3d1-    1 4f1-    1 4f3-
                                   1 4f1-    1 4f3-    1 4f1-    1 4f3-    1 4f1-    1 4f3-    1 5g1-    1 5g3-    1 5g1-    1 5g3-
                                   1 5g1-    1 5g3-    2 2py     2 2py     2 2py     2 3d1-    2 3d1-

   1.3   2    -1.5733   -9.2976  0.000000 -0.000000  0.000000 -0.000000  0.000000 -0.000000  0.000000 -0.000005  0.000009 -0.000029
                                -0.001321  0.030007 -0.047121  0.034355 -0.091605  0.250055 -0.347091  0.130544 -0.483849  0.804080
                                -0.254242  0.615847  0.289307  0.043580  0.039775 -0.000956  0.001061 -0.000285  0.000000 -0.000000
                                 0.000000 -0.000002  0.000005 -0.000129  0.000153 -0.000116  0.000049 -0.000475  0.003945 -0.003298
                                 0.002221  0.006373  0.000293  0.006184 -0.003143  0.000389 -0.000025  0.000015 -0.004840  0.000000
                                -0.007260  0.000000 -0.003859 -0.000000  0.000018  0.000000  0.000497 -0.000000  0.000031  0.000000
                                -0.000686 -0.000000  0.003248  0.000596  0.000124 -0.001298  0.001705

   2.3   0     0.0022   -2.1314 -0.000000  0.000000 -0.000000  0.000000 -0.000000  0.000001 -0.000004  0.000014 -0.000044  0.000160
                                -0.000560  0.011389 -0.019412  0.047323 -0.125279  0.227932 -0.248141  0.264157 -0.576774  0.732340
                                -0.459522  0.070460 -0.337145  0.248559  0.019611  0.400599  0.154417  0.599647 -0.000000  0.000000
                                -0.000001  0.000006 -0.000021  0.000501 -0.000611  0.000420 -0.000387  0.002891 -0.024376  0.061805
                                -0.213675  0.202885 -0.061538  0.002155 -0.019970 -0.009918 -0.022135  0.007628 -0.000013  0.000000
                                -0.001641  0.000000  0.000385  0.000000 -0.004286  0.000000 -0.000152 -0.000000  0.001129 -0.000000
                                -0.000249 -0.000000  0.000937 -0.001710 -0.014494  0.000497  0.003840

   3.3   0     0.0090   -4.3999 -0.000000  0.000000 -0.000000  0.000000 -0.000000  0.000000 -0.000000  0.000000 -0.000001  0.000002
                                 0.000027 -0.000629  0.000974 -0.000348  0.000731 -0.002920  0.004664  0.001502 -0.003512  0.003319
                                -0.011232 -0.007807 -0.023233  0.010426  0.004796  0.032917 -0.016482  0.059540  0.000000 -0.000002
                                 0.000008 -0.000071  0.000186 -0.005242  0.006258 -0.004707  0.002756 -0.022370  0.224521 -0.524714
                                 2.009308 -1.926591  0.684922  0.179184  0.186815  0.270768  0.124944  0.212037  0.002676 -0.000000
                                 0.003892 -0.000000  0.000140 -0.000000 -0.000741 -0.000000 -0.000769  0.000000 -0.003527  0.000000
                                -0.003486  0.000000  0.012057  0.024261 -0.011917 -0.003531  0.000621

                                   1 3d2-    1 3d2-    1 3d2-    1 3d2-    1 3d2-    1 3d2-    1 3d2-    1 3d2-    1 3d2-    1 3d2-
                                   1 3d2-    1 3d2-    1 3d2-    1 3d2-    1 3d2-    1 3d2-    1 3d2-    1 3d2-    1 3d2-    1 3d2-
                                   1 4f2-    1 4f2-    1 4f2-    1 4f2-    1 5g2-    1 5g4-    1 5g2-    1 5g4-    1 5g2-    1 5g4-
                                   2 3d2-    2 3d2-

   1.4   0     0.0064   -4.6032  0.000000 -0.000003  0.000008 -0.000076  0.000198 -0.005618  0.006702 -0.005065  0.002920 -0.024263
                                 0.244871 -0.577454  2.229259 -2.147058  0.763990  0.198062  0.197910  0.246686  0.110093  0.169415
                                 0.001118  0.002749  0.000413  0.001476 -0.001577  0.000000 -0.003829  0.000000 -0.005603  0.000000
                                 0.001260  0.000980

   2.4   0     0.0454   -1.3179 -0.000001  0.000006 -0.000032  0.000160 -0.000759  0.014271 -0.018102  0.010203 -0.017524  0.118171
                                -0.805497  2.290097 -7.045273  6.655050 -1.494409  0.490443 -0.647340  0.386990 -0.687661  1.284824
                                -0.000422 -0.000598 -0.001666  0.001456  0.000452 -0.000000  0.001213 -0.000000  0.000451 -0.000000
                                -0.000418  0.000683

 HOMO      5.1    -0.183458 =      -4.9922eV
 LUMO      2.2     0.002194 =       0.0597eV
 LUMO-HOMO         0.185652 =       5.0519eV


 **********************************************************************************************************************************
 DATASETS  * FILE   NREC   LENGTH (MB)   RECORD NAMES
              1      19       21.11       500      610      700      900      950      970     1000      129      960     1100
                                          VAR    BASINP    GEOM    SYMINP    ZMAT    AOBASIS   BASIS     P2S    ABASIS      S
                                         1400     1410     1420     1200     1210     1080     1600     1650     1700
                                           T        V       ECP      H0       H01     AOSYM     SMH    MOLCAS    OPER

              2       4        3.56       700     1000      520     2100
                                         GEOM     BASIS   MCVARS     RHF

 PROGRAMS   *        TOTAL       RHF       INT
 CPU TIMES  *        62.33      2.96     58.93
 REAL TIME  *        65.51 SEC
 DISK USED  *         3.06 GB
 SF USED    *         0.11 MB
 GA USED    *         0.00 MB       (max)       0.00 MB       (current)
 **********************************************************************************************************************************
   -->
   <time start="19:41:57" end="19:43:02" cpu="62.33" system="2.04" real="65.51"/>
   <storage units="megabyte" memory="8001.84" sf="0.11" df="314.92" eaf="2745.2" ga="0.0"/>
  </jobstep><!--
 SETTING SCF            =       -46.30878821  AU
 SETTING _CC_NORM_MAX   =         2.00000000
  --><jobstep command="RCCSD(T)" commandset="CCSD">
   <!--


 PROGRAM * CCSD (Restricted open-shell coupled cluster)     Authors: C. Hampel, H.-J. Werner, 1991, M. Deegan, P.J. Knowles, 1992


 Convergence thresholds:  THRVAR = 1.00D-08  THRDEN = 1.00D-06

 CCSD(T)     terms to be evaluated (factor= 1.000)


 Number of closed-shell orbitals:   6 (   4   1   1   0 )
 Number of active  orbitals:        1 (   1   0   0   0 )
 Number of external orbitals:     288 ( 124  66  66  32 )

 Memory could be reduced to 89.51 Mwords without degradation in triples

 Number of N-1 electron functions:              13
 Number of N-2 electron functions:              78
 Number of singly external CSFs:              1389
 Number of doubly external CSFs:           1368202
 Total number of CSFs:                     1369591

 Molecular orbitals read from record     2100.2  Type=RHF/CANONICAL (state 1.1)

 Integral transformation finished. Total CPU:   2.26 sec, npass=  1  Memory used:   7.72 MW

 Starting RMP2 calculation

 Wavefunction is spin-projected

 ITER.      SQ.NORM     CORR.ENERGY   TOTAL ENERGY   ENERGY CHANGE        DEN1      VAR(S)    VAR(P)  DIIS     TIME
   1      1.12176993    -0.39775375   -46.70654196    -0.39775375    -0.00185540  0.23D-04  0.14D-02  1  1     2.94
   2      1.12546938    -0.39977842   -46.70856663    -0.00202467    -0.00002830  0.76D-06  0.33D-04  2  2     3.09
   3      1.12609772    -0.39996311   -46.70875133    -0.00018469    -0.00000021  0.14D-07  0.24D-06  3  3     3.32
   4      1.12612237    -0.39996646   -46.70875467    -0.00000334    -0.00000000  0.57D-09  0.32D-08  4  4     3.69
   5      1.12612248    -0.39996638   -46.70875459     0.00000008    -0.00000000  0.20D-10  0.22D-10  5  5     4.20

 Norm of t1 vector:      0.02632133      S-energy:    -0.00061142      T1 diagnostic:  0.00046758
 Norm of t2 vector:      0.35416051      P-energy:    -0.39935495
                                         Alpha-Beta:  -0.30027542
                                         Alpha-Alpha: -0.05292693
                                         Beta-Beta:   -0.04615260

 Spin contamination <S**2-Sz**2-Sz>     0.00000000
  Reference energy                    -46.308788211525
   --><property name="energy" method="Reference" stateSymmetry="1" stateNumber="1"
     value="-46.3087882115247"/><!--
  RHF-RMP2 correlation energy          -0.399966376537
   --><property name="energy" method="RHF-RMP2 correlation" stateSymmetry="1" stateNumber="1"
     value="-0.399966376536521"/><!--
 !RHF-RMP2 energy                     -46.708754588061
   --><property name="energy" method="RHF-RMP2" principal="true" stateSymmetry="1"
     stateNumber="1" value="-46.7087545880613"/><!--
 (NB above energy spin projected)

 Starting RCCSD calculation

 ITER.      SQ.NORM     CORR.ENERGY   TOTAL ENERGY   ENERGY CHANGE        DEN1      VAR(S)    VAR(P)  DIIS     TIME
   1      1.12906839    -0.40363396   -46.71242217    -0.40363396    -0.00983366  0.24D-02  0.37D-02  1  1     6.17
   2      1.14984623    -0.41392769   -46.72271590    -0.01029373    -0.00123450  0.33D-03  0.98D-03  2  2     8.12
   3      1.16390057    -0.41643245   -46.72522066    -0.00250476    -0.00038391  0.14D-03  0.35D-03  3  3     9.54
   4      1.17955121    -0.41831955   -46.72710776    -0.00188711    -0.00009677  0.21D-04  0.10D-03  4  4    11.47
   5      1.19036352    -0.41911290   -46.72790112    -0.00079335    -0.00002059  0.24D-05  0.23D-04  5  5    13.79
   6      1.19432102    -0.41930322   -46.72809143    -0.00019031    -0.00000520  0.37D-06  0.62D-05  6  6    15.51
   7      1.19587116    -0.41936658   -46.72815479    -0.00006337    -0.00000163  0.12D-06  0.20D-05  6  3    17.51
   8      1.19650906    -0.41939483   -46.72818304    -0.00002825    -0.00000061  0.48D-07  0.77D-06  6  1    19.25
   9      1.19676667    -0.41940749   -46.72819570    -0.00001266    -0.00000029  0.22D-07  0.36D-06  6  2    20.57
  10      1.19700900    -0.41941804   -46.72820625    -0.00001055    -0.00000009  0.90D-08  0.11D-06  6  4    21.88
  11      1.19708551    -0.41941984   -46.72820805    -0.00000180    -0.00000003  0.66D-08  0.41D-07  6  5    23.20
  12      1.19708623    -0.41941842   -46.72820663     0.00000142    -0.00000002  0.68D-08  0.22D-07  6  6    24.52
  13      1.19709635    -0.41941798   -46.72820620     0.00000044    -0.00000001  0.72D-08  0.13D-07  6  3    25.92
  14      1.19710364    -0.41941780   -46.72820601     0.00000019    -0.00000001  0.80D-08  0.92D-08  6  1    27.22
  15      1.19710768    -0.41941771   -46.72820592     0.00000009    -0.00000001  0.88D-08  0.77D-08  6  2    28.51
  16      1.19710433    -0.41941730   -46.72820551     0.00000041    -0.00000001  0.98D-08  0.62D-08  6  4    29.83
  17      1.19710503    -0.41941726   -46.72820547     0.00000004    -0.00000001  0.10D-07  0.57D-08  6  1    31.15
  18      1.19710105    -0.41941706   -46.72820528     0.00000020    -0.00000001  0.11D-07  0.54D-08  6  5    32.47
  19      1.19710100    -0.41941693   -46.72820514     0.00000014    -0.00000001  0.12D-07  0.47D-08  6  3    33.83
  20      1.19710052    -0.41941696   -46.72820517    -0.00000003    -0.00000001  0.12D-07  0.49D-08  6  6    35.17
  21      1.19710009    -0.41941695   -46.72820516     0.00000001    -0.00000001  0.12D-07  0.50D-08  6  5    36.47
  22      1.19710008    -0.41941694   -46.72820515     0.00000001    -0.00000001  0.12D-07  0.49D-08  6  6    37.81
  23      1.19710020    -0.41941694   -46.72820515     0.00000000    -0.00000001  0.12D-07  0.49D-08  6  5    39.12
  24      1.19710013    -0.41941693   -46.72820514     0.00000000    -0.00000001  0.12D-07  0.49D-08  6  6    40.43
  25      1.19710026    -0.41941695   -46.72820516    -0.00000002    -0.00000001  0.12D-07  0.50D-08  6  5    41.75
  26      1.19709989    -0.41941691   -46.72820512     0.00000004    -0.00000001  0.12D-07  0.48D-08  6  6    43.08
  27      1.19709983    -0.41941690   -46.72820511     0.00000001    -0.00000001  0.12D-07  0.48D-08  6  5    44.43
  28      1.19710024    -0.41941695   -46.72820516    -0.00000005    -0.00000001  0.12D-07  0.50D-08  6  6    45.76
  29      1.19710022    -0.41941695   -46.72820516    -0.00000000    -0.00000001  0.12D-07  0.50D-08  6  5    47.11
  30      1.19710009    -0.41941693   -46.72820514     0.00000002    -0.00000001  0.12D-07  0.49D-08  6  6    48.43
  31      1.19709997    -0.41941691   -46.72820513     0.00000001    -0.00000001  0.12D-07  0.48D-08  6  5    49.79
  32      1.19709998    -0.41941692   -46.72820513    -0.00000000    -0.00000001  0.12D-07  0.48D-08  6  6    51.14
  33      1.19710000    -0.41941692   -46.72820513    -0.00000001    -0.00000001  0.12D-07  0.49D-08  6  5    52.53
  34      1.19709964    -0.41941689   -46.72820510     0.00000003    -0.00000001  0.13D-07  0.48D-08  6  1    53.84
  35      1.19709971    -0.41941690   -46.72820512    -0.00000001    -0.00000001  0.13D-07  0.48D-08  6  5    55.18
  36      1.19709960    -0.41941689   -46.72820510     0.00000001    -0.00000001  0.13D-07  0.48D-08  6  1    56.48
  37      1.19709959    -0.41941689   -46.72820510     0.00000000    -0.00000001  0.13D-07  0.48D-08  6  5    57.81
  38      1.19709968    -0.41941690   -46.72820511    -0.00000001    -0.00000001  0.13D-07  0.48D-08  6  1    59.12
  39      1.19709973    -0.41941690   -46.72820511    -0.00000000    -0.00000001  0.13D-07  0.48D-08  6  5    60.45
  40      1.19709958    -0.41941689   -46.72820510     0.00000001    -0.00000001  0.13D-07  0.47D-08  6  1    61.78
  41      1.19709957    -0.41941688   -46.72820510     0.00000000    -0.00000001  0.13D-07  0.47D-08  6  5    63.11
  42      1.19709950    -0.41941688   -46.72820509     0.00000001    -0.00000001  0.13D-07  0.47D-08  6  1    64.43
  43      1.19709956    -0.41941689   -46.72820510    -0.00000001    -0.00000001  0.13D-07  0.48D-08  6  5    65.77
  44      1.19709977    -0.41941690   -46.72820511    -0.00000001    -0.00000001  0.13D-07  0.48D-08  6  1    67.10
  45      1.19709975    -0.41941691   -46.72820512    -0.00000001    -0.00000001  0.13D-07  0.48D-08  6  5    68.41
  46      1.19709974    -0.41941691   -46.72820512    -0.00000000    -0.00000001  0.12D-07  0.49D-08  6  1    69.75
  47      1.19709961    -0.41941688   -46.72820510     0.00000003    -0.00000001  0.13D-07  0.47D-08  6  5    71.08
  48      1.19709955    -0.41941688   -46.72820509     0.00000001    -0.00000001  0.13D-07  0.47D-08  6  1    72.64
  49      1.19709953    -0.41941688   -46.72820509    -0.00000000    -0.00000001  0.13D-07  0.47D-08  6  5    73.96
  50      1.19709960    -0.41941689   -46.72820510    -0.00000001    -0.00000001  0.13D-07  0.48D-08  6  1    75.29
  51      1.19709968    -0.41941690   -46.72820511    -0.00000001    -0.00000001  0.13D-07  0.48D-08  6  5    76.63
  52      1.19709968    -0.41941690   -46.72820512    -0.00000000    -0.00000001  0.13D-07  0.48D-08  6  1    77.93
  53      1.19709979    -0.41941691   -46.72820513    -0.00000001    -0.00000001  0.12D-07  0.49D-08  6  5    79.25
  54      1.19709979    -0.41941691   -46.72820512     0.00000000    -0.00000001  0.12D-07  0.48D-08  6  1    80.57
  55      1.19709956    -0.41941689   -46.72820510     0.00000002    -0.00000001  0.13D-07  0.48D-08  6  5    81.86
  56      1.19709957    -0.41941689   -46.72820510    -0.00000000    -0.00000001  0.13D-07  0.48D-08  6  1    83.16
  57      1.19709958    -0.41941689   -46.72820510     0.00000000    -0.00000001  0.13D-07  0.47D-08  6  5    84.49
  58      1.19709960    -0.41941689   -46.72820510    -0.00000000    -0.00000001  0.13D-07  0.48D-08  6  1    85.79
  59      1.19709962    -0.41941689   -46.72820510    -0.00000000    -0.00000001  0.13D-07  0.48D-08  6  5    87.10
  60      1.19709960    -0.41941689   -46.72820510     0.00000000    -0.00000001  0.13D-07  0.48D-08  6  1    88.43
  61      1.19709956    -0.41941689   -46.72820510     0.00000001    -0.00000001  0.13D-07  0.47D-08  6  5    89.75
  62      1.19709941    -0.41941687   -46.72820508     0.00000001    -0.00000001  0.13D-07  0.47D-08  6  1    91.04
  63      1.19709948    -0.41941688   -46.72820509    -0.00000001    -0.00000001  0.13D-07  0.47D-08  6  5    92.39
  64      1.19709958    -0.41941689   -46.72820510    -0.00000001    -0.00000001  0.13D-07  0.48D-08  6  1    93.71
  65      1.19709962    -0.41941690   -46.72820511    -0.00000000    -0.00000001  0.13D-07  0.48D-08  6  5    95.02
  66      1.19709943    -0.41941688   -46.72820509     0.00000002    -0.00000001  0.13D-07  0.47D-08  6  1    96.32
  67      1.19709944    -0.41941688   -46.72820509    -0.00000000    -0.00000001  0.13D-07  0.47D-08  6  5    97.64
  68      1.19709966    -0.41941690   -46.72820511    -0.00000002    -0.00000001  0.13D-07  0.48D-08  6  1    98.98
  69      1.19709966    -0.41941690   -46.72820511     0.00000000    -0.00000001  0.13D-07  0.48D-08  6  5   100.31
  70      1.19709962    -0.41941689   -46.72820511     0.00000000    -0.00000001  0.13D-07  0.48D-08  6  1   101.63
  71      1.19709960    -0.41941689   -46.72820510     0.00000000    -0.00000001  0.13D-07  0.48D-08  6  5   102.95
  72      1.19709961    -0.41941689   -46.72820510    -0.00000000    -0.00000001  0.13D-07  0.48D-08  6  1   104.28
  73      1.19709966    -0.41941690   -46.72820511    -0.00000001    -0.00000001  0.13D-07  0.48D-08  6  5   105.59
  74      1.19709966    -0.41941690   -46.72820511     0.00000000    -0.00000001  0.13D-07  0.48D-08  6  1   106.88
  75      1.19709961    -0.41941689   -46.72820511     0.00000001    -0.00000001  0.13D-07  0.48D-08  6  5   108.23
  76      1.19710009    -0.41941694   -46.72820516    -0.00000005    -0.00000001  0.12D-07  0.50D-08  6  1   109.59
  77      1.19710010    -0.41941695   -46.72820516    -0.00000000    -0.00000001  0.12D-07  0.50D-08  6  5   110.91
  78      1.19709957    -0.41941689   -46.72820510     0.00000006    -0.00000001  0.13D-07  0.48D-08  6  1   112.23
  79      1.19709953    -0.41941688   -46.72820509     0.00000001    -0.00000001  0.13D-07  0.47D-08  6  5   113.54
  80      1.19709950    -0.41941688   -46.72820509     0.00000000    -0.00000001  0.13D-07  0.47D-08  6  1   114.88
  81      1.19709949    -0.41941688   -46.72820509     0.00000000    -0.00000001  0.13D-07  0.47D-08  6  5   116.24
  82      1.19709971    -0.41941691   -46.72820512    -0.00000003    -0.00000001  0.12D-07  0.49D-08  6  1   117.57
  83      1.19709941    -0.41941688   -46.72820509     0.00000004    -0.00000001  0.13D-07  0.47D-08  6  5   118.92
  84      1.19709938    -0.41941687   -46.72820508     0.00000001    -0.00000001  0.13D-07  0.47D-08  6  1   120.27
  85      1.19709961    -0.41941689   -46.72820510    -0.00000002    -0.00000001  0.13D-07  0.48D-08  6  5   121.58
  86      1.19709970    -0.41941690   -46.72820511    -0.00000001    -0.00000001  0.13D-07  0.48D-08  6  1   122.90
  87      1.19709959    -0.41941689   -46.72820510     0.00000001    -0.00000001  0.13D-07  0.48D-08  6  5   124.22
  88      1.19709954    -0.41941689   -46.72820510     0.00000001    -0.00000001  0.13D-07  0.47D-08  6  1   125.55
  89      1.19709955    -0.41941689   -46.72820510    -0.00000000    -0.00000001  0.13D-07  0.48D-08  6  5   126.85
  90      1.19709953    -0.41941688   -46.72820510     0.00000000    -0.00000001  0.13D-07  0.47D-08  6  1   128.18
  91      1.19709953    -0.41941688   -46.72820509     0.00000000    -0.00000001  0.13D-07  0.47D-08  6  5   129.50
  92      1.19709957    -0.41941689   -46.72820510    -0.00000001    -0.00000001  0.13D-07  0.48D-08  6  1   130.83
  93      1.19709947    -0.41941687   -46.72820508     0.00000002    -0.00000001  0.13D-07  0.47D-08  6  5   132.14
  94      1.19710002    -0.41941693   -46.72820514    -0.00000006    -0.00000001  0.12D-07  0.49D-08  6  1   133.46
  95      1.19710016    -0.41941696   -46.72820517    -0.00000002    -0.00000001  0.12D-07  0.50D-08  6  5   134.81
  96      1.19709964    -0.41941690   -46.72820511     0.00000006    -0.00000001  0.13D-07  0.48D-08  6  1   136.11
  97      1.19709961    -0.41941689   -46.72820511     0.00000001    -0.00000001  0.13D-07  0.48D-08  6  5   137.42
  98      1.19709968    -0.41941690   -46.72820512    -0.00000001    -0.00000001  0.13D-07  0.48D-08  6  1   138.76
  99      1.19709958    -0.41941689   -46.72820510     0.00000002    -0.00000001  0.13D-07  0.47D-08  6  5   140.06

 Norm of t1 vector:      0.12210941      S-energy:    -0.00079052      T1 diagnostic:  0.02292931
                                                                       D1 diagnostic:  0.05232259
 Norm of t2 vector:      0.42683588      P-energy:    -0.41862637
                                         Alpha-Beta:  -0.32614495
                                         Alpha-Alpha: -0.04967968
                                         Beta-Beta:   -0.04280174

 Doubles amplitudes (print threshold =  0.500E-01):

         I         J         SYM. A    SYM. B    A         B      T(IJ, AB) [Alpha-Beta]

         4         4         1         1         2         2     -0.09835023
         4         4         4         4         1         1     -0.09835023
         5         4         2         2         2         1     -0.06978889
         5         4         3         3         2         1     -0.06978950

 ?CONVERGENCE NOT REACHED AFTER MAX. ITERATIONS

 ?ERROR: NO CONVERGENCE. TRIPLES WILL NOT BE DONE. THIS CAN BE AVOIDED USING THE NOCHECK OPTION.

 Spin contamination <S**2-Sz**2-Sz>     0.00000000


  Correlated core orbitals:             1.1       2.1       1.2       1.3
  Orbital energies:                    -2.5610   -1.6465   -1.5748   -1.5748

  RCCSD core-core energy               -0.209563868623
   --><property name="core-core energy" method="RCCSD" stateSymmetry="1" stateNumber="1"
     value="-0.209563868623494"/><!--
  RCCSD core-valence energy            -0.123583957401
   --><property name="core-valence energy" method="RCCSD" stateSymmetry="1" stateNumber="1"
     value="-0.123583957400607"/><!--
  RCCSD valence correlation energy     -0.086269060820
   --><property name="valence correlation energy" method="RCCSD" stateSymmetry="1"
     stateNumber="1" value="-0.86269060819817E-01"/><!--


 RESULTS
 =======

  Reference energy                    -46.308788211525
   --><property name="energy" method="Reference" stateSymmetry="1" stateNumber="1"
     value="-46.3087882115247"/><!--
  RCCSD singles energy                 -0.000790517567
   --><property name="energy" method="RCCSD singles" stateSymmetry="1" stateNumber="1"
     value="-0.790517566987892E-03"/><!--
  RCCSD pair energy                    -0.418626369277
   --><property name="energy" method="RCCSD pair" stateSymmetry="1" stateNumber="1"
     value="-0.41862636927693"/><!--
  RCCSD correlation energy             -0.419416886844
   --><property name="energy" method="RCCSD correlation" stateSymmetry="1" stateNumber="1"
     value="-0.419416886843918"/><!--

 !RHF-RCCSD energy                    -46.728205098369
   --><property name="energy" method="RHF-RCCSD" principal="true" stateSymmetry="1"
     stateNumber="1" value="-46.7282050983687"/><!--

 Program statistics:

 Available memory in ccsd:               999999438
 Min. memory needed in ccsd:               4407266
 Max. memory used in ccsd:                 6008753
 Max. memory used in cckext:               5324888 (99 integral passes)
 Max. memory used in cckint:               7718091 ( 1 integral passes)


 ? Error
 ? No convergence. This error exit can be avoided using the NOCHECK option
 ? The problem occurs in ccsd
   --><error type="Error" location="ccsd"
     message="No convergence. This error exit can be avoided using the NOCHECK option"/><!--
  --></jobstep><!--
  -->
  <input>
  <!--
 --></job><!--
--></molpro>
