
 Primary working directories    : /global/cscratch1/sd/haihan
 Secondary working directories  : /global/cscratch1/sd/haihan
 Wavefunction directory         : /global/homes/h/haihan/wfu/
 Main file repository           : /global/cscratch1/sd/haihan/

 SHA1      : 19cd028119e0e09f93f0674bd8af7968d9b3eff6
 NAME      : 2015.1.36
 ARCHNAME  : linux/x86_64
 FC        : /opt/cray/pe/craype/2.5.14/bin/ftn
 BLASLIB   : -L/opt/intel/compilers_and_libraries_2018.1.163/linux/mkl/lib/intel64 -Wl,-_start-group -lmkl_intel_ilp64 -lmkl_intel_thread -lmkl_core -Wl,-_end-group -liomp5
 id        : lbl

 Nodes     nprocs
 nid00147    11
 Number of processes for MPI-2 version of Molpro:   nprocs(total)=   12   nprocs(compute)=   11   nprocs(helper)=    1

 Using customized tuning parameters: mindgm=7; mindgv=16; mindgc=1; mindgr=1; noblas=0; minvec=7
 default implementation of scratch files=sf  

 ***,Calculation for Re atom, singlet and triplet
 memory,1,g
 
 gthresh,twoint=1.e-15
 gthresh,oneint=1.e-15
 
 
 geometry={
 1
 Re
 Re  0.0 0.0 0.0
 }
 
 basis={
 Including file /global/u2/h/haihan/Research/ECP/f_group_element_ecps/Re/Molpro/atom/AE/nr/basisset/try_contracted.basis
 }
 {rhf
  start,atden
  print,orbitals=2
  wf,75,1,5
  occ,12,6,6,3,6,3,3,1
  closed,10,6,6,2,6,2,2,1
  sym,1,1,1,1,3,2,1,3,2,1,1,3,2
  restrict,1,1,10.1
  orbital,4202.2
 }
 {multi
  start,4202.2
  occ,12,6,6,3,6,3,3,1
  closed,9,6,6,2,6,2,2,1
  wf,75,1,5;state,2
  restrict,1,1,10.1
  wf,75,4,5;state,1
  restrict,1,1,10.1
  wf,75,6,5;state,1
  restrict,1,1,10.1
  wf,75,7,5;state,1
  restrict,1,1,10.1
  natorb,ci,print
  orbital,5202.2
 }
 pop
 basis={
 Including file /global/u2/h/haihan/Research/ECP/f_group_element_ecps/Re/Molpro/atom/AE/nr/basisset/aug-cc-pwCVTZ.basis
 }
 {multi
  start,5202.2
  occ,12,6,6,3,6,3,3,1
  closed,9,6,6,2,6,2,2,1
  wf,75,1,5;state,2
  restrict,1,1,10.1
  wf,75,4,5;state,1
  restrict,1,1,10.1
  wf,75,6,5;state,1
  restrict,1,1,10.1
  wf,75,7,5;state,1
  restrict,1,1,10.1
  natorb,ci,print
  orbital,6202.2
 }
 {rhf,nitord=1,maxit=0
  start,6202.2
  wf,75,1,5
  occ,12,6,6,3,6,3,3,1
  closed,10,6,6,2,6,2,2,1
  restrict,1,1,10.1
 }
 {ci;maxit,100;core,9,5,5,2,5,2,2,1
  natorb,ci,print=15
 }
 
 

 Variables initialized (889), CPU time= 0.00 sec
 Commands  initialized (702), CPU time= 0.01 sec, 572 directives.
 Default parameters read. Elapsed time= 0.12 sec

 Checking input...
 Passed
1


                                         ***  PROGRAM SYSTEM MOLPRO  ***
                                       Copyright, TTI GmbH Stuttgart, 2015
                                    Version 2015.1 linked Dec 29 2018 15:55:43


 **********************************************************************************************************************************
 LABEL *   Calculation for Re atom, singlet and triplet                                  
  64 bit mpp version                                                                     DATE: 01-Nov-22          TIME: 09:42:29  
 **********************************************************************************************************************************

 SHA1:             19cd028119e0e09f93f0674bd8af7968d9b3eff6
 **********************************************************************************************************************************

 THRESHOLDS:

 ZERO    =  1.00D-12  ONEINT  =  1.00D-12  TWOINT  =  1.00D-15  PREFAC  =  1.00D-14  LOCALI  =  1.00D-09  EORDER  =  1.00D-04
 ENERGY  =  0.00D+00  ETEST   =  0.00D+00  EDENS   =  0.00D+00  THRDEDEF=  1.00D-06  GRADIENT=  1.00D-02  STEP    =  1.00D-03
 ORBITAL =  1.00D-05  CIVEC   =  1.00D-05  COEFF   =  1.00D-04  PRINTCI =  5.00D-02  PUNCHCI =  9.90D+01  OPTGRAD =  3.00D-04
 OPTENERG=  1.00D-06  OPTSTEP =  3.00D-04  THRGRAD =  1.00D-10  COMPRESS=  1.00D-11  VARMIN  =  1.00D-07  VARMAX  =  1.00D-03
 THRDOUB =  0.00D+00  THRDIV  =  1.00D-05  THRRED  =  1.00D-07  THRPSP  =  1.00D+00  THRDC   =  1.00D-10  THRCS   =  1.00D-10
 THRNRM  =  1.00D-08  THREQ   =  0.00D+00  THRDE   =  1.00D+00  THRREF  =  1.00D-05  SPARFAC =  1.00D+00  THRDLP  =  1.00D-07
 THRDIA  =  1.00D-10  THRDLS  =  1.00D-07  THRGPS  =  0.00D+00  THRKEX  =  0.00D+00  THRDIS  =  2.00D-01  THRVAR  =  1.00D-10
 THRLOC  =  1.00D-06  THRGAP  =  1.00D-06  THRLOCT = -1.00D+00  THRGAPT = -1.00D+00  THRORB  =  1.00D-06  THRMLTP =  0.00D+00
 THRCPQCI=  1.00D-10  KEXTA   =  0.00D+00  THRCOARS=  0.00D+00  SYMTOL  =  1.00D-06  GRADTOL =  1.00D-06  THROVL  =  1.00D-08
 THRORTH =  1.00D-08  GRID    =  1.00D-06  GRIDMAX =  1.00D-03  DTMAX   =  0.00D+00  THROCCDE=  1.00D-01  THROCCDE=  1.00D-01



 THRESHOLDS:

 ZERO    =  1.00D-12  ONEINT  =  1.00D-15  TWOINT  =  1.00D-15  PREFAC  =  1.00D-14  LOCALI  =  1.00D-09  EORDER  =  1.00D-04
 ENERGY  =  0.00D+00  ETEST   =  0.00D+00  EDENS   =  0.00D+00  THRDEDEF=  1.00D-06  GRADIENT=  1.00D-02  STEP    =  1.00D-03
 ORBITAL =  1.00D-05  CIVEC   =  1.00D-05  COEFF   =  1.00D-04  PRINTCI =  5.00D-02  PUNCHCI =  9.90D+01  OPTGRAD =  3.00D-04
 OPTENERG=  1.00D-06  OPTSTEP =  3.00D-04  THRGRAD =  1.00D-10  COMPRESS=  1.00D-11  VARMIN  =  1.00D-07  VARMAX  =  1.00D-03
 THRDOUB =  0.00D+00  THRDIV  =  1.00D-05  THRRED  =  1.00D-07  THRPSP  =  1.00D+00  THRDC   =  1.00D-10  THRCS   =  1.00D-10
 THRNRM  =  1.00D-08  THREQ   =  0.00D+00  THRDE   =  1.00D+00  THRREF  =  1.00D-05  SPARFAC =  1.00D+00  THRDLP  =  1.00D-07
 THRDIA  =  1.00D-10  THRDLS  =  1.00D-07  THRGPS  =  0.00D+00  THRKEX  =  0.00D+00  THRDIS  =  2.00D-01  THRVAR  =  1.00D-10
 THRLOC  =  1.00D-06  THRGAP  =  1.00D-06  THRLOCT = -1.00D+00  THRGAPT = -1.00D+00  THRORB  =  1.00D-06  THRMLTP =  0.00D+00
 THRCPQCI=  1.00D-10  KEXTA   =  0.00D+00  THRCOARS=  0.00D+00  SYMTOL  =  1.00D-06  GRADTOL =  1.00D-06  THROVL  =  1.00D-08
 THRORTH =  1.00D-08  GRID    =  1.00D-06  GRIDMAX =  1.00D-03  DTMAX   =  0.00D+00  THROCCDE=  1.00D-01  THROCCDE=  1.00D-01



Geometry recognized as XYZ


 Variable memory set to 1000000000 words,  buffer space   230000 words

 SETTING BASIS          =    USERDEF


 Recomputing integrals since basis changed


 Using spherical harmonics



 PROGRAM * SEWARD (Integral evaluation for generally contracted gaussian basis sets)     Author: Roland Lindh, 1990

 Geometry written to block  1 of record 700

 Orientation using atomic masses  
 Molecule type: Atom
 Symmetry elements: X,Y,Z
 Rotational constants:       0.0000000      0.0000000      0.0000000 GHz  (calculated with average atomic masses)

 Point group  D2h 



 ATOMIC COORDINATES

 NR  ATOM    CHARGE       X              Y              Z

   1  RE     75.00    0.000000000    0.000000000    0.000000000

 NUCLEAR CHARGE:                   75
 NUMBER OF PRIMITIVE AOS:         455
 NUMBER OF SYMMETRY AOS:          370
 NUMBER OF CONTRACTIONS:          105   (  35Ag  +   9B3u +   9B2u +  14B1g +   9B1u +  14B2g +  14B3g +   1Au  )
 NUMBER OF CORE ORBITALS:          34   (   9Ag  +   6B3u +   6B2u +   2B1g +   6B1u +   2B2g +   2B3g +   1Au  )
 NUMBER OF VALENCE ORBITALS:        6   (   3Ag  +   0B3u +   0B2u +   1B1g +   0B1u +   1B2g +   1B3g +   0Au  )


 NUCLEAR REPULSION ENERGY    0.00000000

 EXTRA SYMMETRY OF AOS IN SYMMETRY 1:   1 1 1 1 1 1 1 1 1 1   2 3 2 3 2 3 2 3 2 3   2 3 2 3 2 3 4 5 6 4   5 6 4 5 6
 EXTRA SYMMETRY OF AOS IN SYMMETRY 2:   1 1 1 1 1 1 1 2 3
 EXTRA SYMMETRY OF AOS IN SYMMETRY 3:   1 1 1 1 1 1 1 2 3
 EXTRA SYMMETRY OF AOS IN SYMMETRY 4:   1 1 1 1 1 1 1 1 2 3   2 3 2 3
 EXTRA SYMMETRY OF AOS IN SYMMETRY 5:   1 1 1 1 1 1 1 2 3
 EXTRA SYMMETRY OF AOS IN SYMMETRY 6:   1 1 1 1 1 1 1 1 2 3   2 3 2 3
 EXTRA SYMMETRY OF AOS IN SYMMETRY 7:   1 1 1 1 1 1 1 1 2 3   2 3 2 3

 Eigenvalues of metric

         1 0.648E-05 0.139E-04 0.139E-04 0.392E-01 0.282E+00 0.282E+00 0.282E+00 0.891E+00
         2 0.755E-02 0.100E+01 0.100E+01 0.100E+01 0.100E+01 0.100E+01 0.100E+01 0.100E+01
         3 0.755E-02 0.100E+01 0.100E+01 0.100E+01 0.100E+01 0.100E+01 0.100E+01 0.100E+01
         4 0.139E-04 0.282E+00 0.282E+00 0.891E+00 0.891E+00 0.994E+00 0.100E+01 0.100E+01
         5 0.755E-02 0.100E+01 0.100E+01 0.100E+01 0.100E+01 0.100E+01 0.100E+01 0.100E+01
         6 0.139E-04 0.282E+00 0.282E+00 0.891E+00 0.891E+00 0.994E+00 0.100E+01 0.100E+01
         7 0.139E-04 0.282E+00 0.282E+00 0.891E+00 0.891E+00 0.994E+00 0.100E+01 0.100E+01
         8 0.100E+01


 Contracted 2-electron integrals neglected if value below      1.0D-15
 AO integral compression algorithm  1   Integral accuracy      1.0D-15

     30.671 MB (compressed) written to integral file ( 76.1%)

     Node minimum: 0.786 MB, node maximum: 5.243 MB


 NUMBER OF SORTED TWO-ELECTRON INTEGRALS:     196500.     BUFFER LENGTH:  32768
 NUMBER OF SEGMENTS:   1  SEGMENT LENGTH:     196500      RECORD LENGTH: 524288

 Memory used in sort:       0.75 MW

 SORT1 READ     4808943. AND WROTE      141720. INTEGRALS IN      1 RECORDS. CPU TIME:     0.08 SEC, REAL TIME:     0.30 SEC
 SORT2 READ     1576168. AND WROTE     2163298. INTEGRALS IN    154 RECORDS. CPU TIME:     0.01 SEC, REAL TIME:     0.06 SEC

 Node minimum:      186267.  Node maximum:      213929. integrals

 OPERATOR DM      FOR CENTER  0  COORDINATES:    0.000000    0.000000    0.000000


 **********************************************************************************************************************************
 DATASETS  * FILE   NREC   LENGTH (MB)   RECORD NAMES
              1      18       20.10       500      610      700      900      950      970     1000      129      960     1100   
                                          VAR    BASINP    GEOM    SYMINP    ZMAT    AOBASIS   BASIS     P2S    ABASIS      S 
                                         1400     1410     1200     1210     1080     1600     1650     1700   
                                           T        V       H0       H01     AOSYM     SMH    MOLCAS    OPER   

 PROGRAMS   *        TOTAL       INT
 CPU TIMES  *        10.39     10.24
 REAL TIME  *        12.10 SEC
 DISK USED  *        60.98 MB      
 GA USED    *         0.00 MB       (max)       0.00 MB       (current)
 **********************************************************************************************************************************


 PROGRAM * RHF-SCF (OPEN SHELL)       Authors: W. Meyer, H.-J. Werner


 NUMBER OF ELECTRONS:      40+   35-    SPACE SYMMETRY=1    SPIN SYMMETRY: Sextet  
 CONVERGENCE THRESHOLDS:    1.00E-05 (Density)    1.50E-07 (Energy)
 MAX. NUMBER OF ITERATIONS:       60
 INTERPOLATION TYPE:            DIIS
 INTERPOLATION STEPS:              2 (START)      1 (STEP)
 LEVEL SHIFTS:                 -0.60 (CLOSED) -0.30 (OPEN) 

 Number of closed-shell orbitals:   35 (  10   6   6   2   6   2   2   1 )
 Number of open-shell orbitals:      5 (   2   0   0   1   0   1   1   0 )


 
 Extra symmetries of mos in symmetry 1:   1   1   1   3   2   1   3   2   1   1   3   2
     Symmetry restrictions:    1             1
 Orbital guess generated from atomic densities. Full valence occupancy:   12   6   6   3   6   3   3   1


 Molecular orbital dump at record        4202.2

 ITERATION    DDIFF          GRAD             ENERGY        2-EL.EN.            DIPOLE MOMENTS         DIIS   ORB.
    1      0.000D+00      0.000D+00    -14067.53507731  10889.830806    0.00000    0.00000    0.00000    0    start
    2      0.000D+00      0.385D+00    -14076.36274391  11657.495102    0.00000    0.00000    0.00000    1    diag,B
    3      0.171D+02      0.112D+00    -14077.49793049  11496.559335    0.00000    0.00000    0.00000    2    diag,B
    4      0.190D+01      0.112D-01    -14077.52579994  11483.089226    0.00000    0.00000    0.00000    3    diag,B
    5      0.393D-01      0.281D-02    -14077.52819518  11485.598707    0.00000    0.00000    0.00000    4    diag,B
    6      0.590D-01      0.683D-03    -14077.53221698  11485.569935    0.00000    0.00000    0.00000    5    diag,B
    7      0.125D-01      0.917D-03    -14077.52944451  11485.008704    0.00000    0.00000    0.00000    6    fixocc
    8      0.428D-02      0.618D-03    -14077.52798263  11484.763892    0.00000    0.00000    0.00000    7    diag,B
    9      0.554D-02      0.222D-03    -14077.52804693  11484.264269    0.00000    0.00000    0.00000    8    diag,B
   10      0.547D-02      0.105D-03    -14077.52808908  11484.058748    0.00000    0.00000    0.00000    9    orth
   11      0.563D-02      0.442D-04    -14077.52809723  11484.023367    0.00000    0.00000    0.00000    9    diag,B
   12      0.216D-02      0.217D-04    -14077.52809886  11484.026836    0.00000    0.00000    0.00000    9    diag,B
   13      0.385D-03      0.145D-04    -14077.52810008  11484.023894    0.00000    0.00000    0.00000    9    diag,B
   14      0.529D-03      0.692D-05    -14077.52810037  11484.028238    0.00000    0.00000    0.00000    9    diag,B
   15      0.525D-03      0.301D-05    -14077.52810041  11484.030078    0.00000    0.00000    0.00000    9    diag,B
   16      0.280D-03      0.157D-05    -14077.52810042  11484.030965    0.00000    0.00000    0.00000    9    diag,B
   17      0.177D-03      0.572D-06    -14077.52810042  11484.030658    0.00000    0.00000    0.00000    9    diag,B
   18      0.390D-04      0.379D-06    -14077.52810042  11484.030398    0.00000    0.00000    0.00000    9    diag,B
   19      0.280D-05      0.302D-06    -14077.52810042  11484.030371    0.00000    0.00000    0.00000    0    orth

 Final alpha occupancy:  12   6   6   3   6   3   3   1
 Final beta  occupancy:  10   6   6   2   6   2   2   1

 !RHF STATE 1.1 Energy               -14077.5281004234    
 Nuclear energy                         0.00000000
 One-electron energy               -19819.54328594
 Two-electron energy                 5742.01518552
 Virial quotient                       -0.77136055
 !RHF STATE 1.1 Dipole moment           0.00000000     0.00000000     0.00000000
 Dipole moment /Debye                   0.00000000     0.00000000     0.00000000

 ELECTRON ORBITALS
 =================


   Orb  Occ    Energy  Couls-En    Coefficients

                                   1 1s      1 1s      1 1s      1 1s      1 1s      1 1s      1 1s      1 1s      1 1s      1 1s   
                                   1 3d0     1 3d2+    1 3d0     1 3d2+    1 3d0     1 3d2+    1 3d0     1 3d2+    1 3d0     1 3d2+ 
                                   1 3d0     1 3d2+    1 3d0     1 3d2+    1 3d0     1 3d2+    1 5g0     1 5g4+    1 5g2+    1 5g0  
                                   1 5g4+    1 5g2+    1 5g0     1 5g4+    1 5g2+ 

   1.1   2 -1813.1550-3988.0650  0.961743  0.244313 -0.095203  0.044626 -0.017678 -0.000375  0.338711  4.650128-17.880207-13.370792
                                 0.000000 -0.000000 -0.000000  0.000000 -0.000000  0.000000  0.000000 -0.000000 -0.000000  0.000000
                                -0.000000  0.000000 -0.000000  0.000000  0.000000 -0.000000 -0.000000 -0.000000 -0.000000  0.000000
                                 0.000000  0.000000 -0.000000 -0.000000  0.000000

   2.1   2  -272.2608 -801.5650 -0.155804  0.847049  0.471880 -0.156030  0.058248 -0.011767 -0.167457 -2.675613 10.809656  8.164779
                                -0.000000  0.000000 -0.000000  0.000000  0.000000 -0.000000  0.000000 -0.000000 -0.000000  0.000000
                                -0.000000  0.000000 -0.000000  0.000000  0.000000 -0.000000 -0.000000  0.000000  0.000000  0.000000
                                 0.000000 -0.000000 -0.000000 -0.000000 -0.000000

   3.1   2   -51.5811 -259.8157  0.069657 -0.186869  0.643430  0.689771 -0.167596  0.038766 -0.011683  1.019807 -5.446254 -4.304036
                                -0.000000  0.000000 -0.000000  0.000000  0.000000 -0.000000 -0.000000  0.000000  0.000000 -0.000000
                                 0.000000 -0.000000  0.000000 -0.000000 -0.000000  0.000000  0.000000  0.000000 -0.000000 -0.000000
                                -0.000000  0.000000  0.000000  0.000000  0.000000

   4.1   2   -79.2126 -378.4780 -0.000000  0.000000 -0.000000  0.000000  0.000000  0.000000 -0.000000 -0.000000  0.000000  0.000000
                                -0.000520  0.998688  0.000021 -0.039433 -0.000003  0.006379 -0.000015  0.028061  0.001373 -2.635319
                                 0.001382 -2.652072  0.000159 -0.305267 -0.000008  0.015317 -0.000000 -0.000000  0.000000  0.000000
                                 0.000000 -0.000000 -0.000000 -0.000000  0.000000

   5.1   2   -79.2126 -378.4780  0.000000 -0.000000  0.000000  0.000000 -0.000000 -0.000000  0.000000  0.000000 -0.000000 -0.000000
                                 0.998688  0.000520 -0.039433 -0.000021  0.006379  0.000003  0.028061  0.000015 -2.635319 -0.001373
                                -2.652072 -0.001382 -0.305267 -0.000159  0.015317  0.000008  0.000000 -0.000000 -0.000000 -0.000000
                                 0.000000  0.000000  0.000000  0.000000 -0.000000

   6.1   2    -8.0610 -101.6980 -0.026786  0.066203 -0.140907  0.463739  0.752440 -0.117719  0.223734  0.041433  2.340564  2.037013
                                 0.000000 -0.000000  0.000000 -0.000000  0.000000 -0.000000  0.000000 -0.000000 -0.000002  0.000000
                                -0.000002  0.000000 -0.000000  0.000000  0.000000 -0.000000 -0.000000  0.000000  0.000000 -0.000000
                                 0.000000 -0.000000  0.000000  0.000000  0.000000

   7.1   2   -13.4793 -159.1155 -0.000000  0.000000 -0.000000  0.000000  0.000000 -0.000000  0.000000 -0.000000  0.000000  0.000000
                                -0.000035  0.043279 -0.000801  0.989318  0.000038 -0.047092  0.000014 -0.017571 -0.004155  5.134977
                                -0.004223  5.219184 -0.000517  0.638382  0.000014 -0.017759  0.000000  0.000000 -0.000000 -0.000000
                                -0.000000  0.000000  0.000000  0.000000 -0.000000

   8.1   2   -13.4793 -159.1155  0.000000 -0.000000  0.000000 -0.000000 -0.000000  0.000000 -0.000000  0.000000 -0.000000 -0.000000
                                 0.043279  0.000035  0.989318  0.000801 -0.047092 -0.000038 -0.017571 -0.000014  5.134977  0.004155
                                 5.219184  0.004223  0.638382  0.000517 -0.017759 -0.000014 -0.000000  0.000000  0.000000  0.000000
                                -0.000000 -0.000000 -0.000000 -0.000000  0.000000

   9.1   2    -0.9977  -44.4051  0.010075 -0.024586  0.049812 -0.117645  0.500293  0.528387 -0.509922  0.150133 -1.065222 -0.473601
                                -0.000000  0.000000  0.000001 -0.000000  0.000008 -0.000000 -0.000005  0.000000 -0.000011  0.000000
                                -0.000013  0.000000 -0.000002  0.000000  0.000000 -0.000000 -0.000000  0.000000 -0.000000  0.000000
                                -0.000000 -0.000000 -0.000000  0.000000  0.000000

  10.1   2    -0.1280  -16.3810 -0.002752  0.006718 -0.013539  0.031052 -0.103159  0.775043  0.603239  0.007140  0.194841  0.104961
                                 0.000000 -0.000000 -0.000002  0.000000 -0.000014  0.000000  0.000012 -0.000000  0.000011 -0.000000
                                 0.000012 -0.000000  0.000003 -0.000000  0.000000 -0.000000 -0.000000 -0.000000  0.000000 -0.000000
                                 0.000000 -0.000000 -0.000000 -0.000000  0.000000

  11.1   +    -0.9411  -57.5398  0.000000 -0.000000  0.000000 -0.000000  0.000000 -0.000000 -0.000000  0.000000 -0.000000 -0.000000
                                 0.000006 -0.009743 -0.000058  0.088863 -0.000533  0.816100  0.000326 -0.498351  0.000881 -1.348854
                                 0.001033 -1.580936  0.000138 -0.211540 -0.000004  0.006595  0.000000  0.000000 -0.000000  0.000000
                                 0.000000 -0.000000  0.000000 -0.000000 -0.000000

  12.1   +    -0.9411  -57.5398 -0.000000  0.000000 -0.000001  0.000002 -0.000007  0.000009  0.000016 -0.000001  0.000015  0.000007
                                -0.009743 -0.000006  0.088863  0.000058  0.816100  0.000533 -0.498351 -0.000326 -1.348847 -0.000881
                                -1.580929 -0.001033 -0.211539 -0.000138  0.006595  0.000004 -0.000000 -0.000000  0.000000 -0.000000
                                 0.000000  0.000000 -0.000000 -0.000000 -0.000000

  13.1   0     0.0763  -11.3049  0.000000 -0.000000  0.000000 -0.000000  0.000000 -0.000000 -0.000000 -0.000000  0.000000 -0.000000
                                 0.000000  0.000870 -0.000003 -0.007235  0.000198  0.416038  0.000320  0.672161  0.004090  8.585963
                                 0.003918  8.225704  0.000553  1.161264 -0.000110 -0.230244  0.000000 -0.000000  0.000000  0.000000
                                 0.000000  0.000000 -0.000000 -0.000000 -0.000000

  14.1   0     0.0763  -11.3049  0.000000 -0.000000  0.000000 -0.000000  0.000000 -0.000003 -0.000002 -0.000001 -0.000000 -0.000001
                                 0.000870 -0.000000 -0.007235  0.000003  0.416038 -0.000198  0.672161 -0.000320  8.585966 -0.004090
                                 8.225707 -0.003918  1.161265 -0.000553 -0.230244  0.000110  0.000000  0.000000 -0.000000  0.000000
                                -0.000000  0.000000 -0.000000 -0.000000 -0.000000

                                   1 2px     1 2px     1 2px     1 2px     1 2px     1 2px     1 2px     1 4f1+    1 4f3+ 

   1.2   2  -394.6362-1091.3539  0.999732  0.019452 -0.009113  0.003235  0.001373  0.061196 -0.058219  0.000000  0.000000

   2.2   2   -91.8442 -393.2836 -0.019379  0.999790  0.002382 -0.001919 -0.000860 -0.046459  0.044564 -0.000000  0.000000

   3.2   2   -19.3454 -171.4222  0.009511 -0.002443  0.998912 -0.030817 -0.010578 -0.217906  0.198643 -0.000000  0.000000

   4.2   2    -4.3743 -121.2563 -0.000000  0.000000 -0.000000  0.000000  0.000000  0.000000 -0.000000 -0.000397  1.000000

   5.2   2    -4.3743 -121.2563  0.000000 -0.000000  0.000000 -0.000000 -0.000000 -0.000000  0.000000  1.000000  0.000397

   6.2   2    -2.5543  -72.2693 -0.003785  0.002336  0.035055  0.986787  0.098316  0.509066 -0.397650  0.000000 -0.000000

   7.2   0    -0.0181  -22.3444 -0.000928  0.000614  0.006530 -0.089153  0.990603  0.277222 -0.377819 -0.000000  0.000000

   8.2   0     0.5615  -31.7075  0.001637 -0.000941 -0.013124  0.113180 -0.092758  0.541481 -1.524160 -0.000000  0.000000

                                   1 2py     1 2py     1 2py     1 2py     1 2py     1 2py     1 2py     1 4f1-    1 4f3- 

   1.3   2  -394.6362-1091.3539  0.999732  0.019452 -0.009113  0.003235  0.001373  0.061196 -0.058219  0.000000 -0.000000

   2.3   2   -91.8442 -393.2836 -0.019379  0.999790  0.002382 -0.001919 -0.000860 -0.046459  0.044564 -0.000000  0.000000

   3.3   2   -19.3454 -171.4222  0.009511 -0.002443  0.998912 -0.030817 -0.010578 -0.217906  0.198643 -0.000000  0.000000

   4.3   2    -4.3743 -121.2563 -0.000000  0.000000 -0.000000  0.000000 -0.000000  0.000000 -0.000000 -0.000460  1.000000

   5.3   2    -4.3743 -121.2563  0.000000 -0.000000  0.000000 -0.000000 -0.000000 -0.000000  0.000000  1.000000  0.000460

   6.3   2    -2.5543  -72.2693 -0.003785  0.002336  0.035055  0.986787  0.098316  0.509066 -0.397650  0.000000 -0.000000

   7.3   0    -0.0181  -22.3444 -0.000928  0.000614  0.006530 -0.089153  0.990603  0.277222 -0.377819 -0.000000  0.000000

   8.3   0     0.5615  -31.7075  0.001637 -0.000941 -0.013124  0.113180 -0.092758  0.541481 -1.524160 -0.000000  0.000000

                                   1 3d2-    1 3d2-    1 3d2-    1 3d2-    1 3d2-    1 3d2-    1 3d2-    1 3d2-    1 5g2-    1 5g4- 
                                   1 5g2-    1 5g4-    1 5g2-    1 5g4- 

   1.4   2   -79.2126 -378.4780  0.998688 -0.039433  0.006379  0.028061 -2.635319 -2.652072 -0.305267  0.015317  0.000000 -0.000000
                                -0.000000  0.000000  0.000000 -0.000000

   2.4   2   -13.4793 -159.1155  0.043279  0.989318 -0.047092 -0.017571  5.134979  5.219186  0.638382 -0.017759 -0.000000  0.000000
                                 0.000000 -0.000000 -0.000000  0.000000

   3.4   +    -0.9411  -57.5398 -0.009743  0.088863  0.816100 -0.498351 -1.348854 -1.580936 -0.211540  0.006595 -0.000000  0.000000
                                -0.000000  0.000000 -0.000000 -0.000000

   4.4   0     0.0763  -11.3049  0.000870 -0.007235  0.416038  0.672161  8.585964  8.225705  1.161264 -0.230244  0.000000 -0.000000
                                 0.000000  0.000000 -0.000000 -0.000000

   5.4   0     0.3322  -19.7413 -0.002893  0.024324 -0.354652 -0.648408 24.352082 23.757838  3.097373 -0.637085 -0.000000  0.000000
                                -0.000000 -0.000000  0.000000  0.000000

                                   1 2pz     1 2pz     1 2pz     1 2pz     1 2pz     1 2pz     1 2pz     1 4f0     1 4f2+ 

   1.5   2  -394.6362-1091.3539  0.999732  0.019452 -0.009113  0.003235  0.001373  0.061196 -0.058219  0.000000 -0.000000

   2.5   2   -91.8442 -393.2836 -0.019379  0.999790  0.002382 -0.001919 -0.000860 -0.046459  0.044564 -0.000000  0.000000

   3.5   2   -19.3454 -171.4222  0.009511 -0.002443  0.998912 -0.030817 -0.010578 -0.217906  0.198643 -0.000000  0.000000

   4.5   2    -4.3743 -121.2563 -0.000000  0.000000 -0.000000  0.000000  0.000000  0.000000 -0.000000 -0.001719  0.999999

   5.5   2    -4.3743 -121.2563  0.000000 -0.000000  0.000000 -0.000000 -0.000000 -0.000000  0.000000  0.999999  0.001719

   6.5   2    -2.5543  -72.2693 -0.003785  0.002336  0.035055  0.986787  0.098316  0.509066 -0.397650  0.000000 -0.000000

   7.5   0    -0.0181  -22.3444 -0.000928  0.000614  0.006530 -0.089153  0.990602  0.277223 -0.377821 -0.000000  0.000000

   8.5   0     0.5615  -31.7075  0.001637 -0.000941 -0.013124  0.113180 -0.092759  0.541481 -1.524160 -0.000000  0.000000

                                   1 3d1+    1 3d1+    1 3d1+    1 3d1+    1 3d1+    1 3d1+    1 3d1+    1 3d1+    1 5g1+    1 5g3+ 
                                   1 5g1+    1 5g3+    1 5g1+    1 5g3+ 

   1.6   2   -79.2126 -378.4780  0.998688 -0.039433  0.006379  0.028061 -2.635319 -2.652072 -0.305267  0.015317  0.000000 -0.000000
                                -0.000000  0.000000  0.000000  0.000000

   2.6   2   -13.4793 -159.1155  0.043279  0.989318 -0.047092 -0.017571  5.134979  5.219185  0.638382 -0.017759 -0.000000  0.000000
                                 0.000000 -0.000000 -0.000000  0.000000

   3.6   +    -0.9411  -57.5398 -0.009743  0.088863  0.816101 -0.498351 -1.348849 -1.580932 -0.211539  0.006595 -0.000000  0.000000
                                -0.000000  0.000000 -0.000000 -0.000000

   4.6   0     0.0763  -11.3049  0.000870 -0.007235  0.416038  0.672161  8.585965  8.225706  1.161265 -0.230244  0.000000 -0.000000
                                 0.000000  0.000000 -0.000000 -0.000000

   5.6   0     0.3322  -19.7413 -0.002893  0.024324 -0.354652 -0.648409 24.352090 23.757846  3.097373 -0.637085 -0.000000  0.000000
                                -0.000000 -0.000000  0.000000  0.000000

                                   1 3d1-    1 3d1-    1 3d1-    1 3d1-    1 3d1-    1 3d1-    1 3d1-    1 3d1-    1 5g1-    1 5g3- 
                                   1 5g1-    1 5g3-    1 5g1-    1 5g3- 

   1.7   2   -79.2126 -378.4780  0.998688 -0.039433  0.006379  0.028061 -2.635319 -2.652072 -0.305267  0.015317  0.000000  0.000000
                                -0.000000  0.000000  0.000000 -0.000000

   2.7   2   -13.4793 -159.1155  0.043279  0.989318 -0.047092 -0.017571  5.134979  5.219185  0.638382 -0.017759 -0.000000  0.000000
                                 0.000000 -0.000000 -0.000000  0.000000

   3.7   +    -0.9411  -57.5398 -0.009743  0.088863  0.816101 -0.498351 -1.348849 -1.580932 -0.211539  0.006595 -0.000000  0.000000
                                -0.000000  0.000000 -0.000000 -0.000000

   4.7   0     0.0763  -11.3049  0.000870 -0.007235  0.416038  0.672161  8.585965  8.225706  1.161265 -0.230244  0.000000 -0.000000
                                 0.000000  0.000000 -0.000000 -0.000000

   5.7   0     0.3322  -19.7413 -0.002893  0.024324 -0.354652 -0.648409 24.352090 23.757846  3.097373 -0.637085 -0.000000  0.000000
                                -0.000000 -0.000000  0.000000  0.000000

                                   1 4f2- 

   1.8   2    -4.3743 -121.2563  1.000000

 HOMO     12.1    -0.941120 =     -25.6092eV
 LUMO      7.2    -0.018113 =      -0.4929eV
 LUMO-HOMO         0.923006 =      25.1163eV


 **********************************************************************************************************************************
 DATASETS  * FILE   NREC   LENGTH (MB)   RECORD NAMES
              1      18       20.11       500      610      700      900      950      970     1000      129      960     1100   
                                          VAR    BASINP    GEOM    SYMINP    ZMAT    AOBASIS   BASIS     P2S    ABASIS      S 
                                         1400     1410     1200     1210     1080     1600     1650     1700   
                                           T        V       H0       H01     AOSYM     SMH    MOLCAS    OPER   

              2       4        2.85       700     1000      520     4202   
                                         GEOM     BASIS   MCVARS     RHF  

 PROGRAMS   *        TOTAL       RHF       INT
 CPU TIMES  *        10.47      0.08     10.24
 REAL TIME  *        12.33 SEC
 DISK USED  *       317.88 MB      
 SF USED    *         0.01 MB      
 GA USED    *         0.00 MB       (max)       0.00 MB       (current)
 **********************************************************************************************************************************


 PROGRAM * MULTI (Direct Multiconfiguration SCF)       Authors: P.J. Knowles, H.-J. Werner (1984)     S.T. Elbert (1988)


 Number of closed-shell orbitals:  34 (   9   6   6   2   6   2   2   1 )
 Number of active  orbitals:        6 (   3   0   0   1   0   1   1   0 )
 Number of external orbitals:      65 (  23   3   3  11   3  11  11   0 )

 State symmetry 1

 Orbital occupancy restrictions for symmetry 1
  1      1       200000                          

 Number of electrons:     7    Spin symmetry=Sextet    Space symmetry=1
 Number of states:        2
 Number of CSFs:          2

 State symmetry 2

 Orbital occupancy restrictions for symmetry 4
  1      1       200000                          

 Number of electrons:     7    Spin symmetry=Sextet    Space symmetry=4
 Number of states:        1
 Number of CSFs:          1

 State symmetry 3

 Orbital occupancy restrictions for symmetry 6
  1      1       200000                          

 Number of electrons:     7    Spin symmetry=Sextet    Space symmetry=6
 Number of states:        1
 Number of CSFs:          1

 State symmetry 4

 Orbital occupancy restrictions for symmetry 7
  1      1       200000                          

 Number of electrons:     7    Spin symmetry=Sextet    Space symmetry=7
 Number of states:        1
 Number of CSFs:          1
 
 Maximum number of shells:             2
 Maximum number of spin couplings:     6

 Storage for configuration lists      93, coupling coefficients    299, address lists    409

 Molecular orbitals read from record     4202.2  Type=RHF/CANONICAL (state 1.1)
 *** IN SYMMETRY 1 ORBITAL  4 SYMMETRY CONTAMINATION OF 0.521D-03 HAS BEEN REMOVED
 *** IN SYMMETRY 1 ORBITAL  5 SYMMETRY CONTAMINATION OF 0.521D-03 HAS BEEN REMOVED
 *** IN SYMMETRY 1 ORBITAL  7 SYMMETRY CONTAMINATION OF 0.809D-03 HAS BEEN REMOVED
 *** IN SYMMETRY 1 ORBITAL  8 SYMMETRY CONTAMINATION OF 0.809D-03 HAS BEEN REMOVED
 *** IN SYMMETRY 1 ORBITAL  9 SYMMETRY CONTAMINATION OF 0.120D-04 HAS BEEN REMOVED
 *** IN SYMMETRY 1 ORBITAL 10 SYMMETRY CONTAMINATION OF 0.289D-04 HAS BEEN REMOVED
 *** IN SYMMETRY 1 ORBITAL 11 SYMMETRY CONTAMINATION OF 0.653D-03 HAS BEEN REMOVED
 *** IN SYMMETRY 1 ORBITAL 12 SYMMETRY CONTAMINATION OF 0.666D-03 HAS BEEN REMOVED

 EXTRA SYMMETRY OF MOS IN SYMMETRY 1:   1 1 1 3 2 1 3 2 1 1   3 2 3 2 1 3 2 5 6 4   3 2 5 6 4 1 3 2 5 6   4 3 2 1 1
 *** IN SYMMETRY 2 ORBITAL  4 SYMMETRY CONTAMINATION OF 0.397D-03 HAS BEEN REMOVED
 *** IN SYMMETRY 2 ORBITAL  5 SYMMETRY CONTAMINATION OF 0.398D-03 HAS BEEN REMOVED
 EXTRA SYMMETRY OF MOS IN SYMMETRY 2:   1 1 1 3 2 1 1 1 1
 *** IN SYMMETRY 3 ORBITAL  4 SYMMETRY CONTAMINATION OF 0.459D-03 HAS BEEN REMOVED
 *** IN SYMMETRY 3 ORBITAL  5 SYMMETRY CONTAMINATION OF 0.460D-03 HAS BEEN REMOVED
 EXTRA SYMMETRY OF MOS IN SYMMETRY 3:   1 1 1 3 2 1 1 1 1
 EXTRA SYMMETRY OF MOS IN SYMMETRY 4:   1 1 1 1 1 3 2 1 3 2   1 3 2 1
 *** IN SYMMETRY 5 ORBITAL  4 SYMMETRY CONTAMINATION OF 0.172D-02 HAS BEEN REMOVED
 *** IN SYMMETRY 5 ORBITAL  5 SYMMETRY CONTAMINATION OF 0.172D-02 HAS BEEN REMOVED
 EXTRA SYMMETRY OF MOS IN SYMMETRY 5:   1 1 1 3 2 1 1 1 1
 EXTRA SYMMETRY OF MOS IN SYMMETRY 6:   1 1 1 1 1 3 2 1 3 2   1 3 2 1
 EXTRA SYMMETRY OF MOS IN SYMMETRY 7:   1 1 1 1 1 3 2 1 3 2   1 3 2 1

 Wavefunction dump at record             5202.2

 Convergence thresholds  0.10E-01 (gradient)  0.15E-05 (energy)  0.10E-02 (step length)

 Weight factors for state symmetry  1:    0.20000   0.20000
 Weight factors for state symmetry  2:    0.20000
 Weight factors for state symmetry  3:    0.20000
 Weight factors for state symmetry  4:    0.20000

 Eigenvalues of redundancy matrix
   1-  3   -0.000000    0.000000    1.000000

 Non-redundant active-active orbital rotations:
     1  2  3  4  5
  2   
  3  +   
  4         
  5            
  6               

 Number of orbital rotations:      463   (    33 Core/Active    327 Core/Virtual   1 Active/Active    102 Active/Virtual)
 Total number of variables:        470


 ITER. MIC  NCI  NEG     ENERGY(VAR)     ENERGY(PROJ)   ENERGY CHANGE     GRAD(0)  GRAD(ORB)   GRAD(CI)     STEP       TIME

   1   23   28    0  -14077.79810430  -14077.86149041   -0.06338612    0.49468517 0.00000001 0.00000000  0.19D+00      0.41
   2   17   32    0  -14077.86316840  -14077.86330802   -0.00013962    0.01861974 0.00000000 0.00000000  0.14D-01      0.85
   3   14   20    0  -14077.86330831  -14077.86330831   -0.00000000    0.00005176 0.00000000 0.00000000  0.47D-04      1.10

 ** WVFN ****  CONVERGENCE REACHED, FINAL GRADIENT:  0.11D-08



 Results for state 1.1
 =====================

 !MCSCF STATE 1.1 Energy             -14077.8633083063    
 Nuclear energy                         0.00000000
 Kinetic energy                     18250.51468835
 One electron energy               -19841.28344099
 Two electron energy                 5763.42013269
 Virial ratio                           1.77136802

 !MCSCF STATE 1.1 Dipole moment         0.00000000     0.00000000     0.00000000
 Dipole moment /Debye                   0.00000000     0.00000000     0.00000000

 Results for state 2.1
 =====================

 !MCSCF STATE 2.1 Energy             -14077.8633083063    
 Nuclear energy                         0.00000000
 Kinetic energy                     18250.51468835
 One electron energy               -19841.28344099
 Two electron energy                 5763.42013269
 Virial ratio                           1.77136802

 !MCSCF STATE 2.1 Dipole moment         0.00000000     0.00000000     0.00000000
 Dipole moment /Debye                   0.00000000     0.00000000     0.00000000



 Results for state 1.4
 =====================

 !MCSCF STATE 1.4 Energy             -14077.8633083063    
 Nuclear energy                         0.00000000
 Kinetic energy                     18250.51468835
 One electron energy               -19841.28344099
 Two electron energy                 5763.42013269
 Virial ratio                           1.77136802

 !MCSCF STATE 1.4 Dipole moment         0.00000000     0.00000000     0.00000000
 Dipole moment /Debye                   0.00000000     0.00000000     0.00000000



 Results for state 1.6
 =====================

 !MCSCF STATE 1.6 Energy             -14077.8633083062    
 Nuclear energy                         0.00000000
 Kinetic energy                     18250.51468835
 One electron energy               -19841.28344099
 Two electron energy                 5763.42013269
 Virial ratio                           1.77136802

 !MCSCF STATE 1.6 Dipole moment         0.00000000     0.00000000     0.00000000
 Dipole moment /Debye                   0.00000000     0.00000000     0.00000000



 Results for state 1.7
 =====================

 !MCSCF STATE 1.7 Energy             -14077.8633083062    
 Nuclear energy                         0.00000000
 Kinetic energy                     18250.51468835
 One electron energy               -19841.28344099
 Two electron energy                 5763.42013269
 Virial ratio                           1.77136802

 !MCSCF STATE 1.7 Dipole moment         0.00000000     0.00000000     0.00000000
 Dipole moment /Debye                   0.00000000     0.00000000     0.00000000

 State-averaged charge density matrix saved on record  5202.2 (density set 1)


 NATURAL ORBITALS (state averaged)
 =================================

   Orb     Occ        Energy       Coefficients

                                   1 1s      1 1s      1 1s      1 1s      1 1s      1 1s      1 1s      1 1s      1 1s      1 1s   
                                   1 3d0     1 3d2+    1 3d0     1 3d2+    1 3d0     1 3d2+    1 3d0     1 3d2+    1 3d0     1 3d2+ 
                                   1 3d0     1 3d2+    1 3d0     1 3d2+    1 3d0     1 3d2+    1 5g0     1 5g4+    1 5g2+    1 5g0  
                                   1 5g4+    1 5g2+    1 5g0     1 5g4+    1 5g2+ 

   1.1  2.00000 -1812.849952     0.961743  0.244312 -0.095203  0.044626 -0.017678 -0.000375  0.338713  4.650151-17.880284-13.370847
                                 0.000000 -0.000000  0.000000 -0.000000 -0.000000  0.000000 -0.000000  0.000000  0.000000 -0.000000
                                 0.000000 -0.000000  0.000000 -0.000000 -0.000000  0.000000  0.000000  0.000000  0.000000  0.000000
                                 0.000000  0.000000  0.000000  0.000000  0.000000

   2.1  2.00000  -271.951262    -0.155803  0.847049  0.471881 -0.156029  0.058247 -0.011766 -0.167458 -2.675600 10.809602  8.164732
                                -0.000000  0.000000 -0.000000  0.000000  0.000000 -0.000000  0.000000 -0.000000 -0.000000  0.000000
                                -0.000000  0.000000 -0.000000  0.000000  0.000000 -0.000000  0.000000  0.000000  0.000000  0.000000
                                 0.000000  0.000000  0.000000  0.000000  0.000000

   3.1  2.00000   -78.904399     0.000000 -0.000000  0.000000 -0.000000 -0.000000 -0.000000  0.000000 -0.000000 -0.000000 -0.000000
                                 0.998689 -0.000070 -0.039418  0.000003  0.006373 -0.000000  0.028076 -0.000002 -2.636082  0.000186
                                -2.652831  0.000187 -0.305344  0.000021  0.015333 -0.000001  0.000000  0.000000  0.000000  0.000000
                                 0.000000  0.000000  0.000000  0.000000  0.000000

   4.1  2.00000   -78.904399     0.000000 -0.000000  0.000000  0.000000 -0.000000 -0.000000  0.000000  0.000000 -0.000000 -0.000000
                                 0.000070  0.998689 -0.000003 -0.039418  0.000000  0.006373  0.000002  0.028076 -0.000186 -2.636082
                                -0.000187 -2.652831 -0.000021 -0.305344  0.000001  0.015333  0.000000  0.000000  0.000000  0.000000
                                 0.000000  0.000000  0.000000  0.000000  0.000000

   5.1  2.00000   -51.277466     0.069652 -0.186859  0.643415  0.689787 -0.167569  0.038754 -0.011645  1.019627 -5.445734 -4.303637
                                 0.000000 -0.000000 -0.000000  0.000000  0.000000 -0.000000  0.000000 -0.000000 -0.000000  0.000000
                                -0.000000  0.000000 -0.000000  0.000000  0.000000 -0.000000  0.000000  0.000000  0.000000  0.000000
                                 0.000000  0.000000  0.000000  0.000000  0.000000

   6.1  2.00000   -13.179395    -0.000000  0.000000 -0.000000  0.000000  0.000000  0.000000  0.000000  0.000000  0.000000  0.000000
                                 0.043257 -0.000001  0.989365 -0.000015 -0.046720  0.000001 -0.017901  0.000000  5.140705 -0.000080
                                 5.224781 -0.000081  0.638952 -0.000010 -0.017879  0.000000  0.000000  0.000000  0.000000  0.000000
                                 0.000000  0.000000  0.000000  0.000000  0.000000

   7.1  2.00000   -13.179395     0.000000 -0.000000  0.000000 -0.000000 -0.000000  0.000000 -0.000000  0.000000 -0.000000 -0.000000
                                 0.000001  0.043257  0.000015  0.989365 -0.000001 -0.046720 -0.000000 -0.017901  0.000080  5.140704
                                 0.000081  5.224781  0.000010  0.638952 -0.000000 -0.017879  0.000000  0.000000  0.000000  0.000000
                                 0.000000  0.000000  0.000000  0.000000  0.000000

   8.1  2.00000    -7.768533    -0.026759  0.066140 -0.140795  0.463457  0.753406 -0.115946  0.222543  0.038958  2.338462  2.032764
                                 0.000000  0.000000 -0.000000  0.000000  0.000000 -0.000000  0.000000 -0.000000 -0.000000  0.000000
                                -0.000000  0.000000 -0.000000  0.000000  0.000000 -0.000000  0.000000  0.000000  0.000000  0.000000
                                 0.000000  0.000000  0.000000  0.000000  0.000000

   9.1  2.00000    -0.797028     0.009599 -0.023430  0.047515 -0.112811  0.481901  0.598692 -0.473626  0.158416 -1.017357 -0.446237
                                 0.000000  0.000000 -0.000000 -0.000000  0.000000  0.000000  0.000000  0.000000 -0.000000 -0.000000
                                -0.000000 -0.000000 -0.000000 -0.000000  0.000000  0.000000  0.000000  0.000000  0.000000  0.000000
                                 0.000000  0.000000  0.000000  0.000000  0.000000

  10.1  1.20000    -0.380886     0.000000  0.000000  0.000000  0.000000  0.000000  0.000000  0.000000  0.000000  0.000000  0.000000
                                 0.000000 -0.009316  0.000000  0.084939  0.000000  0.850257  0.000000 -0.462273  0.000000 -1.166862
                                 0.000000 -1.353973  0.000000 -0.196188  0.000000  0.003667  0.000000  0.000000  0.000000  0.000000
                                 0.000000  0.000000  0.000000  0.000000  0.000000

  11.1  1.20000    -0.380886     0.000000  0.000000  0.000000  0.000000  0.000000  0.000000  0.000000  0.000000  0.000000  0.000000
                                -0.009316  0.000000  0.084939  0.000000  0.850257  0.000000 -0.462273  0.000000 -1.166862  0.000000
                                -1.353973  0.000000 -0.196188  0.000000  0.003667  0.000000  0.000000  0.000000  0.000000  0.000000
                                 0.000000  0.000000  0.000000  0.000000  0.000000

  12.1  1.00000    -0.015191    -0.002802  0.006840 -0.013813  0.032083 -0.120258  0.685276  0.719467  0.134198  0.139846  0.238991
                                 0.000000  0.000000  0.000000  0.000000  0.000000  0.000000  0.000000  0.000000  0.000000  0.000000
                                 0.000000  0.000000  0.000000  0.000000  0.000000  0.000000  0.000000  0.000000  0.000000  0.000000
                                 0.000000  0.000000  0.000000  0.000000  0.000000

                                   1 2px     1 2px     1 2px     1 2px     1 2px     1 2px     1 2px     1 4f1+    1 4f3+ 

   1.2  2.00000  -394.326749     0.999732  0.019453 -0.009114  0.003236  0.001373  0.061204 -0.058227  0.000000  0.000000

   2.2  2.00000   -91.536048    -0.019379  0.999790  0.002411 -0.001932 -0.000863 -0.046569  0.044671  0.000000  0.000000

   3.2  2.00000   -19.043617     0.009511 -0.002472  0.998922 -0.030565 -0.010534 -0.217581  0.198381  0.000000  0.000000

   4.2  2.00000    -4.080078     0.000000  0.000000  0.000000  0.000000  0.000000  0.000000  0.000000 -0.000050  1.000000

   5.2  2.00000    -4.080078     0.000000  0.000000  0.000000  0.000000  0.000000  0.000000  0.000000  1.000000  0.000050

   6.2  2.00000    -2.296109    -0.003749  0.002325  0.034532  0.989047  0.085625  0.499763 -0.398009  0.000000  0.000000

                                   1 2py     1 2py     1 2py     1 2py     1 2py     1 2py     1 2py     1 4f1-    1 4f3- 

   1.3  2.00000  -394.326749     0.999732  0.019453 -0.009114  0.003236  0.001373  0.061204 -0.058227 -0.000000  0.000000

   2.3  2.00000   -91.536048    -0.019379  0.999790  0.002411 -0.001932 -0.000863 -0.046569  0.044671  0.000000  0.000000

   3.3  2.00000   -19.043617     0.009511 -0.002472  0.998922 -0.030565 -0.010534 -0.217581  0.198381 -0.000000  0.000000

   4.3  2.00000    -4.080078    -0.000000  0.000000  0.000000 -0.000000 -0.000000 -0.000000  0.000000  0.000050  1.000000

   5.3  2.00000    -4.080078    -0.000000  0.000000  0.000000 -0.000000 -0.000000 -0.000000  0.000000  1.000000 -0.000050

   6.3  2.00000    -2.296109    -0.003749  0.002325  0.034532  0.989047  0.085625  0.499763 -0.398009 -0.000000  0.000000

                                   1 3d2-    1 3d2-    1 3d2-    1 3d2-    1 3d2-    1 3d2-    1 3d2-    1 3d2-    1 5g2-    1 5g4- 
                                   1 5g2-    1 5g4-    1 5g2-    1 5g4- 

   1.4  2.00000   -78.904399     0.998689 -0.039418  0.006373  0.028076 -2.636082 -2.652831 -0.305344  0.015333  0.000000  0.000000
                                 0.000000  0.000000  0.000000  0.000000

   2.4  2.00000   -13.179395     0.043257  0.989365 -0.046720 -0.017901  5.140705  5.224781  0.638952 -0.017879  0.000000  0.000000
                                 0.000000  0.000000  0.000000  0.000000

   3.4  1.20000    -0.380886    -0.009316  0.084939  0.850257 -0.462273 -1.166862 -1.353973 -0.196188  0.003667  0.000000  0.000000
                                 0.000000  0.000000  0.000000  0.000000

                                   1 2pz     1 2pz     1 2pz     1 2pz     1 2pz     1 2pz     1 2pz     1 4f0     1 4f2+ 

   1.5  2.00000  -394.326749     0.999732  0.019453 -0.009114  0.003236  0.001373  0.061204 -0.058227  0.000000  0.000000

   2.5  2.00000   -91.536048    -0.019379  0.999790  0.002411 -0.001932 -0.000863 -0.046569  0.044671  0.000000  0.000000

   3.5  2.00000   -19.043617     0.009511 -0.002472  0.998922 -0.030565 -0.010534 -0.217581  0.198381  0.000000 -0.000000

   4.5  2.00000    -4.080078     0.000000 -0.000000  0.000000 -0.000000 -0.000000 -0.000000  0.000000  0.000000  1.000000

   5.5  2.00000    -4.080078     0.000000  0.000000  0.000000  0.000000  0.000000  0.000000  0.000000  1.000000  0.000000

   6.5  2.00000    -2.296109    -0.003749  0.002325  0.034532  0.989047  0.085625  0.499763 -0.398009  0.000000  0.000000

                                   1 3d1+    1 3d1+    1 3d1+    1 3d1+    1 3d1+    1 3d1+    1 3d1+    1 3d1+    1 5g1+    1 5g3+ 
                                   1 5g1+    1 5g3+    1 5g1+    1 5g3+ 

   1.6  2.00000   -78.904399     0.998689 -0.039418  0.006373  0.028076 -2.636082 -2.652831 -0.305344  0.015333  0.000000  0.000000
                                 0.000000  0.000000  0.000000  0.000000

   2.6  2.00000   -13.179395     0.043257  0.989365 -0.046720 -0.017901  5.140704  5.224781  0.638952 -0.017879  0.000000  0.000000
                                 0.000000  0.000000  0.000000  0.000000

   3.6  1.20000    -0.380886    -0.009316  0.084939  0.850257 -0.462273 -1.166862 -1.353973 -0.196188  0.003667  0.000000  0.000000
                                 0.000000  0.000000  0.000000  0.000000

                                   1 3d1-    1 3d1-    1 3d1-    1 3d1-    1 3d1-    1 3d1-    1 3d1-    1 3d1-    1 5g1-    1 5g3- 
                                   1 5g1-    1 5g3-    1 5g1-    1 5g3- 

   1.7  2.00000   -78.904399     0.998689 -0.039418  0.006373  0.028076 -2.636082 -2.652831 -0.305344  0.015333  0.000000  0.000000
                                 0.000000  0.000000  0.000000  0.000000

   2.7  2.00000   -13.179395     0.043257  0.989365 -0.046720 -0.017901  5.140704  5.224781  0.638952 -0.017879  0.000000  0.000000
                                 0.000000  0.000000  0.000000  0.000000

   3.7  1.20000    -0.380886    -0.009316  0.084939  0.850257 -0.462273 -1.166862 -1.353973 -0.196188  0.003667  0.000000  0.000000
                                 0.000000  0.000000  0.000000  0.000000

                                   1 4f2- 

   1.8  2.00000    -4.080078     1.000000
 
 *** IN SYMMETRY 1 ORBITAL  3 SYMMETRY CONTAMINATION OF 0.704D-04 HAS BEEN REMOVED
 *** IN SYMMETRY 1 ORBITAL  4 SYMMETRY CONTAMINATION OF 0.704D-04 HAS BEEN REMOVED
 *** IN SYMMETRY 1 ORBITAL  6 SYMMETRY CONTAMINATION OF 0.155D-04 HAS BEEN REMOVED
 *** IN SYMMETRY 1 ORBITAL  7 SYMMETRY CONTAMINATION OF 0.155D-04 HAS BEEN REMOVED

 EXTRA SYMMETRY OF MOS IN SYMMETRY 1:   1 1 2 3 1 2 3 1 1 3   2 1 2 3 1 2 3 4 5 6   2 3 4 5 6 1 2 3 4 5   6 2 3 1 1
 *** IN SYMMETRY 2 ORBITAL  4 SYMMETRY CONTAMINATION OF 0.501D-04 HAS BEEN REMOVED
 *** IN SYMMETRY 2 ORBITAL  5 SYMMETRY CONTAMINATION OF 0.501D-04 HAS BEEN REMOVED
 *** IN SYMMETRY 3 ORBITAL  4 SYMMETRY CONTAMINATION OF 0.498D-04 HAS BEEN REMOVED
 *** IN SYMMETRY 3 ORBITAL  5 SYMMETRY CONTAMINATION OF 0.498D-04 HAS BEEN REMOVED
 EXTRA SYMMETRY OF MOS IN SYMMETRY 4:   1 1 1 1 1 2 3 1 2 3   1 3 2 1

 Natural orbital dump (state averaged) at molpro section  5202.2    (Orbital set 2)


 CI vector for state symmetry 1
 ==============================

 /2/ / / /          1.0000000  -0.0000000
 //2 / / /          0.0000000   1.0000000

 TOTAL ENERGIES                    -14077.86330831-14077.46972762

 CI vector for state symmetry 2
 ==============================

 /// 2 / /          1.0000000

 TOTAL ENERGIES                    -14077.86330831

 CI vector for state symmetry 3
 ==============================

 /// / 2 /          1.0000000

 TOTAL ENERGIES                    -14077.86330831

 CI vector for state symmetry 4
 ==============================

 /// / / 2          1.0000000

 TOTAL ENERGIES                    -14077.86330831



 **********************************************************************************************************************************
 DATASETS  * FILE   NREC   LENGTH (MB)   RECORD NAMES
              1      19       34.33       500      610      700      900      950      970     1000      129      960     1100   
                                          VAR    BASINP    GEOM    SYMINP    ZMAT    AOBASIS   BASIS     P2S    ABASIS      S 
                                         1400     1410     1200     1210     1080     1600     1650     1700     1380   
                                           T        V       H0       H01     AOSYM     SMH    MOLCAS    OPER     JKOP   

              2       5        5.42       700     1000      520     4202     5202   
                                         GEOM     BASIS   MCVARS     RHF     MCSCF   

 PROGRAMS   *        TOTAL     MULTI       RHF       INT
 CPU TIMES  *        11.96      1.49      0.08     10.24
 REAL TIME  *        15.78 SEC
 DISK USED  *       317.88 MB      
 SF USED    *        66.42 MB      
 GA USED    *         0.00 MB       (max)       0.00 MB       (current)
 **********************************************************************************************************************************


 PROGRAM * POP (Mulliken population analysis)

 
 Density matrix read from record         5202.2  Type=MCSCF/CHARGE (state averaged)
 
 Population analysis by basis function type

 Unique atom        s        p        d        f        g    Total    Charge
   1  RE     11.00000 24.00000 26.00000 14.00000  0.00000 75.00000  - 0.00000


 **********************************************************************************************************************************
 DATASETS  * FILE   NREC   LENGTH (MB)   RECORD NAMES
              1      19       34.33       500      610      700      900      950      970     1000      129      960     1100   
                                          VAR    BASINP    GEOM    SYMINP    ZMAT    AOBASIS   BASIS     P2S    ABASIS      S 
                                         1400     1410     1200     1210     1080     1600     1650     1700     1380   
                                           T        V       H0       H01     AOSYM     SMH    MOLCAS    OPER     JKOP   

              2       5        5.42       700     1000      520     4202     5202   
                                         GEOM     BASIS   MCVARS     RHF     MCSCF   

 PROGRAMS   *        TOTAL       POP     MULTI       RHF       INT
 CPU TIMES  *        11.96      0.00      1.49      0.08     10.24
 REAL TIME  *        15.79 SEC
 DISK USED  *       317.88 MB      
 SF USED    *        66.42 MB      
 GA USED    *         0.00 MB       (max)       0.00 MB       (current)
 **********************************************************************************************************************************
 SETTING BASIS          =    USERDEF


 Recomputing integrals since basis changed


 Using spherical harmonics



 PROGRAM * SEWARD (Integral evaluation for generally contracted gaussian basis sets)     Author: Roland Lindh, 1990

 Geometry written to block  1 of record 700

 Orientation using atomic masses  
 Molecule type: Atom
 Symmetry elements: X,Y,Z
 Rotational constants:       0.0000000      0.0000000      0.0000000 GHz  (calculated with average atomic masses)

 Point group  D2h 



 ATOMIC COORDINATES

 NR  ATOM    CHARGE       X              Y              Z

   1  RE     75.00    0.000000000    0.000000000    0.000000000

 NUCLEAR CHARGE:                   75
 NUMBER OF PRIMITIVE AOS:         455
 NUMBER OF SYMMETRY AOS:          370
 NUMBER OF CONTRACTIONS:          370   (  88Ag  +  61B3u +  61B2u +  28B1g +  61B1u +  28B2g +  28B3g +  15Au  )
 NUMBER OF CORE ORBITALS:          34   (   9Ag  +   6B3u +   6B2u +   2B1g +   6B1u +   2B2g +   2B3g +   1Au  )
 NUMBER OF VALENCE ORBITALS:        6   (   3Ag  +   0B3u +   0B2u +   1B1g +   0B1u +   1B2g +   1B3g +   0Au  )


 NUCLEAR REPULSION ENERGY    0.00000000

 EXTRA SYMMETRY OF AOS IN SYMMETRY 1:   1 1 1 1 1 1 1 1 1 1   1 1 1 1 1 1 1 1 1 1   1 1 1 1 1 1 1 1 1 1   1 1 1 1 1 2 3 2 3 2
                                        3 2 3 2 3 2 3 2 3 2   3 2 3 2 3 2 3 2 3 2   3 2 3 2 3 2 3 2 3 2   3 2 3 2 3 2 3 2 3 4
                                        5 6 4 5 6 4 5 6
 EXTRA SYMMETRY OF AOS IN SYMMETRY 2:   1 1 1 1 1 1 1 1 1 1   1 1 1 1 1 1 1 1 1 1   1 1 1 1 1 1 1 1 1 1   1 2 3 2 3 2 3 2 3 2
                                        3 2 3 2 3 2 3 2 3 2   3 2 3 2 3 2 3 2 3 2   3
 EXTRA SYMMETRY OF AOS IN SYMMETRY 3:   1 1 1 1 1 1 1 1 1 1   1 1 1 1 1 1 1 1 1 1   1 1 1 1 1 1 1 1 1 1   1 2 3 2 3 2 3 2 3 2
                                        3 2 3 2 3 2 3 2 3 2   3 2 3 2 3 2 3 2 3 2   3
 EXTRA SYMMETRY OF AOS IN SYMMETRY 4:   1 1 1 1 1 1 1 1 1 1   1 1 1 1 1 1 1 1 1 1   1 1 2 3 2 3 2 3
 EXTRA SYMMETRY OF AOS IN SYMMETRY 5:   1 1 1 1 1 1 1 1 1 1   1 1 1 1 1 1 1 1 1 1   1 1 1 1 1 1 1 1 1 1   1 2 3 2 3 2 3 2 3 2
                                        3 2 3 2 3 2 3 2 3 2   3 2 3 2 3 2 3 2 3 2   3
 EXTRA SYMMETRY OF AOS IN SYMMETRY 6:   1 1 1 1 1 1 1 1 1 1   1 1 1 1 1 1 1 1 1 1   1 1 2 3 2 3 2 3
 EXTRA SYMMETRY OF AOS IN SYMMETRY 7:   1 1 1 1 1 1 1 1 1 1   1 1 1 1 1 1 1 1 1 1   1 1 2 3 2 3 2 3

 Eigenvalues of metric

         1 0.694E-06 0.139E-04 0.139E-04 0.237E-04 0.481E-04 0.143E-03 0.143E-03 0.146E-03
         2 0.469E-06 0.114E-04 0.100E-03 0.100E-03 0.132E-03 0.442E-03 0.112E-02 0.146E-02
         3 0.469E-06 0.114E-04 0.100E-03 0.100E-03 0.132E-03 0.442E-03 0.112E-02 0.146E-02
         4 0.139E-04 0.143E-03 0.607E-03 0.227E-02 0.654E-02 0.151E-01 0.281E-01 0.503E-01
         5 0.469E-06 0.114E-04 0.100E-03 0.100E-03 0.132E-03 0.442E-03 0.112E-02 0.146E-02
         6 0.139E-04 0.143E-03 0.607E-03 0.227E-02 0.654E-02 0.151E-01 0.281E-01 0.503E-01
         7 0.139E-04 0.143E-03 0.607E-03 0.227E-02 0.654E-02 0.151E-01 0.281E-01 0.503E-01
         8 0.100E-03 0.146E-02 0.736E-02 0.189E-01 0.417E-01 0.101E+00 0.199E+00 0.345E+00


 Contracted 2-electron integrals neglected if value below      1.0D-15
 AO integral compression algorithm  1   Integral accuracy      1.0D-15

     2358.247 MB (compressed) written to integral file ( 47.5%)

     Node minimum: 95.683 MB, node maximum: 312.476 MB


 NUMBER OF SORTED TWO-ELECTRON INTEGRALS:   27596060.     BUFFER LENGTH:  32768
 NUMBER OF SEGMENTS:   1  SEGMENT LENGTH:   27596060      RECORD LENGTH: 524288

 Memory used in sort:      28.15 MW

 SORT1 READ   620842336. AND WROTE    17439919. INTEGRALS IN     50 RECORDS. CPU TIME:    12.77 SEC, REAL TIME:    14.59 SEC
 SORT2 READ   190734154. AND WROTE   304061875. INTEGRALS IN   9207 RECORDS. CPU TIME:     0.67 SEC, REAL TIME:     1.20 SEC

 Node minimum:    27596060.  Node maximum:    27763322. integrals

 OPERATOR DM      FOR CENTER  0  COORDINATES:    0.000000    0.000000    0.000000


 **********************************************************************************************************************************
 DATASETS  * FILE   NREC   LENGTH (MB)   RECORD NAMES
              1      18       20.81       500      610      700      900      950      970     1001      129      960     1100   
                                          VAR    BASINP    GEOM    SYMINP    ZMAT    AOBASIS   BASIS     P2S    ABASIS      S 
                                         1400     1410     1200     1210     1080     1600     1650     1700   
                                           T        V       H0       H01     AOSYM     SMH    MOLCAS    OPER   

              2       6        5.54       700     1000      520     4202     5202     1001   
                                         GEOM     BASIS   MCVARS     RHF     MCSCF    BASIS   

 PROGRAMS   *        TOTAL       INT       POP     MULTI       RHF       INT
 CPU TIMES  *       120.99    109.03      0.00      1.49      0.08     10.24
 REAL TIME  *       128.23 SEC
 DISK USED  *         5.10 GB      
 SF USED    *        66.42 MB      
 GA USED    *         0.00 MB       (max)       0.00 MB       (current)
 **********************************************************************************************************************************


 PROGRAM * MULTI (Direct Multiconfiguration SCF)       Authors: P.J. Knowles, H.-J. Werner (1984)     S.T. Elbert (1988)


 Number of closed-shell orbitals:  34 (   9   6   6   2   6   2   2   1 )
 Number of active  orbitals:        6 (   3   0   0   1   0   1   1   0 )
 Number of external orbitals:     330 (  76  55  55  25  55  25  25  14 )

 State symmetry 1

 Orbital occupancy restrictions for symmetry 1
  1      1       200000                          

 Number of electrons:     7    Spin symmetry=Sextet    Space symmetry=1
 Number of states:        2
 Number of CSFs:          2

 State symmetry 2

 Orbital occupancy restrictions for symmetry 4
  1      1       200000                          

 Number of electrons:     7    Spin symmetry=Sextet    Space symmetry=4
 Number of states:        1
 Number of CSFs:          1

 State symmetry 3

 Orbital occupancy restrictions for symmetry 6
  1      1       200000                          

 Number of electrons:     7    Spin symmetry=Sextet    Space symmetry=6
 Number of states:        1
 Number of CSFs:          1

 State symmetry 4

 Orbital occupancy restrictions for symmetry 7
  1      1       200000                          

 Number of electrons:     7    Spin symmetry=Sextet    Space symmetry=7
 Number of states:        1
 Number of CSFs:          1
 
 Maximum number of shells:             2
 Maximum number of spin couplings:     6

 Storage for configuration lists      93, coupling coefficients    299, address lists    409

 Molecular orbitals read from record     5202.2  Type=MCSCF/NATURAL (state averaged)
 
 Present basis size:      88  61  61  28  61  28  28  15
 Previous basis size:     35   9   9  14   9  14  14   1
 Previous occupation:     12   6   6   3   6   3   3   1
 Previous closed-shells:   9   6   6   2   6   2   2   1
 Present occupation:      12   6   6   3   6   3   3   1
 Present closed-shells:    9   6   6   2   6   2   2   1
 Wavefunction symmetry:    1   Sextet  

 Orbital overlap <old|new>:  < 1.1| 1.1> = 1.000000   < 2.1| 2.1> = 1.000000   < 3.1| 3.1> = 1.000000   < 4.1| 4.1> = 1.000000
                             < 5.1| 5.1> = 1.000000   < 6.1| 6.1> = 1.000000   < 7.1| 7.1> = 1.000000   < 8.1| 8.1> = 1.000000
                             < 9.1| 9.1> = 1.000000   < 1.2| 1.2> = 1.000000   < 2.2| 2.2> = 1.000000   < 3.2| 3.2> = 1.000000
                             < 4.2| 4.2> = 1.000000   < 5.2| 5.2> = 1.000000   < 6.2| 6.2> = 1.000000   < 1.3| 1.3> = 1.000000
                             < 2.3| 2.3> = 1.000000   < 3.3| 3.3> = 1.000000   < 4.3| 4.3> = 1.000000   < 5.3| 5.3> = 1.000000
                             < 6.3| 6.3> = 1.000000   < 1.4| 1.4> = 1.000000   < 2.4| 2.4> = 1.000000   < 1.5| 1.5> = 1.000000
                             < 2.5| 2.5> = 1.000000   < 3.5| 3.5> = 1.000000   < 4.5| 4.5> = 1.000000   < 5.5| 5.5> = 1.000000
                             < 6.5| 6.5> = 1.000000   < 1.6| 1.6> = 1.000000   < 2.6| 2.6> = 1.000000   < 1.7| 1.7> = 1.000000
                             < 2.7| 2.7> = 1.000000   < 1.8| 1.8> = 1.000000   <10.1|10.1> = 1.000000   <11.1|11.1> = 1.000000
                             <12.1|12.1> = 1.000000   < 3.4| 3.4> = 1.000000   < 3.6| 3.6> = 1.000000   < 3.7| 3.7> = 1.000000

 EXTRA SYMMETRY OF MOS IN SYMMETRY 1:   1 1 2 3 1 2 3 1 1 3   2 1 1 2 3 1 3 2 1 4   5 6 2 3 1 2 3 6 4 5   1 3 2 3 2 1 6 5 4 2
                                        3 1 3 2 1 3 2 1 3 2   2 3 1 3 2 1 2 3 3 2   1 2 3 1 3 2 1 3 2 1   1 3 2 1 3 2 1 1 1 1
                                        1 1 1 1 1 1 1 1
 EXTRA SYMMETRY OF MOS IN SYMMETRY 2:   1 1 1 3 2 1 3 2 1 3   2 1 2 3 1 2 3 1 2 3   1 3 2 2 3 1 3 2 1 3   2 1 1 2 3 1 1 3 2 1
                                        2 3 1 1 3 2 1 3 2 1   1 1 1 1 1 1 1 1 1 1   1
 EXTRA SYMMETRY OF MOS IN SYMMETRY 3:   1 1 1 3 2 1 2 3 1 3   2 1 3 2 1 2 3 1 2 3   1 2 3 2 3 1 2 3 1 2   3 1 1 3 2 1 1 3 2 1
                                        3 2 1 1 3 2 1 2 3 1   1 1 1 1 1 1 1 1 1 1   1
 EXTRA SYMMETRY OF MOS IN SYMMETRY 4:   1 1 1 1 1 2 3 1 1 3   2 1 1 3 2 1 1 1 1 1   1 1 1 1 1 1 1 1
 EXTRA SYMMETRY OF MOS IN SYMMETRY 5:   1 1 1 3 2 1 3 2 1 2   3 1 2 3 1 2 3 1 3 2   1 2 3 2 3 1 3 2 1 2   3 1 1 3 2 1 1 2 3 1
                                        3 2 1 1 2 3 1 3 2 1   1 1 1 1 1 1 1 1 1 1   1
 EXTRA SYMMETRY OF MOS IN SYMMETRY 6:   1 1 1 1 1 2 3 1 1 3   2 1 1 3 2 1 1 1 1 1   1 1 1 1 1 1 1 1
 EXTRA SYMMETRY OF MOS IN SYMMETRY 7:   1 1 1 1 1 2 3 1 1 2   3 1 1 3 2 1 1 1 1 1   1 1 1 1 1 1 1 1

 Wavefunction dump at record             6202.2

 Convergence thresholds  0.10E-01 (gradient)  0.15E-05 (energy)  0.10E-02 (step length)

 Weight factors for state symmetry  1:    0.20000   0.20000
 Weight factors for state symmetry  2:    0.20000
 Weight factors for state symmetry  3:    0.20000
 Weight factors for state symmetry  4:    0.20000

 Eigenvalues of redundancy matrix
   1-  3   -0.000000    0.000000    1.000000

 Non-redundant active-active orbital rotations:
     1  2  3  4  5
  2   
  3  +   
  4         
  5            
  6               

 Number of orbital rotations:     2175   (    33 Core/Active   1838 Core/Virtual   1 Active/Active    303 Active/Virtual)
 Total number of variables:       2182


 ITER. MIC  NCI  NEG     ENERGY(VAR)     ENERGY(PROJ)   ENERGY CHANGE     GRAD(0)  GRAD(ORB)   GRAD(CI)     STEP       TIME

   1  100   28    0  -14077.78459204  -15788.03178975-1710.24719771   ********************** 0.00000000  0.11D+01      4.66
   2  201   32    0  -15781.93940876  -15784.30671381   -2.36730505   *********** 0.03198307 0.00000000  0.55D+00     10.23
   3  190   32    0  -15784.47336544  -15784.52673493   -0.05336949    0.86229850 0.00083837 0.00000000  0.16D+00     15.78
   4   80   32    0  -15784.52831063  -15784.52844741   -0.00013679    0.02520120 0.00071324 0.00000000  0.10D-01     20.88
   5   70   20    0  -15784.52844769  -15784.52844770   -0.00000000    0.00071619 0.00075596 0.00000000  0.32D-04     24.06
   6   40   20    0  -15784.52844770  -15784.52844770    0.00000000    0.00075596 0.00058709 0.00000000  0.99D-06     27.19

 ** WVFN ****  CONVERGENCE REACHED, FINAL GRADIENT:  0.59D-03



 Results for state 1.1
 =====================

 !MCSCF STATE 1.1 Energy             -15784.5335236389    
 Nuclear energy                         0.00000000
 Kinetic energy                     15785.35991883
 One electron energy               -21828.94553453
 Two electron energy                 6044.41201089
 Virial ratio                           1.99994765

 !MCSCF STATE 1.1 Dipole moment         0.00000000     0.00000000     0.00000000
 Dipole moment /Debye                   0.00000000     0.00000000     0.00000000

 Results for state 2.1
 =====================

 !MCSCF STATE 2.1 Energy             -15784.5087601309    
 Nuclear energy                         0.00000000
 Kinetic energy                     15781.18660851
 One electron energy               -21805.80912570
 Two electron energy                 6021.30036556
 Virial ratio                           2.00021051

 !MCSCF STATE 2.1 Dipole moment         0.00000000     0.00000000     0.00000000
 Dipole moment /Debye                   0.00000000     0.00000000     0.00000000



 Results for state 1.4
 =====================

 !MCSCF STATE 1.4 Energy             -15784.5331120748    
 Nuclear energy                         0.00000000
 Kinetic energy                     15785.37085189
 One electron energy               -21828.98693769
 Two electron energy                 6044.45382561
 Virial ratio                           1.99994693

 !MCSCF STATE 1.4 Dipole moment         0.00000000     0.00000000     0.00000000
 Dipole moment /Debye                   0.00000000     0.00000000     0.00000000



 Results for state 1.6
 =====================

 !MCSCF STATE 1.6 Energy             -15784.5334213168    
 Nuclear energy                         0.00000000
 Kinetic energy                     15785.36267580
 One electron energy               -21828.95599805
 Two electron energy                 6044.42257674
 Virial ratio                           1.99994747

 !MCSCF STATE 1.6 Dipole moment         0.00000000     0.00000000     0.00000000
 Dipole moment /Debye                   0.00000000     0.00000000     0.00000000



 Results for state 1.7
 =====================

 !MCSCF STATE 1.7 Energy             -15784.5334213168    
 Nuclear energy                         0.00000000
 Kinetic energy                     15785.36267580
 One electron energy               -21828.95599805
 Two electron energy                 6044.42257674
 Virial ratio                           1.99994747

 !MCSCF STATE 1.7 Dipole moment         0.00000000     0.00000000     0.00000000
 Dipole moment /Debye                   0.00000000     0.00000000     0.00000000

 State-averaged charge density matrix saved on record  6202.2 (density set 1)


 *** WARNING (BLKOP):   18 NON ZERO ELEMENTS IN SYM  2

 *** WARNING (BLKOP):   18 NON ZERO ELEMENTS IN SYM  3

 *** WARNING (BLKOP):    8 NON ZERO ELEMENTS IN SYM  5

 NATURAL ORBITALS (state averaged)
 =================================

   Orb     Occ        Energy       Coefficients

                                   1 1s      1 1s      1 1s      1 1s      1 1s      1 1s      1 1s      1 1s      1 1s      1 1s   
                                   1 1s      1 1s      1 1s      1 1s      1 1s      1 1s      1 1s      1 1s      1 1s      1 1s   
                                   1 1s      1 1s      1 1s      1 1s      1 1s      1 1s      1 1s      1 1s      1 1s      1 1s   
                                   1 1s      1 1s      1 1s      1 1s      1 1s      1 3d0     1 3d2+    1 3d0     1 3d2+    1 3d0  
                                   1 3d2+    1 3d0     1 3d2+    1 3d0     1 3d2+    1 3d0     1 3d2+    1 3d0     1 3d2+    1 3d0  
                                   1 3d2+    1 3d0     1 3d2+    1 3d0     1 3d2+    1 3d0     1 3d2+    1 3d0     1 3d2+    1 3d0  
                                   1 3d2+    1 3d0     1 3d2+    1 3d0     1 3d2+    1 3d0     1 3d2+    1 3d0     1 3d2+    1 3d0  
                                   1 3d2+    1 3d0     1 3d2+    1 3d0     1 3d2+    1 3d0     1 3d2+    1 3d0     1 3d2+    1 5g0  
                                   1 5g4+    1 5g2+    1 5g0     1 5g4+    1 5g2+    1 5g0     1 5g4+    1 5g2+ 

   1.1  2.00000 -2429.649048     0.000000  0.000000  0.000000  0.000001  0.000005  0.000018  0.000057  0.000172  0.000490  0.001344
                                 0.003584  0.009302  0.023378  0.055831  0.122330  0.229267  0.324055  0.274063  0.095619  0.007150
                                 0.000538 -0.000253  0.000079 -0.000078  0.000057 -0.000052 -0.000151  0.000029  0.000011 -0.000001
                                 0.000000 -0.000000  0.000166 -0.000023  0.000000  0.000000  0.000000  0.000000  0.000000  0.000000
                                 0.000000  0.000000  0.000000  0.000000  0.000000  0.000000  0.000000  0.000000  0.000000  0.000000
                                 0.000000  0.000000  0.000000  0.000000  0.000000 -0.000000 -0.000000 -0.000000 -0.000000 -0.000000
                                -0.000000 -0.000000 -0.000000 -0.000000 -0.000000 -0.000000 -0.000000 -0.000000 -0.000000  0.000000
                                 0.000000 -0.000000 -0.000000  0.000000  0.000000 -0.000000 -0.000000  0.000000  0.000000  0.000000
                                 0.000000  0.000000  0.000000  0.000000  0.000000  0.000000  0.000000  0.000000

   2.1  2.00000  -405.719675    -0.000000 -0.000000 -0.000000 -0.000000 -0.000002 -0.000006 -0.000019 -0.000057 -0.000163 -0.000447
                                -0.001197 -0.003125 -0.007962 -0.019563 -0.045448 -0.095668 -0.168346 -0.199965 -0.033150  0.377904
                                 0.544961  0.231741  0.022047  0.000654 -0.000187 -0.000259 -0.000749  0.000180  0.000076 -0.000005
                                 0.000003 -0.000001  0.000779 -0.000147  0.000000  0.000000 -0.000000  0.000000 -0.000000  0.000000
                                -0.000000  0.000000 -0.000000  0.000000 -0.000000  0.000000 -0.000000  0.000000 -0.000000  0.000000
                                -0.000000  0.000000 -0.000000  0.000000 -0.000000  0.000000  0.000000  0.000000  0.000000 -0.000000
                                 0.000000 -0.000000  0.000000 -0.000000  0.000000  0.000000  0.000000 -0.000000  0.000000  0.000000
                                -0.000000 -0.000000  0.000000  0.000000 -0.000000 -0.000000  0.000000  0.000000 -0.000000  0.000000
                                 0.000000  0.000000  0.000000  0.000000  0.000000  0.000000  0.000000  0.000000

   3.1  2.00000   -95.168419     0.000000  0.000000  0.000000  0.000000  0.000001  0.000003  0.000009  0.000027  0.000077  0.000211
                                 0.000564  0.001475  0.003767  0.009292  0.021797  0.046696  0.085291  0.107998  0.019263 -0.297605
                                -0.600726 -0.227518  0.694840  0.635088  0.107405  0.016238  0.036951 -0.007946 -0.003281  0.000218
                                -0.000133  0.000054 -0.039168  0.006486 -0.000015  0.000000  0.000000  0.000000  0.000000  0.000000
                                 0.000000  0.000000  0.000000  0.000000  0.000000  0.000000  0.000000  0.000000  0.000000  0.000000
                                 0.000000  0.000000  0.000000  0.000000  0.000000  0.000000  0.000000  0.000000  0.000000 -0.000000
                                -0.000000 -0.000000 -0.000000  0.000000  0.000000  0.000000  0.000000 -0.000000 -0.000000  0.000000
                                 0.000000 -0.000000 -0.000000  0.000000  0.000000 -0.000000 -0.000000  0.000000  0.000000  0.000000
                                 0.000000  0.000000  0.000000  0.000000  0.000000  0.000000  0.000000  0.000000

   4.1  2.00000   -72.399209     0.000000  0.000000  0.000000  0.000000  0.000000  0.000000  0.000000  0.000000  0.000000  0.000000
                                 0.000000  0.000000  0.000000  0.000000  0.000000  0.000000  0.000000  0.000000  0.000000 -0.000000
                                -0.000000 -0.000000  0.000000  0.000000 -0.000000 -0.000000 -0.000000  0.000000  0.000000  0.000000
                                -0.000000  0.000000 -0.000000 -0.000000 -0.000000  0.000000  0.000004  0.000000  0.000055  0.000000
                                 0.000509  0.000000  0.003122  0.000000  0.014004  0.000000  0.046658  0.000000  0.120429  0.000000
                                 0.233884  0.000000  0.330857  0.000000  0.298333  0.000000  0.136233  0.000000  0.026890  0.000000
                                 0.001330 -0.000000 -0.001074  0.000000  0.000295  0.000000  0.000285 -0.000000 -0.000024  0.000000
                                 0.000006 -0.000000 -0.000002  0.000000  0.001678 -0.000000 -0.000383  0.000000  0.000001  0.000000
                                 0.000000  0.000000  0.000000  0.000000  0.000000  0.000000  0.000000  0.000000

   5.1  2.00000   -72.398684    -0.000000 -0.000000 -0.000000 -0.000000 -0.000000 -0.000000 -0.000000 -0.000000 -0.000000 -0.000000
                                -0.000000 -0.000000 -0.000000 -0.000000 -0.000000 -0.000000 -0.000000 -0.000000 -0.000000  0.000000
                                 0.000000  0.000000 -0.000000 -0.000000 -0.000000  0.000000  0.000000 -0.000000 -0.000000 -0.000000
                                 0.000000 -0.000000  0.000000  0.000000  0.000000  0.000004 -0.000000  0.000055 -0.000000  0.000509
                                -0.000000  0.003122 -0.000000  0.014004 -0.000000  0.046659 -0.000000  0.120432 -0.000000  0.233890
                                -0.000000  0.330863 -0.000000  0.298326 -0.000000  0.136223 -0.000000  0.026888 -0.000000  0.001328
                                -0.000000 -0.001077  0.000000  0.000295 -0.000000  0.000285 -0.000000 -0.000024  0.000000  0.000006
                                -0.000000 -0.000002  0.000000  0.001680 -0.000000 -0.000383  0.000000  0.000001 -0.000000  0.000000
                                 0.000000  0.000000  0.000000  0.000000  0.000000  0.000000  0.000000  0.000000

   6.1  2.00000   -20.422780    -0.000000 -0.000000 -0.000000 -0.000000 -0.000000 -0.000001 -0.000004 -0.000013 -0.000038 -0.000103
                                -0.000277 -0.000722 -0.001847 -0.004554 -0.010722 -0.023030 -0.042532 -0.054512 -0.010423  0.165955
                                 0.360374  0.162157 -0.696636 -0.869632  0.346101  0.967902  0.263051 -0.025143 -0.014702  0.001207
                                -0.000752  0.000276  0.006818  0.031043 -0.000083 -0.000000  0.000000 -0.000000  0.000000 -0.000000
                                 0.000000 -0.000000  0.000000 -0.000000  0.000000 -0.000000  0.000000 -0.000000  0.000000 -0.000000
                                 0.000000 -0.000000  0.000000 -0.000000  0.000000 -0.000000  0.000000 -0.000000  0.000000 -0.000000
                                 0.000000  0.000000  0.000000 -0.000000  0.000000 -0.000000  0.000000  0.000000 -0.000000 -0.000000
                                 0.000000  0.000000 -0.000000 -0.000000  0.000000  0.000000 -0.000000 -0.000000  0.000000  0.000000
                                 0.000000  0.000000  0.000000  0.000000  0.000000  0.000000  0.000000  0.000000

   7.1  2.00000   -10.757444    -0.000000 -0.000000 -0.000000 -0.000000 -0.000000 -0.000000 -0.000000 -0.000000 -0.000000 -0.000000
                                -0.000000 -0.000000 -0.000000 -0.000000 -0.000000 -0.000000 -0.000000 -0.000000 -0.000000  0.000000
                                 0.000000  0.000000 -0.000000 -0.000000  0.000000  0.000000  0.000000 -0.000000 -0.000000 -0.000000
                                 0.000000 -0.000000  0.000000  0.000000  0.000000  0.000000 -0.000002  0.000000 -0.000027  0.000000
                                -0.000254  0.000000 -0.001558  0.000000 -0.007073  0.000000 -0.023770  0.000000 -0.062841  0.000000
                                -0.122668  0.000000 -0.168240  0.000000 -0.098750 -0.000000  0.154003 -0.000000  0.396850 -0.000000
                                 0.403167 -0.000000  0.179640 -0.000000  0.026339 -0.000000  0.000788 -0.000000  0.000172  0.000000
                                -0.000064 -0.000000  0.000020  0.000000 -0.000750 -0.000000  0.000043  0.000000 -0.000007  0.000000
                                 0.000000  0.000000  0.000000  0.000000  0.000000  0.000000  0.000000  0.000000

   8.1  2.00000   -10.755729     0.000000  0.000000  0.000000  0.000000  0.000000  0.000000  0.000000  0.000000  0.000000  0.000000
                                 0.000000  0.000000  0.000000  0.000000  0.000000  0.000000  0.000000  0.000000  0.000000 -0.000000
                                -0.000000 -0.000000  0.000000  0.000000 -0.000000 -0.000000 -0.000000  0.000000  0.000000  0.000000
                                -0.000000  0.000000 -0.000000 -0.000000 -0.000000 -0.000002 -0.000000 -0.000027 -0.000000 -0.000254
                                -0.000000 -0.001559 -0.000000 -0.007075 -0.000000 -0.023775 -0.000000 -0.062856 -0.000000 -0.122696
                                -0.000000 -0.168280 -0.000000 -0.098754 -0.000000  0.154077  0.000000  0.396988  0.000000  0.403198
                                 0.000000  0.179459  0.000000  0.026255  0.000000  0.000781  0.000000  0.000204  0.000000 -0.000052
                                -0.000000  0.000022  0.000000 -0.000799 -0.000000  0.000096  0.000000 -0.000007 -0.000000  0.000000
                                 0.000000  0.000000  0.000000  0.000000  0.000000  0.000000  0.000000  0.000000

   9.1  2.00000    -3.017541     0.000000  0.000000  0.000000  0.000000  0.000000  0.000001  0.000002  0.000005  0.000015  0.000041
                                 0.000111  0.000289  0.000743  0.001827  0.004314  0.009253  0.017173  0.021982  0.004425 -0.068972
                                -0.150798 -0.073611  0.335725  0.429037 -0.205574 -0.850774 -0.152805  0.802336  0.680682  0.055806
                                -0.022744  0.007423 -0.178268 -0.040329 -0.002237  0.000000 -0.000000  0.000000 -0.000000  0.000000
                                -0.000000  0.000000 -0.000000  0.000000 -0.000000  0.000000 -0.000000  0.000000 -0.000000  0.000000
                                -0.000000  0.000000 -0.000000  0.000000 -0.000000  0.000000  0.000000 -0.000000  0.000000 -0.000000
                                 0.000000 -0.000000  0.000000 -0.000000  0.000000  0.000000  0.000000 -0.000000  0.000000  0.000000
                                -0.000000 -0.000000  0.000000  0.000000 -0.000000 -0.000000  0.000000  0.000000 -0.000000  0.000000
                                 0.000000  0.000000  0.000000  0.000000  0.000000  0.000000  0.000000  0.000000

  10.1  1.20000    -0.158904     0.000000  0.000000  0.000000  0.000000  0.000000  0.000000  0.000000  0.000000  0.000000  0.000000
                                 0.000000  0.000000  0.000000  0.000000  0.000000  0.000000  0.000000  0.000000  0.000000  0.000000
                                 0.000000  0.000000  0.000000  0.000000  0.000000  0.000000  0.000000  0.000000  0.000000  0.000000
                                 0.000000  0.000000  0.000000  0.000000  0.000000  0.000000  0.000000  0.000007  0.000000  0.000066
                                 0.000000  0.000405  0.000000  0.001841  0.000000  0.006191  0.000000  0.016440  0.000000  0.032090
                                 0.000000  0.043873  0.000000  0.022520  0.000000 -0.053390  0.000000 -0.125029  0.000000 -0.120826
[...]
                       0.000000  0.001173 -0.000000  0.071685  0.000000 -0.079426 -0.000000 -0.224063 -0.000000 -0.960461
                       0.000001 -0.552922 -0.000000  0.511358  0.000000  1.171400 -0.000001 -0.068519  0.000001  0.242027
                      -0.000000

  20.5    0.0000040   -0.000000  0.000000  0.000000  0.000000  0.000000  0.000000  0.000002  0.000011  0.000038  0.000170
                       0.000485  0.001663  0.003711  0.008934  0.009705  0.006766 -0.036368 -0.057358  0.067335 -0.066657
                       0.982158 -6.828000 -3.352209-31.202299 -3.033834  0.980821 -0.097403 -0.305575  9.380240 33.388311
                       0.042569 -0.000223  0.000000  0.001414 -0.000000 -0.004002  0.000000  0.023845 -0.000000 -0.053494
                       0.000000 -0.049095  0.000000 -0.488812  0.000000  0.073256  0.000000  6.798479 -0.000003  4.663267
                      -0.000003 -0.876051  0.000001-10.295659  0.000005  0.185552  0.000000 -0.397636 -0.000000  0.582512
                       0.000000

  21.5    0.0000020    0.000000 -0.000000  0.000000 -0.000000 -0.000000  0.000000 -0.000000  0.000000 -0.000000  0.000000
                      -0.000000  0.000000  0.000000 -0.000000  0.000000  0.000000  0.000000 -0.000000  0.000000 -0.000002
                       0.000005 -0.000024 -0.000016  0.000037  0.000002 -0.000001  0.000001 -0.000000  0.000032 -0.000035
                       0.000000 -0.000000 -0.000365 -0.000000  0.002490  0.000000 -0.007056 -0.000000  0.042563  0.000000
                      -0.078266 -0.000000  0.033634 -0.000000 -0.760739 -0.000000  0.676293  0.000002  6.095764  0.000001
                       6.993366 -0.000001 -1.028077 -0.000003-10.915911  0.000000 -1.373374  0.000000 -0.045656  0.000000
                       0.585780

                         1 3d1+    1 3d1+    1 3d1+    1 3d1+    1 3d1+    1 3d1+    1 3d1+    1 3d1+    1 3d1+    1 3d1+ 
                         1 3d1+    1 3d1+    1 3d1+    1 3d1+    1 3d1+    1 3d1+    1 3d1+    1 3d1+    1 3d1+    1 3d1+ 
                         1 3d1+    1 3d1+    1 5g1+    1 5g3+    1 5g1+    1 5g3+    1 5g1+    1 5g3+ 

   1.6    2.0000000   -0.000002 -0.000027 -0.000254 -0.001559 -0.007075 -0.023775 -0.062855 -0.122694 -0.168277 -0.098754
                       0.154073  0.396979  0.403192  0.179473  0.026267  0.000788  0.000207 -0.000051  0.000022 -0.000799
                       0.000093 -0.000007 -0.000000 -0.000000 -0.000000 -0.000000 -0.000000 -0.000000

   2.6    2.0000000    0.000004  0.000055  0.000509  0.003122  0.014004  0.046659  0.120432  0.233890  0.330863  0.298326
                       0.136223  0.026888  0.001328 -0.001076  0.000295  0.000285 -0.000024  0.000006 -0.000002  0.001680
                      -0.000383  0.000001  0.000000  0.000000 -0.000000  0.000000  0.000000  0.000000

   3.6    0.9919856    0.000000  0.000007  0.000066  0.000403  0.001832  0.006161  0.016362  0.031937  0.043658  0.022421
                      -0.053142 -0.124432 -0.119775  0.045666  0.269492  0.386124  0.344168  0.168554  0.024310 -0.015227
                       0.015111 -0.000784 -0.002241  0.000000 -0.004901 -0.000002 -0.002460 -0.000017

   4.6    0.0049853   -0.000001 -0.000009 -0.000086 -0.000531 -0.002404 -0.008116 -0.021426 -0.042219 -0.057224 -0.032595
                       0.073141  0.173039  0.156401 -0.260237 -0.641260 -0.035762  0.506239  0.407639  0.057697  0.190120
                      -0.196534 -0.000864 -0.015681 -0.000060 -0.012120 -0.000056  0.000335 -0.000060

   5.6    0.0008458   -0.000000 -0.000001 -0.000014 -0.000081 -0.000380 -0.001245 -0.003380 -0.006491 -0.009223 -0.004421
                       0.011703  0.031911  0.009572 -0.223422 -0.076673  0.169631  0.018689 -0.060976 -0.012564  0.163392
                      -0.037423  0.000333  0.468939 -0.000745  0.586849 -0.000596  0.130189  0.000057

   6.6    0.0005586   -0.000000 -0.000000 -0.000000 -0.000001 -0.000005 -0.000018 -0.000048 -0.000093 -0.000131 -0.000070
                       0.000166  0.000467  0.000127 -0.003715 -0.001012  0.002716  0.000050 -0.001041 -0.000143  0.002744
                      -0.000602 -0.000000  0.000124  0.572445  0.000707  0.514793  0.000429  0.095803

   7.6    0.0003734    0.000001  0.000010  0.000099  0.000590  0.002749  0.009047  0.024342  0.047397  0.066564  0.039427
                      -0.086795 -0.241965 -0.031842  2.166896  0.576193 -1.529270  0.000327  0.639685  0.105106 -1.679885
                       0.284421 -0.001286  0.105920  0.001083  0.016426  0.000629  0.019337  0.000257

   8.6    0.0001457   -0.000000 -0.000001 -0.000013 -0.000079 -0.000356 -0.001206 -0.003123 -0.006421 -0.008561 -0.006102
                       0.014563  0.029203  0.025088 -0.358001  0.036030 -0.118099 -0.082257  0.025740  0.022055  0.206569
                       0.228165 -0.002173  0.927240  0.000479 -0.578849  0.000099 -0.468443 -0.000356

   9.6    0.0000848   -0.000000 -0.000000 -0.000000 -0.000000 -0.000001 -0.000005 -0.000012 -0.000025 -0.000031 -0.000017
                       0.000070  0.000072  0.000287 -0.000125  0.000411 -0.000782 -0.000007  0.000106 -0.000120 -0.000579
                       0.000661  0.000011 -0.000711  0.947181  0.000975 -0.757143 -0.000362 -0.363644

  10.6    0.0000513    0.000001  0.000016  0.000136  0.000896  0.003844  0.013715  0.033936  0.074131  0.086689  0.068126
                      -0.220825 -0.242671 -0.389378  3.287921 -1.157926  3.031624  0.840933 -0.675506 -0.192151 -1.293145
                      -3.439060  0.012210  0.088875  0.000191 -0.076113 -0.000020 -0.006188 -0.000191

  11.6    0.0000239   -0.000000 -0.000003 -0.000017 -0.000130 -0.000503 -0.001983 -0.004367 -0.011040 -0.010421 -0.013160
                       0.041947  0.011680  0.156406 -0.056401  0.390169 -0.451887  0.225017 -0.040681 -0.068720 -0.322339
                       0.101900  0.007752  0.695293  0.000784 -1.204701 -0.001173  1.105565  0.000541

  12.6    0.0000118    0.000000  0.000000  0.000000  0.000002  0.000007  0.000029  0.000066  0.000157  0.000148  0.000107
                      -0.000626 -0.000005 -0.002648 -0.006999 -0.004466  0.002629 -0.002574  0.000235  0.001012  0.011319
                       0.002308 -0.000104 -0.000190  0.602361  0.000371 -1.147455 -0.000599  1.156120

  13.6    0.0000095   -0.000001 -0.000024 -0.000167 -0.001248 -0.004882 -0.019122 -0.043259 -0.105958 -0.096156 -0.097340
                       0.455680 -0.023482  2.066129  6.962107  2.888391  1.545011  1.488956 -0.489081 -0.337619 -9.770771
                      -4.770312  0.036618 -0.068140  0.000772  0.126106 -0.001632 -0.129824  0.001853

  14.6    0.0000024    0.000004  0.000015  0.000344  0.001298  0.008936  0.021316  0.082133  0.105482  0.226508 -0.178398
                      -0.293671 -0.582669 -0.746257-22.207294  5.859435 -6.384557  1.806479 -0.119745 -0.497901 19.551342
                       3.216728  0.064029 -0.022970  0.000109  0.043021 -0.000240 -0.042517  0.000321

  15.6    0.0000008    0.000009 -0.000011  0.000625  0.000922  0.015009  0.018338  0.142531  0.057639  0.449891 -0.800715
                       0.538802 -2.747156  9.978007 14.077241  7.193067 24.052946 -2.043552 -0.239797  0.642492-22.853806
                     -28.073661 -0.078937  0.005567 -0.000085 -0.012422  0.000178  0.015582 -0.000226

  16.6    0.0000003    0.000002  0.000054  0.000386  0.002886  0.011881  0.046267  0.113614  0.224701  0.138001 -0.440368
                      -0.502028 -0.727029 12.703304 70.121559-23.928240-29.066413  0.911927  0.793475 -0.765988-69.692257
                      39.955252  0.100295 -0.002529  0.000033  0.005135 -0.000083 -0.006042  0.000121

  17.6    0.0000001   -0.000016  0.000202 -0.000336  0.006973  0.000374  0.102306  0.001270  0.575617 -0.712808  0.932652
                      -3.739258  8.892483-17.998803-29.025924 -2.686197-24.990384  5.118651 -2.815608  1.479319 40.121284
                      25.327862 -0.258960  0.000193 -0.000036 -0.001333  0.000083  0.002901 -0.000113

  18.6    0.0000000   -0.000002  0.000127  0.000416  0.005835  0.017748  0.092666  0.163068  0.367344 -0.256775 -0.556212
                      -1.373062  8.046356-26.969884-95.403684 30.857633 53.131470 -6.351854  2.617262 -1.167365101.557442
                     -64.884864  0.201978 -0.000086  0.000015  0.000728 -0.000035 -0.001427  0.000051

                         1 3d1-    1 3d1-    1 3d1-    1 3d1-    1 3d1-    1 3d1-    1 3d1-    1 3d1-    1 3d1-    1 3d1- 
                         1 3d1-    1 3d1-    1 3d1-    1 3d1-    1 3d1-    1 3d1-    1 3d1-    1 3d1-    1 3d1-    1 3d1- 
                         1 3d1-    1 3d1-    1 5g1-    1 5g3-    1 5g1-    1 5g3-    1 5g1-    1 5g3- 

   1.7    2.0000000    0.000004  0.000060  0.000558  0.003422  0.015372  0.051269  0.132723  0.257924  0.363471  0.313796
                       0.090909 -0.078459 -0.104754 -0.048238 -0.006623  0.000067 -0.000078  0.000019 -0.000008  0.001831
                      -0.000394  0.000003 -0.000000 -0.000000 -0.000000  0.000000 -0.000000 -0.000000

   2.7    2.0000000   -0.000001 -0.000012 -0.000111 -0.000683 -0.003143 -0.010667 -0.028970 -0.056865 -0.075340 -0.016822
                       0.184474  0.390076  0.389348  0.172872  0.025420  0.000835  0.000193 -0.000047  0.000020 -0.000329
                      -0.000011 -0.000007  0.000000 -0.000000  0.000000 -0.000000  0.000000 -0.000000

   3.7    0.9919856    0.000000  0.000007  0.000066  0.000403  0.001832  0.006161  0.016362  0.031937  0.043658  0.022421
                      -0.053142 -0.124432 -0.119775  0.045666  0.269492  0.386124  0.344168  0.168554  0.024310 -0.015227
                       0.015111 -0.000784 -0.002241 -0.000000 -0.004901  0.000002 -0.002460  0.000017

   4.7    0.0049853   -0.000001 -0.000009 -0.000086 -0.000531 -0.002404 -0.008116 -0.021426 -0.042219 -0.057224 -0.032595
                       0.073141  0.173039  0.156401 -0.260236 -0.641260 -0.035763  0.506239  0.407639  0.057697  0.190120
                      -0.196534 -0.000864 -0.015681  0.000060 -0.012120  0.000056  0.000335  0.000060

   5.7    0.0008458   -0.000000 -0.000001 -0.000014 -0.000081 -0.000380 -0.001245 -0.003380 -0.006491 -0.009223 -0.004421
                       0.011703  0.031911  0.009572 -0.223422 -0.076673  0.169631  0.018689 -0.060976 -0.012564  0.163393
                      -0.037423  0.000333  0.468939  0.000745  0.586849  0.000596  0.130189 -0.000057

   6.7    0.0005586   -0.000000 -0.000000 -0.000000 -0.000001 -0.000005 -0.000018 -0.000048 -0.000093 -0.000131 -0.000070
                       0.000166  0.000467  0.000127 -0.003713 -0.001011  0.002715  0.000049 -0.001040 -0.000143  0.002743
                      -0.000602 -0.000001  0.000124 -0.572445  0.000707 -0.514793  0.000429 -0.095803

   7.7    0.0003734    0.000001  0.000010  0.000099  0.000590  0.002749  0.009047  0.024342  0.047397  0.066564  0.039427
                      -0.086795 -0.241965 -0.031842  2.166896  0.576192 -1.529271  0.000327  0.639685  0.105106 -1.679886
                       0.284423 -0.001286  0.105920 -0.001083  0.016426 -0.000629  0.019337 -0.000257

   8.7    0.0001457    0.000000  0.000001  0.000013  0.000079  0.000356  0.001206  0.003123  0.006421  0.008562  0.006102
                      -0.014563 -0.029203 -0.025088  0.358002 -0.036030  0.118099  0.082257 -0.025740 -0.022055 -0.206571
                      -0.228166  0.002173 -0.927240  0.000480  0.578849  0.000098  0.468443 -0.000356

   9.7    0.0000848    0.000000  0.000000  0.000000  0.000000  0.000001  0.000005  0.000012  0.000025  0.000031  0.000017
                      -0.000070 -0.000072 -0.000287  0.000124 -0.000410  0.000782  0.000007 -0.000107  0.000120  0.000580
                      -0.000662 -0.000011  0.000712  0.947181 -0.000975 -0.757142  0.000362 -0.363644

  10.7    0.0000513    0.000001  0.000016  0.000136  0.000896  0.003844  0.013715  0.033936  0.074131  0.086689  0.068126
                      -0.220825 -0.242671 -0.389378  3.287921 -1.157926  3.031626  0.840932 -0.675507 -0.192151 -1.293145
                      -3.439062  0.012210  0.088875 -0.000191 -0.076113  0.000019 -0.006188  0.000191

  11.7    0.0000239   -0.000000 -0.000003 -0.000017 -0.000130 -0.000503 -0.001983 -0.004367 -0.011040 -0.010421 -0.013160
                       0.041947  0.011681  0.156407 -0.056402  0.390170 -0.451891  0.225018 -0.040681 -0.068720 -0.322341
                       0.101903  0.007752  0.695292 -0.000785 -1.204701  0.001175  1.105565 -0.000543

  12.7    0.0000118   -0.000000 -0.000000 -0.000000 -0.000002 -0.000007 -0.000029 -0.000066 -0.000157 -0.000149 -0.000107
                       0.000627  0.000005  0.002651  0.007006  0.004472 -0.002631  0.002576 -0.000235 -0.001013 -0.011330
                      -0.002311  0.000104  0.000191  0.602361 -0.000372 -1.147455  0.000600  1.156120

  13.7    0.0000095   -0.000001 -0.000024 -0.000167 -0.001248 -0.004882 -0.019122 -0.043259 -0.105958 -0.096156 -0.097340
                       0.455680 -0.023482  2.066129  6.962104  2.888392  1.545012  1.488956 -0.489082 -0.337619 -9.770769
                      -4.770313  0.036618 -0.068141 -0.000773  0.126107  0.001634 -0.129824 -0.001855

  14.7    0.0000024    0.000004  0.000015  0.000344  0.001298  0.008936  0.021316  0.082133  0.105482  0.226508 -0.178397
                      -0.293671 -0.582668 -0.746259-22.207297  5.859434 -6.384561  1.806479 -0.119745 -0.497902 19.551347
                       3.216733  0.064029 -0.022970 -0.000109  0.043021  0.000240 -0.042517 -0.000322

  15.7    0.0000008    0.000009 -0.000011  0.000625  0.000922  0.015009  0.018338  0.142531  0.057639  0.449891 -0.800715
                       0.538802 -2.747156  9.978002 14.077214  7.193075 24.052952 -2.043551 -0.239798  0.642493-22.853778
                     -28.073671 -0.078937  0.005567  0.000085 -0.012422 -0.000178  0.015582  0.000227

  16.7    0.0000003    0.000002  0.000054  0.000386  0.002886  0.011881  0.046267  0.113613  0.224700  0.138002 -0.440369
                      -0.502026 -0.727035 12.703314 70.121551-23.928220-29.066352  0.911918  0.793479 -0.765990-69.692261
                      39.955183  0.100295 -0.002529 -0.000033  0.005135  0.000083 -0.006042 -0.000121

  17.7    0.0000001   -0.000016  0.000202 -0.000336  0.006973  0.000374  0.102306  0.001269  0.575616 -0.712806  0.932652
                      -3.739251  8.892457-17.998709-29.025573 -2.686310-24.990564  5.118669 -2.815613  1.479321 40.120915
                      25.328087 -0.258960  0.000193  0.000036 -0.001333 -0.000083  0.002901  0.000113

  18.7    0.0000000   -0.000002  0.000127  0.000416  0.005835  0.017748  0.092667  0.163068  0.367345 -0.256778 -0.556206
                      -1.373079  8.046391-26.969956-95.403833 30.857646 53.131427 -6.351841  2.617254 -1.167360101.557627
                     -64.884829  0.201977 -0.000086 -0.000015  0.000728  0.000035 -0.001427 -0.000051

                         1 4f2-    1 4f2-    1 4f2-    1 4f2-    1 4f2-    1 4f2-    1 4f2-    1 4f2-    1 4f2-    1 4f2- 
                         1 4f2-    1 4f2-    1 4f2-    1 4f2-    1 4f2- 

   1.8    2.0000000    0.000276  0.002763  0.015604  0.054251  0.137475  0.250149  0.318827  0.301938  0.194042  0.074908
                       0.012134  0.001509 -0.000940 -0.000389  0.000308

   2.8    0.0050199   -0.000101 -0.000996 -0.005681 -0.019635 -0.050284 -0.093613 -0.120019 -0.101344 -0.042003  0.176259
                       0.188607  0.232191  0.360721  0.220474  0.037768

   3.8    0.0005027    0.000102  0.001061  0.005688  0.020903  0.049646  0.110232  0.126838  0.173747 -0.184501 -0.597574
                       0.086968 -0.341404  0.328822  0.612305  0.133801

   4.8    0.0000617    0.000099  0.000912  0.004957  0.017877  0.040887  0.121846  0.136038  0.313885 -1.048574  0.634591
                       0.524701 -0.371179  0.430617 -0.828776 -0.261198

   5.8    0.0000096   -0.000133 -0.000164 -0.003939 -0.002816 -0.034585 -0.116236 -0.240614 -0.401520  4.776715  0.783336
                       1.852746 -4.991386 -0.778497 -0.815706 -0.403722

   6.8    0.0000020   -0.000364  0.002480 -0.007049  0.042389 -0.078089  0.033007 -0.758808  0.670713  6.109489  6.982429
                      -1.014804-10.922052 -1.370024 -0.057088  0.587278

   7.8    0.0000005    0.000781 -0.006525  0.013097 -0.119135  0.178542 -0.291786  1.864070 -4.314738  8.022789 -5.553603
                      -2.195860 -4.441252  6.905903 -0.404182  0.587063

   8.8    0.0000001   -0.000031 -0.003628 -0.018610 -0.099384 -0.008479  0.180657  1.324276 -5.464006 25.743624 28.545118
                       2.593312-37.130199-16.077794  0.829635 -0.599832

   9.8    0.0000000    0.002159 -0.009751  0.099889 -0.073538  0.564903 -2.308188  3.294863 -2.498677 -2.417400-19.597820
                     -12.038803 10.274592 20.654098  4.757498 -0.912433

  10.8    0.0000000   -0.004037 -0.004908 -0.181510 -0.431969 -0.790118  0.715818  0.368119 -0.808688  3.963966  7.816519
                       3.554940 -6.779329 -6.929813 -1.309541  0.237052

  11.8    0.0000000    0.003242 -0.002598  0.185722  0.240969  0.572362 -2.967880  5.306587 -8.060040 27.996039 37.733579
                      13.216763-40.789621-29.394023 -4.403364  0.697498

  12.8    0.0000000    0.001203 -0.085680 -0.260742 -1.535533  4.013286 -5.062008  4.857969 -4.970005 12.260914 11.795103
                       3.059848-15.677246 -7.980712 -0.896478  0.119396

  13.8    0.0000000   -0.051308 -0.245906 -1.582396  3.354503 -3.858149  3.374397 -2.689554  2.478809 -5.630791 -4.887598
                      -1.118204  6.946267  3.132147  0.306595 -0.036740

  14.8    0.0000000    0.112747  1.537750 -2.641742  2.996275 -2.698484  2.120073 -1.622104  1.468940 -3.262969 -2.709919
                      -0.580408  3.969773  1.689653  0.153356 -0.017344

  15.8    0.0000000    1.329585 -1.537282  1.527838 -1.385846  1.137020 -0.869694  0.668191 -0.611742  1.359772  1.111426
                       0.230809 -1.647551 -0.684557 -0.059804  0.006525

 Electronic charge:   75.000000


 **********************************************************************************************************************************
 DATASETS  * FILE   NREC   LENGTH (MB)   RECORD NAMES
              1      19      195.85       500      610      700      900      950      970     1001      129      960     1100   
                                          VAR    BASINP    GEOM    SYMINP    ZMAT    AOBASIS   BASIS     P2S    ABASIS      S 
                                         1400     1410     1200     1210     1080     1600     1650     1700     1380   
                                           T        V       H0       H01     AOSYM     SMH    MOLCAS    OPER     JKOP   

              2       8       12.18       700     1000      520     4202     5202     1001     6202     2101   
                                         GEOM     BASIS   MCVARS     RHF     MCSCF    BASIS    MCSCF     RHF  

 PROGRAMS   *        TOTAL        CI       RHF     MULTI       INT       POP     MULTI       RHF       INT
 CPU TIMES  *       164.64     12.10      0.12     31.39    109.03      0.00      1.49      0.08     10.24
 REAL TIME  *       211.21 SEC
 DISK USED  *         5.10 GB      
 SF USED    *       681.05 MB      
 GA USED    *         0.00 MB       (max)       0.00 MB       (current)
 **********************************************************************************************************************************

 CI/USERDEF energy= -15784.871005845764

        CI              RHF-SCF         MULTI           MULTI           RHF-SCF 
 -15784.87100585 -15784.53352357 -15784.53342132 -14077.86330831 -14077.52810042
 **********************************************************************************************************************************
 Molpro calculation terminated
 Variable memory released
