<?xml version="1.0"?>
<molpro xmlns="http://www.molpro.net/schema/molpro-output"
  xmlns:xsd="http://www.w3.org/1999/XMLSchema"
  xmlns:cml="http://www.xml-cml.org/schema"
  xmlns:stm="http://www.xml-cml.org/schema"
  xmlns:xhtml="http://www.w3.org/1999/xhtml">
 <!--

 Nodes     nprocs
 nid00761     3
 Number of processes for MPI-2 version of Molpro:   nprocs(total)=    4   nprocs(compute)=    3   nprocs(helper)=    1

 Using customized tuning parameters: mindgm=7; mindgv=16; mindgc=1; mindgr=1; noblas=0; minvec=7
 default implementation of scratch files=sf

 --><job>
  <!--

 Variables initialized (889), CPU time= 0.03 sec
 Commands  initialized (702), CPU time= 0.00 sec, 572 directives.
 Default parameters read. Elapsed time= 0.12 sec

 Checking input...
 Passed
1


                                         ***  PROGRAM SYSTEM MOLPRO  ***
                                       Copyright, TTI GmbH Stuttgart, 2015
                                    Version 2015.1 linked Dec 29 2018 15:55:43


 **********************************************************************************************************************************
 LABEL *   Calculation for Nb atom, singlet and triplet
  64 bit mpp version                                                                     DATE: 10-Oct-22          TIME: 06:54:53
 **********************************************************************************************************************************

 SHA1:             19cd028119e0e09f93f0674bd8af7968d9b3eff6
 **********************************************************************************************************************************
  -->
  <!--

 THRESHOLDS:

 ZERO    =  1.00D-12  ONEINT  =  1.00D-12  TWOINT  =  1.00D-15  PREFAC  =  1.00D-14  LOCALI  =  1.00D-09  EORDER  =  1.00D-04
 ENERGY  =  0.00D+00  ETEST   =  0.00D+00  EDENS   =  0.00D+00  THRDEDEF=  1.00D-06  GRADIENT=  1.00D-02  STEP    =  1.00D-03
 ORBITAL =  1.00D-05  CIVEC   =  1.00D-05  COEFF   =  1.00D-04  PRINTCI =  5.00D-02  PUNCHCI =  9.90D+01  OPTGRAD =  3.00D-04
 OPTENERG=  1.00D-06  OPTSTEP =  3.00D-04  THRGRAD =  1.00D-10  COMPRESS=  1.00D-11  VARMIN  =  1.00D-07  VARMAX  =  1.00D-03
 THRDOUB =  0.00D+00  THRDIV  =  1.00D-05  THRRED  =  1.00D-07  THRPSP  =  1.00D+00  THRDC   =  1.00D-10  THRCS   =  1.00D-10
 THRNRM  =  1.00D-08  THREQ   =  0.00D+00  THRDE   =  1.00D+00  THRREF  =  1.00D-05  SPARFAC =  1.00D+00  THRDLP  =  1.00D-07
 THRDIA  =  1.00D-10  THRDLS  =  1.00D-07  THRGPS  =  0.00D+00  THRKEX  =  0.00D+00  THRDIS  =  2.00D-01  THRVAR  =  1.00D-10
 THRLOC  =  1.00D-06  THRGAP  =  1.00D-06  THRLOCT = -1.00D+00  THRGAPT = -1.00D+00  THRORB  =  1.00D-06  THRMLTP =  0.00D+00
 THRCPQCI=  1.00D-10  KEXTA   =  0.00D+00  THRCOARS=  0.00D+00  SYMTOL  =  1.00D-06  GRADTOL =  1.00D-06  THROVL  =  1.00D-08
 THRORTH =  1.00D-08  GRID    =  1.00D-06  GRIDMAX =  1.00D-03  DTMAX   =  0.00D+00  THROCCDE=  1.00D-01  THROCCDE=  1.00D-01



 THRESHOLDS:

 ZERO    =  1.00D-12  ONEINT  =  1.00D-15  TWOINT  =  1.00D-15  PREFAC  =  1.00D-14  LOCALI  =  1.00D-09  EORDER  =  1.00D-04
 ENERGY  =  0.00D+00  ETEST   =  0.00D+00  EDENS   =  0.00D+00  THRDEDEF=  1.00D-06  GRADIENT=  1.00D-02  STEP    =  1.00D-03
 ORBITAL =  1.00D-05  CIVEC   =  1.00D-05  COEFF   =  1.00D-04  PRINTCI =  5.00D-02  PUNCHCI =  9.90D+01  OPTGRAD =  3.00D-04
 OPTENERG=  1.00D-06  OPTSTEP =  3.00D-04  THRGRAD =  1.00D-10  COMPRESS=  1.00D-11  VARMIN  =  1.00D-07  VARMAX  =  1.00D-03
 THRDOUB =  0.00D+00  THRDIV  =  1.00D-05  THRRED  =  1.00D-07  THRPSP  =  1.00D+00  THRDC   =  1.00D-10  THRCS   =  1.00D-10
 THRNRM  =  1.00D-08  THREQ   =  0.00D+00  THRDE   =  1.00D+00  THRREF  =  1.00D-05  SPARFAC =  1.00D+00  THRDLP  =  1.00D-07
 THRDIA  =  1.00D-10  THRDLS  =  1.00D-07  THRGPS  =  0.00D+00  THRKEX  =  0.00D+00  THRDIS  =  2.00D-01  THRVAR  =  1.00D-10
 THRLOC  =  1.00D-06  THRGAP  =  1.00D-06  THRLOCT = -1.00D+00  THRGAPT = -1.00D+00  THRORB  =  1.00D-06  THRMLTP =  0.00D+00
 THRCPQCI=  1.00D-10  KEXTA   =  0.00D+00  THRCOARS=  0.00D+00  SYMTOL  =  1.00D-06  GRADTOL =  1.00D-06  THROVL  =  1.00D-08
 THRORTH =  1.00D-08  GRID    =  1.00D-06  GRIDMAX =  1.00D-03  DTMAX   =  0.00D+00  THROCCDE=  1.00D-01  THROCCDE=  1.00D-01


 SETTING DKROLL         =         1.00000000
 SETTING DKHO           =        10.00000000
 SETTING DKHP           =         4.00000000

Geometry recognized as XYZ


 Variable memory set to 3000000000 words,  buffer space   230000 words

 SETTING BASIS          =    USERDEF
  --><jobstep command="RHF-SCF" commandset="SCFPRO">
   <!--


 Recomputing integrals since basis changed


 Using spherical harmonics



 PROGRAM * SEWARD (Integral evaluation for generally contracted gaussian basis sets)     Author: Roland Lindh, 1990

 Geometry written to block  1 of record 700

 Orientation using atomic masses
 Molecule type: Atom
 Symmetry elements: X,Y,Z
 Rotational constants:       0.0000000      0.0000000      0.0000000 GHz  (calculated with average atomic masses)

 Point group  D2h


   --><cml:molecule>
    <cml:symmetry pointGroup="D2h"/>
    <cml:atomArray>
     <cml:atom id="a1" elementType="Ta" x3="0.0" y3="0.0" z3="0.0"/>
    </cml:atomArray>
    <cml:bondArray>
    </cml:bondArray>
   </cml:molecule><!--

 ATOMIC COORDINATES

 NR  ATOM    CHARGE       X              Y              Z

   1  TA     73.00    0.000000000    0.000000000    0.000000000

 NUCLEAR CHARGE:                   73
 NUMBER OF PRIMITIVE AOS:         455
 NUMBER OF SYMMETRY AOS:          370
 NUMBER OF CONTRACTIONS:          370   (  88Ag  +  61B3u +  61B2u +  28B1g +  61B1u +  28B2g +  28B3g +  15Au  )
 NUMBER OF CORE ORBITALS:          34   (   9Ag  +   6B3u +   6B2u +   2B1g +   6B1u +   2B2g +   2B3g +   1Au  )
 NUMBER OF VALENCE ORBITALS:        6   (   3Ag  +   0B3u +   0B2u +   1B1g +   0B1u +   1B2g +   1B3g +   0Au  )


 NUCLEAR REPULSION ENERGY    0.00000000

 One-electron integrals computed with SEWARD

 10nd-order Douglas-Kroll-Hess method activated. McWeeny DKH parametrization is used.

 Computing Douglas-Kroll / X2C integrals

 AO integral compression algorithm  1   Integral accuracy      1.0D-15

     2357.461 MB (compressed) written to integral file ( 47.5%)

     Node minimum: 618.922 MB, node maximum: 1045.955 MB


 NUMBER OF SORTED TWO-ELECTRON INTEGRALS:  101423660.     BUFFER LENGTH:  32768
 NUMBER OF SEGMENTS:   4  SEGMENT LENGTH:   31998458      RECORD LENGTH: 524288

 Memory used in sort:      32.56 MW

 SORT1 READ   620842336. AND WROTE    63404576. INTEGRALS IN    184 RECORDS. CPU TIME:    11.63 SEC, REAL TIME:    13.58 SEC
 SORT2 READ   190733767. AND WROTE   304061875. INTEGRALS IN   7926 RECORDS. CPU TIME:     1.61 SEC, REAL TIME:     2.72 SEC

 Node minimum:   101278730.  Node maximum:   101423660. integrals

 OPERATOR DM      FOR CENTER  0  COORDINATES:    0.000000    0.000000    0.000000

 EXTRA SYMMETRY OF AOS IN SYMMETRY 1:   1 1 1 1 1 1 1 1 1 1   1 1 1 1 1 1 1 1 1 1   1 1 1 1 1 1 1 1 1 1   1 1 1 1 1 1 1 1 1 1
                                        1 1 1 1 1 1 1 1 1 1   1 1 1 1 1 1 1 1 1 1   1 1 1 1 1 1 1 1 1 1   1 1 1 1 1 1 1 1 1 2
                                        3 4 2 3 4 2 3 4
 EXTRA SYMMETRY OF AOS IN SYMMETRY 2:   1 1 1 1 1 1 1 1 1 1   1 1 1 1 1 1 1 1 1 1   1 1 1 1 1 1 1 1 1 1   1 2 3 2 3 2 3 2 3 2
                                        3 2 3 2 3 2 3 2 3 2   3 2 3 2 3 2 3 2 3 2   3
 EXTRA SYMMETRY OF AOS IN SYMMETRY 3:   1 1 1 1 1 1 1 1 1 1   1 1 1 1 1 1 1 1 1 1   1 1 1 1 1 1 1 1 1 1   1 2 3 2 3 2 3 2 3 2
                                        3 2 3 2 3 2 3 2 3 2   3 2 3 2 3 2 3 2 3 2   3
 EXTRA SYMMETRY OF AOS IN SYMMETRY 4:   1 1 1 1 1 1 1 1 1 1   1 1 1 1 1 1 1 1 1 1   1 1 2 3 2 3 2 3
 EXTRA SYMMETRY OF AOS IN SYMMETRY 5:   1 1 1 1 1 1 1 1 1 1   1 1 1 1 1 1 1 1 1 1   1 1 1 1 1 1 1 1 1 1   1 2 3 2 3 2 3 2 3 2
                                        3 2 3 2 3 2 3 2 3 2   3 2 3 2 3 2 3 2 3 2   3
 EXTRA SYMMETRY OF AOS IN SYMMETRY 6:   1 1 1 1 1 1 1 1 1 1   1 1 1 1 1 1 1 1 1 1   1 1 2 3 2 3 2 3
 EXTRA SYMMETRY OF AOS IN SYMMETRY 7:   1 1 1 1 1 1 1 1 1 1   1 1 1 1 1 1 1 1 1 1   1 1 2 3 2 3 2 3

 Eigenvalues of metric

         1 0.694E-06 0.139E-04 0.139E-04 0.237E-04 0.481E-04 0.143E-03 0.143E-03 0.146E-03
         2 0.469E-06 0.114E-04 0.100E-03 0.100E-03 0.132E-03 0.442E-03 0.112E-02 0.146E-02
         3 0.469E-06 0.114E-04 0.100E-03 0.100E-03 0.132E-03 0.442E-03 0.112E-02 0.146E-02
         4 0.139E-04 0.143E-03 0.607E-03 0.227E-02 0.654E-02 0.151E-01 0.281E-01 0.503E-01
         5 0.469E-06 0.114E-04 0.100E-03 0.100E-03 0.132E-03 0.442E-03 0.112E-02 0.146E-02
         6 0.139E-04 0.143E-03 0.607E-03 0.227E-02 0.654E-02 0.151E-01 0.281E-01 0.503E-01
         7 0.139E-04 0.143E-03 0.607E-03 0.227E-02 0.654E-02 0.151E-01 0.281E-01 0.503E-01
         8 0.100E-03 0.146E-02 0.736E-02 0.189E-01 0.417E-01 0.101E+00 0.199E+00 0.345E+00


 **********************************************************************************************************************************
 DATASETS  * FILE   NREC   LENGTH (MB)   RECORD NAMES
              1      22       21.46       500      610      700      900      950      970     1000      129      960     1700
                                          VAR    BASINP    GEOM    SYMINP    ZMAT    AOBASIS   BASIS     P2S    ABASIS    OPER
                                         1101     1401     1411     1412     1650     1100     1400     1410     1200     1210
                                          SR      EKINR    POTR     PVPR    MOLCAS      S      EKIN      POT      H0       H01
                                         1080     1600
                                         AOSYM     SMH

 PROGRAMS   *        TOTAL       INT
 CPU TIMES  *       180.33    180.11
 REAL TIME  *       186.61 SEC
 DISK USED  *         4.63 GB
 GA USED    *         0.00 MB       (max)       0.00 MB       (current)
 **********************************************************************************************************************************


 PROGRAM * RHF-SCF (OPEN SHELL)       Authors: W. Meyer, H.-J. Werner


 NUMBER OF ELECTRONS:      34+   32-    SPACE SYMMETRY=7    SPIN SYMMETRY: Triplet
 CONVERGENCE THRESHOLDS:    1.00E-05 (Density)    1.46E-07 (Energy)
 MAX. NUMBER OF ITERATIONS:       60
 INTERPOLATION TYPE:            DIIS
 INTERPOLATION STEPS:              2 (START)      1 (STEP)
 LEVEL SHIFTS:                 -0.60 (CLOSED) -0.30 (OPEN)

 Number of closed-shell orbitals:   32 (   9   6   5   2   5   2   2   1 )
 Number of open-shell orbitals:      2 (   0   0   1   0   1   0   0   0 )


 Orbital guess generated from atomic densities. Full valence occupancy:   12   6   6   3   6   3   3   1


 Molecular orbital dump at record        4202.2

 ITERATION    DDIFF          GRAD             ENERGY        2-EL.EN.            DIPOLE MOMENTS         DIIS   ORB.
    1      0.000D+00      0.000D+00    -15587.29736739  10828.503073    0.00000    0.00000    0.00000    0    start
    2      0.000D+00      0.786D-01    -15588.85660519  11208.412806    0.00000    0.00000    0.00000    1    diag,B
    3      0.266D-01      0.702D-01    -15589.56078792  11079.112857    0.00000    0.00000    0.00000    2    diag,B
    4      0.826D-02      0.652D-02    -15589.57805711  11067.358321    0.00000    0.00000    0.00000    3    diag,B
    5      0.666D-02      0.119D-02    -15589.58313387  11068.793203    0.00000    0.00000    0.00000    4    diag,B
    6      0.247D-02      0.763D-03    -15589.58786782  11069.068309    0.00000    0.00000    0.00000    5    diag,B
    7      0.534D-03      0.760D-03    -15589.58607990  11069.058691    0.00000    0.00000    0.00000    6    fixocc
     Orbital  4.5 strongly deviates from fixed occupation: 1.88135  (now: 2.00)
     Orbital  6.5 strongly deviates from fixed occupation: 1.11858  (now: 1.00)
     Note:  Use {hf,nitord=N} to fix occupations at iteration N
            Use {gthresh,occdev=1.0} to suppress deviation warnings
    8      0.526D-04      0.756D-03    -15589.54916736  11069.085389    0.00000    0.00000    0.00000    7    diag,B
    9      0.121D-02      0.109D-02    -15589.54914894  11069.086779    0.00000    0.00000    0.00000    8    diag,B
     Orbital  5.5 strongly deviates from fixed occupation: 1.83891  (now: 2.00)
     Orbital  6.5 strongly deviates from fixed occupation: 1.16127  (now: 1.00)
   10      0.208D-05      0.108D-02    -15589.59215105  11069.226059    0.00000    0.00000    0.00000    9    orth
   11      0.139D-02      0.150D-02    -15589.58003503  11069.262827    0.00000    0.00000    0.00000    9    diag,B
   12      0.337D-03      0.133D-02    -15589.56962765  11069.184398    0.00000    0.00000    0.00000    9    diag,B
   13      0.311D-03      0.113D-02    -15589.55069981  11069.222407    0.00000    0.00000    0.00000    9    diag,B
   14      0.714D-03      0.887D-03    -15589.55377921  11069.039375    0.00000    0.00000    0.00000    9    diag,B
   15      0.156D-03      0.868D-03    -15589.55419850  11069.048436    0.00000    0.00000    0.00000    9    diag,B
   16      0.184D-04      0.876D-03    -15589.54080486  11069.274237    0.00000    0.00000    0.00000    9    diag,B
   17      0.647D-03      0.933D-03    -15589.54729500  11069.019641    0.00000    0.00000    0.00000    9    diag,B
   18      0.333D-03      0.113D-02    -15589.54542485  11069.281947    0.00000    0.00000    0.00000    9    diag,B
   19      0.291D-03      0.147D-02    -15589.54701472  11069.044985    0.00000    0.00000    0.00000    9    diag,B
   20      0.564D-03      0.434D-03    -15589.53970599  11068.955704    0.00000    0.00000    0.00000    9    orth
   21      0.438D-03      0.480D-03    -15589.53474239  11069.088451    0.00000    0.00000    0.00000    9    diag,B
   22      0.348D-03      0.301D-03    -15589.53164130  11068.979489    0.00000    0.00000    0.00000    9    diag,B
   23      0.266D-03      0.357D-03    -15589.53068074  11069.331025    0.00000    0.00000    0.00000    9    diag,B
   24      0.121D-03      0.266D-03    -15589.52918036  11069.135696    0.00000    0.00000    0.00000    9    diag,B
   25      0.239D-03      0.241D-03    -15589.52838022  11069.109513    0.00000    0.00000    0.00000    9    diag,B
   26      0.233D-03      0.537D-03    -15589.52844212  11069.092961    0.00000    0.00000    0.00000    9    diag,B
   27      0.225D-04      0.562D-03    -15589.52851844  11068.892844    0.00000    0.00000    0.00000    9    diag,B
   28      0.105D-03      0.117D-03    -15589.52808739  11068.861639    0.00000    0.00000    0.00000    9    diag,B
   29      0.267D-03      0.235D-03    -15589.52810270  11068.887460    0.00000    0.00000    0.00000    9    diag,B
   30      0.706D-04      0.585D-04    -15589.52813099  11068.815780    0.00000    0.00000    0.00000    9    orth
   31      0.169D-04      0.786D-04    -15589.52813511  11068.850271    0.00000    0.00000    0.00000    9    diag,B
   32      0.102D-04      0.593D-04    -15589.52800810  11068.907873    0.00000    0.00000    0.00000    9    diag,B
   33      0.642D-04      0.503D-04    -15589.52799066  11068.805936    0.00000    0.00000    0.00000    9    diag,B
   34      0.473D-04      0.370D-04    -15589.52799139  11068.828818    0.00000    0.00000    0.00000    9    diag,B
   35      0.174D-04      0.865D-05    -15589.52799148  11068.834874    0.00000    0.00000    0.00000    9    diag,B
   36      0.427D-05      0.226D-05    -15589.52799350  11068.834506    0.00000    0.00000    0.00000    0    orth

 Final alpha occupancy:   9   6   6   2   6   2   2   1
 Final beta  occupancy:   9   6   5   2   5   2   2   1

 !RHF STATE 1.7 Energy               -15589.5279935005
   --><property name="Energy" method="RHF" principal="true" stateSymmetry="7" stateNumber="1"
     value="-15589.5279935005"/><!--
 Nuclear energy                         0.00000000
 One-electron energy               -21123.94524665
 Two-electron energy                 5534.41725315
 Virial quotient                       -0.71363286
 !RHF STATE 1.7 Dipole moment           0.00000000     0.00000000     0.00000000
 Dipole moment /Debye                   0.00000000     0.00000000     0.00000000
   --><property name="Dipole moment" method="RHF" principal="true" stateSymmetry="7"
     stateNumber="1" value="0.0 0.0 0.0"/><!--

 ELECTRON ORBITALS
 =================


   Orb  Occ    Energy  Couls-En    Coefficients

                                   1 1s      1 1s      1 1s      1 1s      1 1s      1 1s      1 1s      1 1s      1 1s      1 1s
                                   1 1s      1 1s      1 1s      1 1s      1 1s      1 1s      1 1s      1 1s      1 1s      1 1s
                                   1 1s      1 1s      1 1s      1 1s      1 1s      1 1s      1 1s      1 1s      1 1s      1 1s
                                   1 1s      1 1s      1 1s      1 1s      1 1s      1 3d0     1 3d2+    1 3d0     1 3d2+    1 3d0
                                   1 3d2+    1 3d0     1 3d2+    1 3d0     1 3d2+    1 3d0     1 3d2+    1 3d0     1 3d2+    1 3d0
                                   1 3d2+    1 3d0     1 3d2+    1 3d0     1 3d2+    1 3d0     1 3d2+    1 3d0     1 3d2+    1 3d0
                                   1 3d2+    1 3d0     1 3d2+    1 3d0     1 3d2+    1 3d0     1 3d2+    1 3d0     1 3d2+    1 3d0
                                   1 3d2+    1 3d0     1 3d2+    1 3d0     1 3d2+    1 3d0     1 3d2+    1 3d0     1 3d2+    1 5g0
                                   1 5g4+    1 5g2+    1 5g0     1 5g4+    1 5g2+    1 5g0     1 5g4+    1 5g2+

   1.1   2 -2495.2356-5381.2563  0.000015  0.000042  0.000113  0.000255  0.000526  0.001001  0.001823  0.003218  0.005605  0.009712
                                 0.016883  0.029528  0.051948  0.091003  0.154441  0.238050  0.293118  0.229228  0.079048  0.006388
                                 0.000439 -0.000227  0.000083 -0.000084  0.000066 -0.000066 -0.000195  0.000038  0.000015 -0.000001
                                 0.000001 -0.000000  0.000213 -0.000030  0.000000  0.000000 -0.000000  0.000000 -0.000000  0.000000
                                -0.000000  0.000000 -0.000000  0.000000 -0.000000  0.000000 -0.000000  0.000000 -0.000000  0.000000
                                -0.000000 -0.000000  0.000000 -0.000000  0.000000  0.000000 -0.000000  0.000000 -0.000000 -0.000000
                                 0.000000 -0.000000  0.000000  0.000000 -0.000000  0.000000 -0.000000 -0.000000  0.000000  0.000000
                                -0.000000 -0.000000  0.000000  0.000000 -0.000000 -0.000000  0.000000  0.000000 -0.000000 -0.000000
                                -0.000000  0.000000  0.000000  0.000000 -0.000000 -0.000000 -0.000000  0.000000

   2.1   2  -437.3764-1170.1900 -0.000006 -0.000016 -0.000043 -0.000096 -0.000198 -0.000378 -0.000690 -0.001220 -0.002134 -0.003720
                                -0.006525 -0.011576 -0.020815 -0.037776 -0.067911 -0.115452 -0.166027 -0.147993  0.063121  0.425651
                                 0.481448  0.172957  0.013943  0.000318  0.000001 -0.000430 -0.001281  0.000284  0.000116 -0.000008
                                 0.000005 -0.000002  0.001362 -0.000230  0.000001  0.000000 -0.000000  0.000000 -0.000000  0.000000
                                -0.000000  0.000000 -0.000000  0.000001 -0.000001  0.000003 -0.000006  0.000012 -0.000020  0.000027
                                -0.000046  0.000018 -0.000032  0.000000 -0.000000 -0.000001  0.000001 -0.000001  0.000002  0.000000
                                -0.000001  0.000001 -0.000002 -0.000000  0.000000 -0.000000  0.000000  0.000000 -0.000000 -0.000000
                                 0.000000  0.000000 -0.000000 -0.000001  0.000002  0.000000 -0.000000 -0.000000  0.000000 -0.000000
                                -0.000000  0.000000  0.000000  0.000000 -0.000000 -0.000000 -0.000000  0.000000

   3.1   2  -105.8373 -416.0748  0.000003  0.000007  0.000020  0.000046  0.000094  0.000179  0.000327  0.000579  0.001012  0.001767
                                 0.003104  0.005519  0.009958  0.018180  0.033003  0.057080  0.084510  0.077704 -0.050250 -0.356779
                                -0.538274 -0.062397  0.731056  0.541310  0.073426  0.012559  0.029950 -0.006299 -0.002545  0.000171
                                -0.000101  0.000042 -0.031991  0.005079 -0.000011  0.000000 -0.000000  0.000000 -0.000000  0.000001
                                -0.000002  0.000005 -0.000008  0.000018 -0.000032  0.000055 -0.000096  0.000133 -0.000231  0.000242
                                -0.000418  0.000431 -0.000745  0.000715 -0.001237  0.000434 -0.000751  0.000023 -0.000040  0.000001
                                -0.000002  0.000021 -0.000036 -0.000005  0.000009 -0.000005  0.000009  0.000000 -0.000001 -0.000000
                                 0.000000  0.000000 -0.000000 -0.000029  0.000050  0.000007 -0.000013 -0.000000  0.000000 -0.000002
                                -0.000003  0.000002  0.000001  0.000002 -0.000001 -0.000000 -0.000001  0.000000

   4.1   2   -70.5880 -355.4678  0.000000  0.000000  0.000000  0.000000  0.000000  0.000000  0.000000  0.000000  0.000000  0.000000
                                 0.000000  0.000000  0.000000  0.000000  0.000000  0.000000  0.000000  0.000000 -0.000000 -0.000001
                                -0.000001 -0.000000  0.000002  0.000002 -0.000001 -0.000000  0.000000  0.000000 -0.000000  0.000000
                                -0.000000  0.000000 -0.000000  0.000000 -0.000000 -0.000021 -0.000012 -0.000129 -0.000074 -0.000727
                                -0.000419 -0.003376 -0.001948 -0.012981 -0.007493 -0.039843 -0.022997 -0.099323 -0.057328 -0.191945
                                -0.110789 -0.277662 -0.160264 -0.265651 -0.153331 -0.133921 -0.077298 -0.029517 -0.017037 -0.001555
                                -0.000898  0.000856  0.000494 -0.000204 -0.000118 -0.000200 -0.000115  0.000015  0.000009 -0.000004
                                -0.000003  0.000002  0.000001 -0.001309 -0.000755  0.000270  0.000156 -0.000000 -0.000000  0.000021
                                -0.000024 -0.000019 -0.000009  0.000011  0.000008  0.000003 -0.000004 -0.000003

   5.1   2   -70.4926 -355.3751  0.000000  0.000000  0.000000  0.000000  0.000000  0.000001  0.000001  0.000002  0.000004  0.000006
                                 0.000011  0.000020  0.000037  0.000067  0.000121  0.000211  0.000312  0.000289 -0.000196 -0.001391
                                -0.002182  0.000035  0.003651  0.001426 -0.000494  0.000199  0.000430 -0.000072 -0.000032  0.000002
                                -0.000001  0.000001 -0.000430  0.000066 -0.000000 -0.000012  0.000021 -0.000074  0.000129 -0.000420
                                 0.000727 -0.001949  0.003377 -0.007496  0.012987 -0.023007  0.039861 -0.057356  0.099370 -0.110843
                                 0.192039 -0.160294  0.277714 -0.153167  0.265366 -0.077169  0.133699 -0.017216  0.029828 -0.001076
                                 0.001865  0.000424 -0.000734 -0.000133  0.000230 -0.000117  0.000204  0.000009 -0.000016 -0.000003
                                 0.000004  0.000001 -0.000002 -0.000748  0.001296  0.000158 -0.000273 -0.000000  0.000001 -0.000006
                                -0.000012  0.000009  0.000004  0.000008 -0.000006 -0.000001 -0.000003  0.000002

   6.1   2   -26.1344 -181.5097 -0.000001 -0.000004 -0.000010 -0.000022 -0.000046 -0.000088 -0.000161 -0.000285 -0.000498 -0.000870
                                -0.001529 -0.002719 -0.004913 -0.008977 -0.016345 -0.028361 -0.042351 -0.039111  0.027400  0.202826
                                 0.326640  0.036922 -0.768684 -0.741370  0.508229  0.920529  0.269688 -0.035655 -0.016900  0.001174
                                -0.000697  0.000293 -0.077208  0.034415 -0.000079 -0.000000  0.000000 -0.000001  0.000001 -0.000003
                                 0.000005 -0.000014  0.000024 -0.000054  0.000093 -0.000167  0.000288 -0.000419  0.000725 -0.000803
                                 0.001388 -0.001185  0.002049 -0.001237  0.002141  0.000736 -0.001274  0.003769 -0.006519  0.002793
                                -0.004828  0.000734 -0.001268 -0.000075  0.000129 -0.000089  0.000154  0.000007 -0.000012 -0.000002
                                 0.000003  0.000001 -0.000001 -0.000484  0.000837  0.000120 -0.000207 -0.000000  0.000000  0.000001
                                 0.000002 -0.000002 -0.000003 -0.000007  0.000005  0.000001  0.000003 -0.000002

   7.1   2   -13.5968 -147.9817  0.000000  0.000000  0.000000  0.000000  0.000000  0.000000  0.000000  0.000000  0.000000  0.000000
                                 0.000000  0.000000  0.000000  0.000000  0.000000  0.000000  0.000000  0.000000 -0.000000 -0.000001
                                -0.000002 -0.000000  0.000005  0.000005 -0.000005 -0.000003 -0.000008 -0.000004 -0.000000 -0.000000
                                 0.000000 -0.000000  0.000009 -0.000002  0.000000 -0.000011 -0.000006 -0.000064 -0.000037 -0.000365
                                -0.000211 -0.001697 -0.000980 -0.006587 -0.003803 -0.020368 -0.011761 -0.051823 -0.029924 -0.100272
                                -0.057900 -0.141165 -0.081512 -0.097447 -0.056268  0.105717  0.061044  0.329666  0.190356  0.360550
                                 0.208189  0.175582  0.101387  0.029407  0.016983  0.002824  0.001631 -0.000073 -0.000042  0.000010
                                 0.000006 -0.000002 -0.000001  0.001486  0.000858 -0.003425 -0.001978  0.000000  0.000000  0.000465
                                -0.000550 -0.000414 -0.000274  0.000324  0.000244  0.000095 -0.000112 -0.000084

   8.1   2   -13.5120 -147.7679 -0.000000 -0.000000 -0.000000 -0.000000 -0.000001 -0.000001 -0.000002 -0.000004 -0.000007 -0.000011
                                -0.000020 -0.000036 -0.000064 -0.000117 -0.000214 -0.000371 -0.000555 -0.000512  0.000362  0.002715
                                 0.004405  0.000332 -0.011363 -0.008428  0.008533  0.008907  0.002418  0.000501  0.000080 -0.000001
                                 0.000001 -0.000000  0.000968 -0.000055  0.000000  0.000006 -0.000011  0.000037 -0.000064  0.000211
                                -0.000365  0.000980 -0.001697  0.003803 -0.006587  0.011762 -0.020370  0.029926 -0.051827  0.057910
                                -0.100290  0.081485 -0.141119  0.056050 -0.097068 -0.061144  0.105891 -0.189247  0.327743 -0.207353
                                 0.359097 -0.102570  0.177636 -0.017993  0.031162 -0.001924  0.003333  0.000063 -0.000108 -0.000012
                                 0.000020  0.000003 -0.000006 -0.001043  0.001805  0.002271 -0.003933 -0.000001  0.000002 -0.000779
                                -0.001535  0.001161  0.000389  0.000767 -0.000580 -0.000135 -0.000267  0.000202

   9.1   2    -6.8966  -81.9703  0.000001  0.000002  0.000004  0.000010  0.000020  0.000038  0.000069  0.000123  0.000215  0.000375
                                 0.000658  0.001171  0.002116  0.003869  0.007048  0.012240  0.018311  0.016936 -0.012096 -0.090326
                                -0.147951 -0.017489  0.400465  0.403000 -0.369709 -0.899366  0.182483  0.863804  0.223559  0.005924
                                -0.002492  0.000913 -0.314575  0.311652 -0.000234  0.000000 -0.000000  0.000000 -0.000001  0.000003
                                -0.000005  0.000013 -0.000022  0.000049 -0.000085  0.000151 -0.000261  0.000388 -0.000672  0.000736
                                -0.001273  0.001081 -0.001870  0.000834 -0.001444 -0.001122  0.001942 -0.004254  0.007360 -0.002406
                                 0.004159  0.005533 -0.009561  0.005883 -0.010166  0.001020 -0.001763 -0.000047  0.000082  0.000018
                                -0.000031 -0.000007  0.000012 -0.000811  0.001398  0.000155 -0.000267  0.000002 -0.000004  0.000230
                                 0.000447 -0.000336 -0.000065 -0.000127  0.000096  0.000024  0.000048 -0.000036

  10.1   0    -2.9640  -56.8839 -0.000000 -0.000000 -0.000000 -0.000000 -0.000000 -0.000000 -0.000000 -0.000000 -0.000000 -0.000000
                                -0.000000 -0.000000 -0.000000 -0.000000 -0.000000 -0.000000 -0.000000 -0.000000  0.000000  0.000002
                                 0.000003  0.000000 -0.000010 -0.000008  0.000009  0.000020  0.000066 -0.000029 -0.000085 -0.000014
                                 0.000005 -0.000002 -0.000060  0.000079  0.000000  0.000004  0.000002  0.000022  0.000013  0.000125
                                 0.000072  0.000586  0.000338  0.002271  0.001309  0.007054  0.004066  0.017944  0.010342  0.034875
                                 0.020100  0.048593  0.028006  0.031017  0.017876 -0.051831 -0.029873 -0.137933 -0.079497 -0.155142
                                -0.089414 -0.008812 -0.005076  0.345505  0.199128  0.510738  0.294356  0.148105  0.085358 -0.005419
                                -0.003123  0.002620  0.001510  0.028936  0.016677 -0.038031 -0.021919 -0.000832 -0.000480  0.002882
                                -0.003390 -0.002566  0.000781 -0.000916 -0.000693  0.000194 -0.000228 -0.000173

  11.1   0    -2.9031  -56.0680 -0.000000 -0.000000 -0.000000 -0.000000 -0.000000 -0.000000 -0.000000 -0.000001 -0.000001 -0.000002
                                -0.000004 -0.000008 -0.000014 -0.000025 -0.000047 -0.000079 -0.000125 -0.000103  0.000060  0.000649
                                 0.000882  0.000264 -0.003244 -0.000415  0.000538  0.004248  0.070827 -0.021426 -0.087550 -0.016087
                                 0.005159 -0.001897 -0.058022  0.087071  0.000488  0.000002 -0.000004  0.000012 -0.000022  0.000071
                                -0.000123  0.000330 -0.000573  0.001279 -0.002219  0.003975 -0.006897  0.010104 -0.017532  0.019656
                                -0.034105  0.027340 -0.047438  0.017432 -0.030247 -0.029216  0.050693 -0.076686  0.133062 -0.087619
                                 0.152028 -0.012412  0.021531  0.192347 -0.333742  0.304617 -0.528538  0.092528 -0.160544 -0.002804
                                 0.004866  0.001506 -0.002613  0.019574 -0.033963 -0.029921  0.051917 -0.000481  0.000835  0.002418
                                 0.004768 -0.003608  0.000816  0.001607 -0.001218  0.000171  0.000337 -0.000255

                                   1 2px     1 2px     1 2px     1 2px     1 2px     1 2px     1 2px     1 2px     1 2px     1 2px
                                   1 2px     1 2px     1 2px     1 2px     1 2px     1 2px     1 2px     1 2px     1 2px     1 2px
                                   1 2px     1 2px     1 2px     1 2px     1 2px     1 2px     1 2px     1 2px     1 2px     1 2px
                                   1 2px     1 4f1+    1 4f3+    1 4f1+    1 4f3+    1 4f1+    1 4f3+    1 4f1+    1 4f3+    1 4f1+
                                   1 4f3+    1 4f1+    1 4f3+    1 4f1+    1 4f3+    1 4f1+    1 4f3+    1 4f1+    1 4f3+    1 4f1+
                                   1 4f3+    1 4f1+    1 4f3+    1 4f1+    1 4f3+    1 4f1+    1 4f3+    1 4f1+    1 4f3+    1 4f1+
                                   1 4f3+

   1.2   2  -384.6461-1076.4606  0.000003  0.000007  0.000021  0.000056  0.000141  0.000341  0.000821  0.001991  0.004898  0.012167
                                 0.029916  0.070290  0.147895  0.256851  0.325597  0.248198  0.089547  0.010154  0.000520 -0.000255
                                 0.000109 -0.000383 -0.000217  0.000604  0.000014 -0.000002  0.000001 -0.000000  0.000441 -0.000556
                                 0.000000  0.000001 -0.000001  0.000005 -0.000007  0.000019 -0.000024  0.000016 -0.000021  0.000001
                                -0.000001  0.000000 -0.000000 -0.000000  0.000001  0.000000 -0.000001 -0.000001  0.000001 -0.000001
                                 0.000001 -0.000000  0.000000  0.000001 -0.000001  0.000000 -0.000001  0.000000 -0.000000 -0.000000
                                 0.000000

   2.2   2   -89.7078 -385.6283 -0.000001 -0.000004 -0.000011 -0.000028 -0.000071 -0.000173 -0.000418 -0.001019 -0.002519 -0.006313
                                -0.015721 -0.037798 -0.082211 -0.149683 -0.194653 -0.092434  0.218117  0.494310  0.345279  0.080775
                                 0.007763 -0.003335 -0.002558  0.007706  0.000184 -0.000033  0.000013 -0.000005  0.004881 -0.007131
                                 0.000001  0.000000 -0.000000  0.000002 -0.000003  0.000016 -0.000021  0.000139 -0.000179  0.000414
                                -0.000534  0.000280 -0.000362  0.000020 -0.000026  0.000004 -0.000005 -0.000016  0.000020 -0.000013
                                 0.000017 -0.000003  0.000004  0.000019 -0.000024  0.000008 -0.000010  0.000001 -0.000001 -0.000000
                                 0.000000

   3.2   2   -20.5960 -166.6520  0.000001  0.000002  0.000005  0.000014  0.000035  0.000084  0.000204  0.000497  0.001230  0.003088
                                 0.007715  0.018642  0.040894  0.075298  0.098734  0.036279 -0.165500 -0.400004 -0.215584  0.339331
                                 0.578029  0.310294  0.049824 -0.027673 -0.000518  0.000084 -0.000031  0.000012 -0.024467  0.026220
                                -0.000003  0.000001 -0.000001  0.000009 -0.000012  0.000048 -0.000062  0.000111 -0.000144  0.000241
                                -0.000311  0.001460 -0.001883  0.002846 -0.003671  0.001562 -0.002013  0.000097 -0.000124 -0.000085
                                 0.000109 -0.000020  0.000025  0.000137 -0.000176  0.000054 -0.000070  0.000005 -0.000007 -0.000001
                                 0.000001

   4.2   2    -5.6528 -122.6567 -0.000000 -0.000000 -0.000000 -0.000000 -0.000000 -0.000000 -0.000000 -0.000000 -0.000000 -0.000000
                                -0.000000 -0.000000 -0.000001 -0.000002 -0.000002 -0.000001  0.000004  0.000010  0.000005 -0.000011
                                -0.000020 -0.000008  0.000015  0.000018  0.000003 -0.000000  0.000000 -0.000000 -0.000001  0.000000
                                 0.000000  0.000226  0.000175  0.001956  0.001512  0.010638  0.008224  0.036738  0.028402  0.095275
                                 0.073656  0.183119  0.141568  0.247338  0.191215  0.248838  0.192372  0.174251  0.134709  0.070460
                                 0.054470  0.008148  0.006299  0.001783  0.001379 -0.005560 -0.004298 -0.001505 -0.001163  0.000171
                                 0.000132

   5.2   2    -5.5846 -122.3536  0.000000  0.000000  0.000000  0.000000  0.000000  0.000001  0.000002  0.000005  0.000013  0.000033
                                 0.000083  0.000201  0.000442  0.000814  0.001071  0.000364 -0.001935 -0.004732 -0.002240  0.004863
                                 0.008408  0.004077 -0.003884 -0.005252 -0.001091  0.000041 -0.000017  0.000007  0.000365 -0.000489
                                -0.000002 -0.000175  0.000226 -0.001508  0.001951 -0.008203  0.010610 -0.028332  0.036648 -0.073456
                                 0.095017 -0.141090  0.182504 -0.190450  0.246353 -0.192110  0.248498 -0.135590  0.175386 -0.055648
                                 0.071980 -0.006543  0.008463 -0.001672  0.002162  0.004069 -0.005263  0.001189 -0.001539 -0.000136
                                 0.000175

   6.2   2    -5.2285  -72.4819 -0.000000 -0.000001 -0.000002 -0.000006 -0.000014 -0.000034 -0.000083 -0.000201 -0.000499 -0.001252
                                -0.003134 -0.007567 -0.016663 -0.030679 -0.040466 -0.013568  0.072754  0.182397  0.083344 -0.205021
                                -0.398000 -0.137986  0.464644  0.375359  0.152158 -0.003328  0.001660 -0.000668 -0.062177  0.273369
                                 0.000186 -0.000003  0.000004 -0.000026  0.000034 -0.000143  0.000183 -0.000462  0.000595 -0.001198
                                 0.001542 -0.002752  0.003542 -0.004079  0.005252 -0.001744  0.002239  0.002273 -0.002936  0.002448
                                -0.003157  0.000409 -0.000528  0.000177 -0.000228 -0.000060  0.000078 -0.000069  0.000089  0.000009
                                -0.000011

   7.2   0    -2.0100  -34.4518  0.000000  0.000000  0.000001  0.000003  0.000006  0.000016  0.000038  0.000091  0.000228  0.000567
                                 0.001438  0.003424  0.007670  0.013820  0.018893  0.005146 -0.031578 -0.089095 -0.028630  0.080036
                                 0.253760 -0.274948 -0.892867  5.607816  0.768432  0.845476 -0.023309  0.015645  0.652607 -6.286538
                                -0.004416  0.000001 -0.000001  0.000009 -0.000011  0.000047 -0.000061  0.000148 -0.000191  0.000381
                                -0.000492  0.000963 -0.001243  0.001434 -0.001850 -0.000076  0.000098 -0.002429  0.003131 -0.002413
                                 0.003111  0.000501 -0.000641  0.000168 -0.000215  0.000939 -0.001206  0.001704 -0.002191  0.000122
                                -0.000157

   8.2   0    -1.5551  -34.3779  0.000000  0.000000  0.000000  0.000000  0.000000  0.000000  0.000000  0.000000  0.000000  0.000000
                                 0.000000  0.000000  0.000000  0.000000  0.000001  0.000000 -0.000001 -0.000002 -0.000001  0.000003
                                 0.000005  0.000002 -0.000002 -0.000008 -0.000003 -0.000011 -0.000002  0.000000 -0.000000  0.000004
                                -0.000000 -0.000052 -0.000040 -0.000422 -0.000326 -0.002408 -0.001859 -0.007983 -0.006162 -0.021655
                                -0.016717 -0.038981 -0.030092 -0.054845 -0.042339 -0.036270 -0.027998 -0.066918 -0.051656 -0.122383
                                -0.094473  0.051593  0.039829  0.137892  0.106448  0.332298  0.256523  0.495376  0.382413  0.082569
                                 0.063741

                                   1 2py     1 2py     1 2py     1 2py     1 2py     1 2py     1 2py     1 2py     1 2py     1 2py
                                   1 2py     1 2py     1 2py     1 2py     1 2py     1 2py     1 2py     1 2py     1 2py     1 2py
                                   1 2py     1 2py     1 2py     1 2py     1 2py     1 2py     1 2py     1 2py     1 2py     1 2py
                                   1 2py     1 4f1-    1 4f3-    1 4f1-    1 4f3-    1 4f1-    1 4f3-    1 4f1-    1 4f3-    1 4f1-
                                   1 4f3-    1 4f1-    1 4f3-    1 4f1-    1 4f3-    1 4f1-    1 4f3-    1 4f1-    1 4f3-    1 4f1-
                                   1 4f3-    1 4f1-    1 4f3-    1 4f1-    1 4f3-    1 4f1-    1 4f3-    1 4f1-    1 4f3-    1 4f1-
                                   1 4f3-

   1.3   2  -384.6835-1076.4910  0.000003  0.000007  0.000021  0.000056  0.000141  0.000341  0.000821  0.001991  0.004898  0.012166
                                 0.029913  0.070284  0.147880  0.256824  0.325564  0.248210  0.089627  0.010180  0.000513 -0.000259
                                 0.000107 -0.000381 -0.000215  0.000601  0.000014 -0.000002  0.000001 -0.000000  0.000439 -0.000553
                                 0.000000  0.000000 -0.000001  0.000002 -0.000007  0.000007 -0.000026  0.000006 -0.000023 -0.000000
                                 0.000001 -0.000000  0.000001 -0.000000  0.000001  0.000000 -0.000001 -0.000000  0.000002 -0.000000
                                 0.000001 -0.000000  0.000000  0.000000 -0.000002  0.000000 -0.000001  0.000000 -0.000000 -0.000000
                                 0.000000

   2.3   2   -89.8728 -385.7575 -0.000001 -0.000004 -0.000011 -0.000028 -0.000071 -0.000173 -0.000418 -0.001019 -0.002518 -0.006310
                                -0.015713 -0.037777 -0.082165 -0.149592 -0.194541 -0.092449  0.217532  0.493990  0.346075  0.080911
                                 0.007578 -0.003394 -0.002581  0.007737  0.000184 -0.000033  0.000013 -0.000005  0.004887 -0.007162
                                 0.000001  0.000000 -0.000000  0.000001 -0.000003  0.000005 -0.000019  0.000047 -0.000182  0.000149
                                -0.000576  0.000089 -0.000342 -0.000008  0.000032 -0.000002  0.000009 -0.000008  0.000032 -0.000006
                                 0.000025 -0.000001  0.000005  0.000009 -0.000035  0.000004 -0.000015  0.000000 -0.000001 -0.000000
                                 0.000000

   3.3   2   -20.7983 -166.9650  0.000001  0.000002  0.000005  0.000014  0.000035  0.000084  0.000204  0.000497  0.001231  0.003091
                                 0.007723  0.018660  0.040934  0.075370  0.098826  0.036366 -0.165298 -0.400343 -0.217827  0.340768
                                 0.582188  0.306648  0.047356 -0.024473 -0.000435  0.000069 -0.000025  0.000010 -0.023345  0.023167
                                -0.000003  0.000000 -0.000001  0.000003 -0.000010  0.000014 -0.000053  0.000028 -0.000108  0.000042
                                -0.000156  0.000459 -0.001766  0.000955 -0.003678  0.000461 -0.001771 -0.000009  0.000034 -0.000032
                                 0.000121 -0.000006  0.000023  0.000049 -0.000186  0.000018 -0.000067  0.000002 -0.000006 -0.000000
                                 0.000001

   4.3   2    -5.5949 -122.4042  0.000000  0.000000  0.000000  0.000000  0.000000  0.000001  0.000002  0.000004  0.000009  0.000023
                                 0.000057  0.000138  0.000303  0.000559  0.000735  0.000250 -0.001330 -0.003245 -0.001518  0.003315
                                 0.005525  0.002748 -0.001957 -0.002892 -0.000586  0.000022 -0.000009  0.000004  0.000205 -0.000207
                                -0.000001 -0.000072  0.000276 -0.000618  0.002388 -0.003362  0.012990 -0.011611  0.044865 -0.030106
                                 0.116328 -0.057832  0.223460 -0.078075  0.301669 -0.078715  0.304155 -0.055474  0.214379 -0.022707
                                 0.087773 -0.002662  0.010293 -0.000664  0.002576  0.001682 -0.006493  0.000485 -0.001876 -0.000055
                                 0.000214

   5.3   2    -5.3269  -73.0733 -0.000000 -0.000001 -0.000002 -0.000006 -0.000014 -0.000035 -0.000084 -0.000204 -0.000505 -0.001266
                                -0.003170 -0.007655 -0.016857 -0.031038 -0.040935 -0.013746  0.073493  0.184644  0.085437 -0.208880
                                -0.407950 -0.136341  0.480061  0.425302  0.141766 -0.003670  0.001710 -0.000683 -0.057149  0.218441
                                 0.000190 -0.000001  0.000003 -0.000011  0.000028 -0.000060  0.000153 -0.000197  0.000488 -0.000502
                                 0.001235 -0.001147  0.003075 -0.001716  0.004787 -0.000824  0.001319  0.000733 -0.004126  0.000829
                                -0.003722  0.000137 -0.000591  0.000033 -0.000142 -0.000045  0.000210 -0.000025  0.000106  0.000003
                                -0.000013

   6.3   +    -5.9100 -123.7234 -0.000000 -0.000000 -0.000000 -0.000000 -0.000000 -0.000000 -0.000000 -0.000000 -0.000001 -0.000002
                                -0.000005 -0.000012 -0.000026 -0.000047 -0.000062 -0.000021  0.000111  0.000279  0.000130 -0.000317
                                -0.000617 -0.000199  0.000720  0.000658  0.000203 -0.000005  0.000003 -0.000001 -0.000079  0.000286
                                 0.000000  0.000279  0.000072  0.002412  0.000624  0.013122  0.003396  0.045297  0.011723  0.117550
                                 0.030423  0.226571  0.058639  0.306933  0.079437  0.305944  0.079175  0.208053  0.053838  0.079550
                                 0.020587  0.008692  0.002250  0.000514  0.000135 -0.007889 -0.002040 -0.001689 -0.000437  0.000188
                                 0.000049

   7.3   0    -2.0341  -34.8120  0.000000  0.000000  0.000001  0.000003  0.000007  0.000016  0.000038  0.000093  0.000232  0.000577
                                 0.001462  0.003481  0.007799  0.014051  0.019212  0.005233 -0.032054 -0.090734 -0.029714  0.082499
                                 0.262263 -0.285300 -0.920762  5.651207  0.815009  0.820435 -0.028798  0.016762  0.663352 -6.326901
                                -0.004686  0.000000 -0.000002  0.000004 -0.000014  0.000020 -0.000076  0.000063 -0.000243  0.000158
                                -0.000608  0.000407 -0.001569  0.000609 -0.002343 -0.000064  0.000258 -0.001025  0.003947 -0.000932
                                 0.003592  0.000150 -0.000554  0.000073 -0.000272  0.000328 -0.001238  0.000545 -0.002075  0.000036
                                -0.000137

   8.3   0    -1.5692  -34.7299 -0.000000 -0.000000 -0.000000 -0.000000 -0.000000 -0.000000 -0.000000 -0.000000 -0.000000 -0.000000
                                -0.000000 -0.000000 -0.000000 -0.000000 -0.000000 -0.000000  0.000000  0.000001  0.000000 -0.000001
                                -0.000002 -0.000004  0.000000  0.000024  0.000012 -0.000022 -0.000006  0.000001  0.000002 -0.000013
                                -0.000000 -0.000063 -0.000016 -0.000517 -0.000133 -0.002947 -0.000759 -0.009778 -0.002519 -0.026515
                                -0.006831 -0.047858 -0.012330 -0.067137 -0.017297 -0.043552 -0.011220 -0.074917 -0.019300 -0.133942
                                -0.034508  0.078550  0.020238  0.164823  0.042465  0.399943  0.103042  0.589169  0.151794  0.095143
                                 0.024513

                                   1 3d2-    1 3d2-    1 3d2-    1 3d2-    1 3d2-    1 3d2-    1 3d2-    1 3d2-    1 3d2-    1 3d2-
                                   1 3d2-    1 3d2-    1 3d2-    1 3d2-    1 3d2-    1 3d2-    1 3d2-    1 3d2-    1 3d2-    1 3d2-
                                   1 3d2-    1 3d2-    1 5g2-    1 5g4-    1 5g2-    1 5g4-    1 5g2-    1 5g4-

   1.4   2   -70.5243 -355.3911  0.000024  0.000149  0.000839  0.003898  0.014991  0.046012  0.114704  0.221672  0.320595  0.306423
                                 0.154478  0.034513  0.002167 -0.000851  0.000266  0.000236 -0.000018  0.000005 -0.000002  0.001502
                                -0.000316  0.000001  0.000006 -0.000015 -0.000004  0.000010  0.000001 -0.000004

   2.4   2   -13.5601 -147.8530 -0.000012 -0.000074 -0.000421 -0.001961 -0.007611 -0.023537 -0.059885 -0.115880 -0.163082 -0.112263
                                 0.122262  0.378901  0.414960  0.204672  0.035623  0.003740 -0.000117  0.000021 -0.000006  0.002026
                                -0.004427  0.000002  0.000700 -0.001848 -0.000351  0.000926  0.000122 -0.000322

   3.4   0    -2.9120  -56.1735 -0.000004 -0.000025 -0.000142 -0.000663 -0.002568 -0.007983 -0.020293 -0.039472 -0.054919 -0.035012
                                 0.058684  0.154177  0.175894  0.023197 -0.387083 -0.607666 -0.183359  0.005731 -0.003023 -0.038487
                                 0.057699  0.000966 -0.002183  0.005756 -0.000712  0.001875 -0.000153  0.000402

   4.4   0    -1.4974  -28.5213 -0.000002 -0.000013 -0.000074 -0.000356 -0.001336 -0.004287 -0.010532 -0.021372 -0.027883 -0.020603
                                 0.037326  0.072154  0.136986  0.239693 -0.414694 -1.075492  0.637657  0.668478 -0.028384 -0.240712
                                 0.654067  0.011170 -0.001410  0.003718  0.000049 -0.000127  0.000809 -0.002127

                                   1 2pz     1 2pz     1 2pz     1 2pz     1 2pz     1 2pz     1 2pz     1 2pz     1 2pz     1 2pz
                                   1 2pz     1 2pz     1 2pz     1 2pz     1 2pz     1 2pz     1 2pz     1 2pz     1 2pz     1 2pz
                                   1 2pz     1 2pz     1 2pz     1 2pz     1 2pz     1 2pz     1 2pz     1 2pz     1 2pz     1 2pz
                                   1 2pz     1 4f0     1 4f2+    1 4f0     1 4f2+    1 4f0     1 4f2+    1 4f0     1 4f2+    1 4f0
                                   1 4f2+    1 4f0     1 4f2+    1 4f0     1 4f2+    1 4f0     1 4f2+    1 4f0     1 4f2+    1 4f0
                                   1 4f2+    1 4f0     1 4f2+    1 4f0     1 4f2+    1 4f0     1 4f2+    1 4f0     1 4f2+    1 4f0
                                   1 4f2+

   1.5   2  -384.6835-1076.4910  0.000003  0.000007  0.000021  0.000056  0.000141  0.000341  0.000821  0.001991  0.004898  0.012165
                                 0.029913  0.070283  0.147880  0.256824  0.325564  0.248210  0.089627  0.010180  0.000513 -0.000259
                                 0.000107 -0.000381 -0.000215  0.000601  0.000014 -0.000002  0.000001 -0.000000  0.000439 -0.000553
                                 0.000000  0.000000 -0.000001  0.000004 -0.000006  0.000016 -0.000021  0.000015 -0.000019 -0.000001
                                 0.000001 -0.000001  0.000001 -0.000001  0.000001  0.000000 -0.000000 -0.000001  0.000001 -0.000001
                                 0.000001 -0.000000  0.000000  0.000001 -0.000001  0.000000 -0.000001  0.000000 -0.000000 -0.000000
                                 0.000000

   2.5   2   -89.8729 -385.7576 -0.000001 -0.000004 -0.000011 -0.000028 -0.000071 -0.000173 -0.000418 -0.001019 -0.002518 -0.006310
                                -0.015713 -0.037777 -0.082165 -0.149592 -0.194541 -0.092449  0.217532  0.493989  0.346076  0.080911
                                 0.007578 -0.003394 -0.002581  0.007737  0.000184 -0.000033  0.000013 -0.000005  0.004887 -0.007162
                                 0.000001  0.000000 -0.000000  0.000002 -0.000003  0.000012 -0.000016  0.000115 -0.000149  0.000365
                                -0.000470  0.000217 -0.000280 -0.000021  0.000026 -0.000006  0.000007 -0.000021  0.000026 -0.000016
                                 0.000020 -0.000003  0.000004  0.000022 -0.000029  0.000010 -0.000012  0.000001 -0.000001 -0.000000
                                 0.000000

   3.5   2   -20.7985 -166.9652  0.000001  0.000002  0.000005  0.000014  0.000035  0.000084  0.000204  0.000497  0.001231  0.003091
                                 0.007723  0.018660  0.040934  0.075370  0.098826  0.036366 -0.165298 -0.400343 -0.217827  0.340767
                                 0.582191  0.306649  0.047355 -0.024474 -0.000435  0.000069 -0.000025  0.000010 -0.023346  0.023167
                                -0.000003  0.000001 -0.000001  0.000007 -0.000008  0.000033 -0.000043  0.000068 -0.000089  0.000098
                                -0.000128  0.001117 -0.001444  0.002327 -0.003006  0.001120 -0.001447 -0.000023  0.000028 -0.000077
                                 0.000099 -0.000015  0.000019  0.000118 -0.000152  0.000043 -0.000055  0.000004 -0.000005 -0.000000
                                 0.000001

   4.5   2    -5.5950 -122.4042  0.000000  0.000000  0.000000  0.000000  0.000000  0.000001  0.000002  0.000004  0.000009  0.000023
                                 0.000057  0.000138  0.000303  0.000559  0.000735  0.000250 -0.001329 -0.003244 -0.001517  0.003314
                                 0.005521  0.002746 -0.001951 -0.002886 -0.000584  0.000022 -0.000009  0.000004  0.000204 -0.000205
                                -0.000001 -0.000176  0.000225 -0.001520  0.001943 -0.008267  0.010568 -0.028552  0.036503 -0.074032
                                 0.094645 -0.142216  0.181806 -0.191995  0.245434 -0.193563  0.247467 -0.136398  0.174447 -0.055821
                                 0.071441 -0.006543  0.008380 -0.001630  0.002102  0.004138 -0.005279  0.001193 -0.001527 -0.000136
                                 0.000174

   5.5   2    -5.3270  -73.0737 -0.000000 -0.000001 -0.000002 -0.000006 -0.000014 -0.000035 -0.000084 -0.000204 -0.000505 -0.001266
                                -0.003170 -0.007655 -0.016857 -0.031038 -0.040935 -0.013746  0.073493  0.184645  0.085438 -0.208881
                                -0.407957 -0.136346  0.480075  0.425359  0.141756 -0.003671  0.001710 -0.000683 -0.057144  0.218384
                                 0.000190 -0.000002  0.000003 -0.000018  0.000024 -0.000099  0.000130 -0.000315  0.000415 -0.000798
                                 0.001052 -0.001977  0.002595 -0.003074  0.004024 -0.000877  0.001193  0.002589 -0.003288  0.002350
                                -0.003005  0.000374 -0.000478  0.000091 -0.000114 -0.000132  0.000170 -0.000067  0.000086  0.000008
                                -0.000011

   6.5   +    -5.9100 -123.7234  0.000000  0.000000  0.000000  0.000000  0.000000  0.000000  0.000000  0.000000  0.000000  0.000000
                                 0.000001  0.000002  0.000004  0.000007  0.000009  0.000003 -0.000016 -0.000039 -0.000019  0.000042
                                 0.000079  0.000031 -0.000068 -0.000063 -0.000021  0.000001 -0.000000  0.000000  0.000008 -0.000031
                                -0.000000  0.000227  0.000178  0.001963  0.001535  0.010677  0.008350  0.036857  0.028824  0.095648
                                 0.074800  0.184358  0.144170  0.249751  0.195301  0.248934  0.194685  0.169259  0.132425  0.064699
                                 0.050658  0.007067  0.005538  0.000412  0.000336 -0.006423 -0.005015 -0.001374 -0.001076  0.000153
                                 0.000120

   7.5   0    -2.0342  -34.8125  0.000000  0.000000  0.000001  0.000003  0.000007  0.000016  0.000038  0.000093  0.000232  0.000577
                                 0.001462  0.003481  0.007799  0.014051  0.019212  0.005233 -0.032055 -0.090736 -0.029715  0.082500
                                 0.262272 -0.285308 -0.920801  5.651274  0.815072  0.820402 -0.028805  0.016763  0.663368 -6.326973
                                -0.004686  0.000001 -0.000001  0.000009 -0.000011  0.000048 -0.000062  0.000154 -0.000198  0.000385
                                -0.000496  0.000995 -0.001282  0.001485 -0.001915 -0.000163  0.000210 -0.002503  0.003225 -0.002278
                                 0.002934  0.000355 -0.000454  0.000174 -0.000223  0.000789 -0.001013  0.001320 -0.001696  0.000087
                                -0.000112

   8.5   0    -1.5692  -34.7299  0.000000  0.000000  0.000000  0.000000  0.000000  0.000000  0.000000  0.000000  0.000000  0.000000
                                 0.000000  0.000000  0.000000  0.000000  0.000000  0.000000 -0.000001 -0.000002 -0.000001  0.000002
                                 0.000003  0.000002 -0.000001 -0.000012 -0.000005 -0.000005 -0.000001  0.000000 -0.000001  0.000008
                                -0.000000 -0.000052 -0.000040 -0.000422 -0.000327 -0.002407 -0.001863 -0.007985 -0.006180 -0.021653
                                -0.016759 -0.039083 -0.030249 -0.054827 -0.042434 -0.035566 -0.027527 -0.061180 -0.047350 -0.109383
                                -0.084657  0.064147  0.049647  0.134601  0.104175  0.326610  0.252781  0.481140  0.372379  0.077697
                                 0.060134

                                   1 3d1+    1 3d1+    1 3d1+    1 3d1+    1 3d1+    1 3d1+    1 3d1+    1 3d1+    1 3d1+    1 3d1+
                                   1 3d1+    1 3d1+    1 3d1+    1 3d1+    1 3d1+    1 3d1+    1 3d1+    1 3d1+    1 3d1+    1 3d1+
                                   1 3d1+    1 3d1+    1 5g1+    1 5g3+    1 5g1+    1 5g3+    1 5g1+    1 5g3+

   1.6   2   -70.5244 -355.3911  0.000024  0.000149  0.000839  0.003898  0.014991  0.046012  0.114704  0.221672  0.320595  0.306423
                                 0.154478  0.034513  0.002167 -0.000851  0.000266  0.000236 -0.000018  0.000005 -0.000002  0.001502
                                -0.000316  0.000001  0.000012 -0.000011 -0.000008  0.000007  0.000003 -0.000002

   2.6   2   -13.5602 -147.8531 -0.000012 -0.000074 -0.000421 -0.001961 -0.007611 -0.023537 -0.059885 -0.115880 -0.163082 -0.112263
                                 0.122262  0.378900  0.414961  0.204672  0.035622  0.003740 -0.000117  0.000021 -0.000006  0.002027
                                -0.004427  0.000002  0.001485 -0.001306 -0.000744  0.000655  0.000259 -0.000228

   3.6   0    -2.9121  -56.1739 -0.000004 -0.000025 -0.000142 -0.000663 -0.002568 -0.007983 -0.020294 -0.039472 -0.054919 -0.035013
                                 0.058684  0.154179  0.175897  0.023192 -0.387092 -0.607653 -0.183349  0.005731 -0.003023 -0.038482
                                 0.057686  0.000966 -0.004625  0.004073 -0.001508  0.001326 -0.000323  0.000285

   4.6   0    -1.4974  -28.5215 -0.000002 -0.000013 -0.000074 -0.000356 -0.001336 -0.004287 -0.010532 -0.021372 -0.027883 -0.020603
                                 0.037326  0.072154  0.136987  0.239689 -0.414699 -1.075470  0.637680  0.668460 -0.028386 -0.240709
                                 0.654050  0.011170 -0.002987  0.002631  0.000102 -0.000090  0.001712 -0.001505

                                   1 3d1-    1 3d1-    1 3d1-    1 3d1-    1 3d1-    1 3d1-    1 3d1-    1 3d1-    1 3d1-    1 3d1-
                                   1 3d1-    1 3d1-    1 3d1-    1 3d1-    1 3d1-    1 3d1-    1 3d1-    1 3d1-    1 3d1-    1 3d1-
                                   1 3d1-    1 3d1-    1 5g1-    1 5g3-    1 5g1-    1 5g3-    1 5g1-    1 5g3-

   1.7   2   -70.5879 -355.4677  0.000024  0.000149  0.000839  0.003897  0.014988  0.046004  0.114681  0.221624  0.320595  0.306725
                                 0.154628  0.034082  0.001795 -0.000989  0.000236  0.000231 -0.000018  0.000005 -0.000002  0.001511
                                -0.000312  0.000001 -0.000013  0.000035  0.000006 -0.000015 -0.000002  0.000005

   2.7   2   -13.5969 -147.9823 -0.000012 -0.000074 -0.000421 -0.001959 -0.007606 -0.023520 -0.059842 -0.115789 -0.163010 -0.112526
                                 0.122077  0.380680  0.416343  0.202745  0.033953  0.003260 -0.000084  0.000011 -0.000002  0.001718
                                -0.003955  0.000001  0.000295 -0.000777 -0.000174  0.000458  0.000060 -0.000159

   3.7   0    -2.9640  -56.8837 -0.000004 -0.000026 -0.000145 -0.000676 -0.002621 -0.008142 -0.020710 -0.040251 -0.056084 -0.035798
                                 0.059823  0.159198  0.179062  0.010166 -0.398784 -0.589486 -0.170939  0.006255 -0.003024 -0.033394
                                 0.043891  0.000960 -0.001826  0.004802 -0.000495  0.001299 -0.000123  0.000323

   4.7   0    -1.5109  -28.7156 -0.000002 -0.000014 -0.000075 -0.000359 -0.001349 -0.004324 -0.010635 -0.021549 -0.028188 -0.020782
                                 0.037592  0.074122  0.137286  0.229381 -0.418841 -1.041882  0.661289  0.648005 -0.030413 -0.235755
                                 0.631937  0.011442 -0.001170  0.003076  0.000073 -0.000192  0.000561 -0.001467

                                   1 4f2-    1 4f2-    1 4f2-    1 4f2-    1 4f2-    1 4f2-    1 4f2-    1 4f2-    1 4f2-    1 4f2-
                                   1 4f2-    1 4f2-    1 4f2-    1 4f2-    1 4f2-

   1.8   2    -5.6527 -122.6568  0.000286  0.002472  0.013446  0.046436  0.120426  0.231461  0.312633  0.314528  0.220250  0.089059
                                 0.010299  0.002254 -0.007027 -0.001902  0.000216

   2.8   0    -1.5551  -34.3781 -0.000065 -0.000533 -0.003042 -0.010085 -0.027357 -0.049245 -0.069286 -0.045820 -0.084536 -0.154600
                                 0.065184  0.174198  0.419791  0.625804  0.104308

   3.8   0    -0.9901  -21.5431  0.000047  0.000425  0.002233  0.007975  0.020025  0.039535  0.047094  0.048837 -0.060696 -0.282917
                                -0.584051  0.103196  0.139814  0.113492  0.943985

 HOMO      6.2    -5.228512 =    -142.2750eV
 LUMO      3.7    -2.964038 =     -80.6556eV
 LUMO-HOMO         2.264474 =      61.6195eV


 **********************************************************************************************************************************
 DATASETS  * FILE   NREC   LENGTH (MB)   RECORD NAMES
              1      22       21.46       500      610      700      900      950      970     1000      129      960     1700
                                          VAR    BASINP    GEOM    SYMINP    ZMAT    AOBASIS   BASIS     P2S    ABASIS    OPER
                                         1101     1401     1411     1412     1650     1100     1400     1410     1200     1210
                                          SR      EKINR    POTR     PVPR    MOLCAS      S      EKIN      POT      H0       H01
                                         1080     1600
                                         AOSYM     SMH

              2       4        3.41       700     1000      520     4202
                                         GEOM     BASIS   MCVARS     RHF

 PROGRAMS   *        TOTAL       RHF       INT
 CPU TIMES  *       190.98     10.65    180.11
 REAL TIME  *       198.31 SEC
 DISK USED  *         4.72 GB
 SF USED    *         0.09 MB
 GA USED    *         0.00 MB       (max)       0.00 MB       (current)
 **********************************************************************************************************************************
   -->
   <time start="06:54:53" end="06:58:11" cpu="190.98" system="6.73" real="198.31"/>
   <storage units="megabyte" memory="24001.84" sf="0.09" df="84.35" eaf="4633.88" ga="0.0"/>
  </jobstep><!--
  --><jobstep command="POP" commandset="POP">
   <!--


 PROGRAM * POP (Mulliken population analysis)


 Density matrix read from record         4202.2  Type=RHF/CHARGE (state 1.7)

 Population analysis by basis function type

 Unique atom        s        p        d        f        g    Total    Charge
   1  TA      9.99919 23.99933 20.00079 12.00067  0.00002 66.00000  + 7.00000


 **********************************************************************************************************************************
 DATASETS  * FILE   NREC   LENGTH (MB)   RECORD NAMES
              1      22       21.46       500      610      700      900      950      970     1000      129      960     1700
                                          VAR    BASINP    GEOM    SYMINP    ZMAT    AOBASIS   BASIS     P2S    ABASIS    OPER
                                         1101     1401     1411     1412     1650     1100     1400     1410     1200     1210
                                          SR      EKINR    POTR     PVPR    MOLCAS      S      EKIN      POT      H0       H01
                                         1080     1600
                                         AOSYM     SMH

              2       4        3.41       700     1000      520     4202
                                         GEOM     BASIS   MCVARS     RHF

 PROGRAMS   *        TOTAL       POP       RHF       INT
 CPU TIMES  *       190.99      0.00     10.65    180.11
 REAL TIME  *       198.32 SEC
 DISK USED  *         4.72 GB
 SF USED    *         0.09 MB
 GA USED    *         0.00 MB       (max)       0.00 MB       (current)
 **********************************************************************************************************************************
   -->
   <time start="06:58:11" end="06:58:11" cpu="0.01" system="0.0" real="0.01"/>
   <storage units="megabyte" memory="24001.84" sf="0.09" df="84.35" eaf="4633.88" ga="0.0"/>
  </jobstep><!--
  --><jobstep command="MULTI" commandset="MULTI">
   <!--


 PROGRAM * MULTI (Direct Multiconfiguration SCF)       Authors: P.J. Knowles, H.-J. Werner (1984)     S.T. Elbert (1988)


 Number of closed-shell orbitals:  31 (   9   5   5   2   5   2   2   1 )
 Number of active  orbitals:        3 (   0   1   1   0   1   0   0   0 )
 Number of external orbitals:     336 (  79  55  55  26  55  26  26  14 )

 State symmetry 1

 Number of electrons:     4    Spin symmetry=Triplet   Space symmetry=7
 Number of states:        1
 Number of CSFs:          1   (1 determinants, 3 intermediate states)

 State symmetry 2

 Number of electrons:     4    Spin symmetry=Triplet   Space symmetry=6
 Number of states:        1
 Number of CSFs:          1   (1 determinants, 3 intermediate states)

 State symmetry 3

 Number of electrons:     4    Spin symmetry=Triplet   Space symmetry=4
 Number of states:        1
 Number of CSFs:          1   (1 determinants, 3 intermediate states)

 Molecular orbitals read from record     4202.2  Type=RHF/CANONICAL (state 1.7)
 *** IN SYMMETRY 1 ORBITAL  4 SYMMETRY CONTAMINATION OF 0.603D-04 HAS BEEN REMOVED
 *** IN SYMMETRY 1 ORBITAL  5 SYMMETRY CONTAMINATION OF 0.314D-04 HAS BEEN REMOVED
 *** IN SYMMETRY 1 ORBITAL  7 SYMMETRY CONTAMINATION OF 0.114D-02 HAS BEEN REMOVED
 *** IN SYMMETRY 1 ORBITAL  8 SYMMETRY CONTAMINATION OF 0.251D-02 HAS BEEN REMOVED
 *** IN SYMMETRY 1 ORBITAL  9 SYMMETRY CONTAMINATION OF 0.322D-03 HAS BEEN REMOVED

 EXTRA SYMMETRY OF MOS IN SYMMETRY 1:   1 1 1 1 1 1 1 1 1 1   1 1 1 1 1 1 1 2 3 4   1 1 1 1 1 1 1 2 3 4   1 1 1 2 1 1 1 1 1 1
                                        1 1 1 1 1 1 1 1 1 1   1 1 1 1 1 1 1 1 1 1   1 1 1 1 1 1 1 1 1 1   1 1 1 1 1 1 1 1 1 1
                                        1 1 1 1 1 1 4 3
 *** IN SYMMETRY 2 ORBITAL  1 SYMMETRY CONTAMINATION OF 0.880D-04 HAS BEEN REMOVED
 *** IN SYMMETRY 2 ORBITAL  2 SYMMETRY CONTAMINATION OF 0.122D-02 HAS BEEN REMOVED
 *** IN SYMMETRY 2 ORBITAL  3 SYMMETRY CONTAMINATION OF 0.628D-02 HAS BEEN REMOVED
 *** IN SYMMETRY 2 ORBITAL  4 SYMMETRY CONTAMINATION OF 0.436D+00 HAS BEEN REMOVED
 *** IN SYMMETRY 2 ORBITAL  5 SYMMETRY CONTAMINATION OF 0.448D+00 HAS BEEN REMOVED
 *** IN SYMMETRY 2 ORBITAL  6 SYMMETRY CONTAMINATION OF 0.141D-01 HAS BEEN REMOVED
 EXTRA SYMMETRY OF MOS IN SYMMETRY 2:   1 1 1 2 3 1 1 2 3 1   2 3 1 1 2 3 1 2 3 1   2 3 1 2 3 1 2 3 1 2   3 1 2 3 1 2 3 2 3 1
                                        1 2 3 1 2 3 1 2 3 1   1 1 1 1 1 1 1 1 1 1   1
 *** IN SYMMETRY 3 ORBITAL  1 SYMMETRY CONTAMINATION OF 0.692D-04 HAS BEEN REMOVED
 *** IN SYMMETRY 3 ORBITAL  2 SYMMETRY CONTAMINATION OF 0.916D-03 HAS BEEN REMOVED
 *** IN SYMMETRY 3 ORBITAL  3 SYMMETRY CONTAMINATION OF 0.415D-02 HAS BEEN REMOVED
 *** IN SYMMETRY 3 ORBITAL  4 SYMMETRY CONTAMINATION OF 0.218D+00 HAS BEEN REMOVED
 *** IN SYMMETRY 3 ORBITAL  5 SYMMETRY CONTAMINATION OF 0.102D-01 HAS BEEN REMOVED
 *** IN SYMMETRY 3 ORBITAL  6 SYMMETRY CONTAMINATION OF 0.207D+00 HAS BEEN REMOVED
 EXTRA SYMMETRY OF MOS IN SYMMETRY 3:   1 1 1 3 1 2 1 2 3 1   2 3 1 1 2 3 1 2 3 1   2 3 1 2 3 1 2 3 1 2   3 1 2 3 1 2 3 2 3 1
                                        1 2 3 1 2 3 1 2 3 1   1 1 1 1 1 1 1 1 1 1   1
 *** IN SYMMETRY 4 ORBITAL  1 SYMMETRY CONTAMINATION OF 0.323D-04 HAS BEEN REMOVED
 *** IN SYMMETRY 4 ORBITAL  2 SYMMETRY CONTAMINATION OF 0.258D-02 HAS BEEN REMOVED
 EXTRA SYMMETRY OF MOS IN SYMMETRY 4:   1 1 1 1 1 2 3 1 1 2   3 1 2 1 1 1 1 1 1 1   1 1 1 1 1 1 1 3
 *** IN SYMMETRY 5 ORBITAL  1 SYMMETRY CONTAMINATION OF 0.797D-04 HAS BEEN REMOVED
 *** IN SYMMETRY 5 ORBITAL  2 SYMMETRY CONTAMINATION OF 0.105D-02 HAS BEEN REMOVED
 *** IN SYMMETRY 5 ORBITAL  3 SYMMETRY CONTAMINATION OF 0.477D-02 HAS BEEN REMOVED
 *** IN SYMMETRY 5 ORBITAL  4 SYMMETRY CONTAMINATION OF 0.446D+00 HAS BEEN REMOVED
 *** IN SYMMETRY 5 ORBITAL  5 SYMMETRY CONTAMINATION OF 0.114D-01 HAS BEEN REMOVED
 *** IN SYMMETRY 5 ORBITAL  6 SYMMETRY CONTAMINATION OF 0.439D+00 HAS BEEN REMOVED
 EXTRA SYMMETRY OF MOS IN SYMMETRY 5:   1 1 1 3 1 2 1 2 3 1   2 3 1 1 2 3 1 2 3 1   2 3 1 2 3 1 2 3 1 2   3 1 2 3 1 2 3 2 3 1
                                        1 2 3 1 2 3 1 2 3 1   1 1 1 1 1 1 1 1 1 1   1
 *** IN SYMMETRY 6 ORBITAL  1 SYMMETRY CONTAMINATION OF 0.353D-04 HAS BEEN REMOVED
 *** IN SYMMETRY 6 ORBITAL  2 SYMMETRY CONTAMINATION OF 0.282D-02 HAS BEEN REMOVED
 EXTRA SYMMETRY OF MOS IN SYMMETRY 6:   1 1 1 1 1 3 2 1 1 3   2 1 3 1 1 1 1 1 1 1   1 1 1 1 1 1 1 2
 *** IN SYMMETRY 7 ORBITAL  1 SYMMETRY CONTAMINATION OF 0.615D-04 HAS BEEN REMOVED
 *** IN SYMMETRY 7 ORBITAL  2 SYMMETRY CONTAMINATION OF 0.116D-02 HAS BEEN REMOVED
 EXTRA SYMMETRY OF MOS IN SYMMETRY 7:   1 1 1 1 1 2 3 1 1 2   3 1 2 1 1 1 1 1 1 1   1 1 1 1 1 1 1 3

 Wavefunction dump at record             5202.2

 Convergence thresholds  0.10E-01 (gradient)  0.13E-05 (energy)  0.10E-02 (step length)

 Weight factors for state symmetry  1:    0.33333
 Weight factors for state symmetry  2:    0.33333
 Weight factors for state symmetry  3:    0.33333

 Number of orbital rotations:     1886   (    15 Core/Active   1706 Core/Virtual   0 Active/Active    165 Active/Virtual)
 Total number of variables:       1889


 ITER. MIC  NCI  NEG     ENERGY(VAR)     ENERGY(PROJ)   ENERGY CHANGE     GRAD(0)  GRAD(ORB)   GRAD(CI)     STEP       TIME

   1   50   21    0  -15589.43448464  -15616.69482608  -27.26034145   46.8125234948.07616959 0.00000000  0.77D+00      4.26
   2  201   15    0   57958.96667990  -15467.61860917**************   ********************** 0.00000000  0.11D+01      8.26
   3  201   24    0  -15546.28217747  -15565.21946879  -18.93729132   ********************** 0.00000000  0.55D+00     12.80
   4  201   24    0  -15565.72405728  -15569.39745243   -3.67339515   ********************** 0.00000000  0.54D+00     17.43
   5  201   24    0  -15569.40382736  -15570.35525324   -0.95142588   ********************** 0.00000000  0.31D+00     22.01
   6  201   24    0  -15570.35830442  -15570.68259162   -0.32428720   ********************** 0.00000000  0.88D-01     26.58
   7  201   24    0  -15570.68264928  -15571.27797306   -0.59532378   ********************** 0.00000000  0.10D+00     31.14
   8  201   24    0  -15571.27799686  -15574.36327321   -3.08527635   ********************** 0.00000000  0.30D+00     35.81
   9  201   24    0  -15574.36273348  -15575.31823691   -0.95550343   ********************** 0.00000000  0.81D-01     40.47
  10  201   24    0  -15575.31880504  -15576.47372706   -1.15492202   ********************** 0.00000000  0.90D-01     45.16
  11  201   24    0  -15576.47371496  -15577.50777592   -1.03406096   ********************** 0.00000000  0.80D-01     50.00
  12  201   24    0  -15577.50770022  -15578.90311374   -1.39541352   ********************** 0.00000000  0.11D+00     54.82
  13  201   24    0  -15578.90328234  -15579.84408358   -0.94080124   ********************** 0.00000000  0.84D-01     59.58
  14  201   24    0  -15579.84413012  -15580.48466650   -0.64053639   ********************** 0.00000000  0.61D-01     64.41
  15  201   24    0  -15580.48466280  -15581.14677629   -0.66211348   ***********47.24857716 0.00000000  0.70D-01     69.03
  16  201   24    0  -15581.14679535  -15581.51139093   -0.36459558   47.24855576*********** 0.00000000  0.43D-01     73.67
  17  201   24    0  -15581.51139453  -15581.95264827   -0.44125375   ***********71.53632173 0.00000000  0.60D-01     78.31
  18  201   24    0  -15581.95265473  -15582.32698084   -0.37432611   71.53631466*********** 0.00000000  0.61D-01     83.00
  19  201   24    0  -15582.32698886  -15582.72186119   -0.39487233   ***********19.21197331 0.00000000  0.84D-01     87.60
  20  201   24    0  -15582.72190666  -15582.79587788   -0.07397122   19.2120447662.40826568 0.00000000  0.21D-01     92.22

 ** WVFN ****  MAXIMUM NUMBER OF ITERATIONS REACHED



 Results for state 1.7
 =====================

 !MCSCF STATE 1.7 Energy             -15582.6655312886
   --><property name="Energy" method="MCSCF" principal="true" stateSymmetry="7" stateNumber="1"
     value="-15582.6655312886"/><!--
 Nuclear energy                         0.00000000
 Kinetic energy                     21813.74766485
 One electron energy               -21077.13084062
 Two electron energy                 5494.46530933
 Virial ratio                           1.71435068

 !MCSCF STATE 1.7 Dipole moment         0.00000000     0.00000000     0.00000000
 Dipole moment /Debye                   0.00000000     0.00000000     0.00000000
   --><property name="Dipole moment" method="MCSCF" principal="true" stateSymmetry="7"
     stateNumber="1" value="0.0 0.0 0.0"/><!--



 Results for state 1.6
 =====================

 !MCSCF STATE 1.6 Energy             -15582.8516565150
   --><property name="Energy" method="MCSCF" principal="true" stateSymmetry="6" stateNumber="1"
     value="-15582.851656515"/><!--
 Nuclear energy                         0.00000000
 Kinetic energy                     21836.26914801
 One electron energy               -21126.22493192
 Two electron energy                 5543.37327541
 Virial ratio                           1.71362244

 !MCSCF STATE 1.6 Dipole moment         0.00000000     0.00000000     0.00000000
 Dipole moment /Debye                   0.00000000     0.00000000     0.00000000
   --><property name="Dipole moment" method="MCSCF" principal="true" stateSymmetry="6"
     stateNumber="1" value="0.0 0.0 0.0"/><!--



 Results for state 1.4
 =====================

 !MCSCF STATE 1.4 Energy             -15582.8704485263
   --><property name="Energy" method="MCSCF" principal="true" stateSymmetry="4" stateNumber="1"
     value="-15582.8704485263"/><!--
 Nuclear energy                         0.00000000
 Kinetic energy                     21836.23047844
 One electron energy               -21126.17492893
 Two electron energy                 5543.30448041
 Virial ratio                           1.71362456

 !MCSCF STATE 1.4 Dipole moment         0.00000000     0.00000000     0.00000000
 Dipole moment /Debye                   0.00000000     0.00000000     0.00000000
   --><property name="Dipole moment" method="MCSCF" principal="true" stateSymmetry="4"
     stateNumber="1" value="0.0 0.0 0.0"/><!--

 State-averaged charge density matrix saved on record  5202.2 (density set 1)


 NATURAL ORBITALS (state averaged)
 =================================

   Orb     Occ        Energy       Coefficients

                                   1 1s      1 1s      1 1s      1 1s      1 1s      1 1s      1 1s      1 1s      1 1s      1 1s
                                   1 1s      1 1s      1 1s      1 1s      1 1s      1 1s      1 1s      1 1s      1 1s      1 1s
                                   1 1s      1 1s      1 1s      1 1s      1 1s      1 1s      1 1s      1 1s      1 1s      1 1s
                                   1 1s      1 1s      1 1s      1 1s      1 1s      1 3d0     1 3d2+    1 3d0     1 3d2+    1 3d0
                                   1 3d2+    1 3d0     1 3d2+    1 3d0     1 3d2+    1 3d0     1 3d2+    1 3d0     1 3d2+    1 3d0
                                   1 3d2+    1 3d0     1 3d2+    1 3d0     1 3d2+    1 3d0     1 3d2+    1 3d0     1 3d2+    1 3d0
                                   1 3d2+    1 3d0     1 3d2+    1 3d0     1 3d2+    1 3d0     1 3d2+    1 3d0     1 3d2+    1 3d0
                                   1 3d2+    1 3d0     1 3d2+    1 3d0     1 3d2+    1 3d0     1 3d2+    1 3d0     1 3d2+    1 5g0
                                   1 5g4+    1 5g2+    1 5g0     1 5g4+    1 5g2+    1 5g0     1 5g4+    1 5g2+

   1.1  2.00000 -2495.467600     0.000015  0.000042  0.000113  0.000256  0.000525  0.001005  0.001817  0.003226  0.005599  0.009726
                                 0.016850  0.029564  0.051929  0.091008  0.154453  0.238030  0.293139  0.229234  0.078999  0.006480
                                 0.000221  0.000151 -0.000343  0.000244 -0.000132  0.000073  0.000033  0.000000 -0.000005  0.000001
                                -0.000000 -0.000000 -0.000060  0.000002  0.000000 -0.000001  0.000000  0.000004 -0.000003 -0.000012
                                 0.000008  0.000030 -0.000022 -0.000004 -0.000021  0.000162  0.000348  0.000351 -0.000894 -0.001240
                                 0.001232  0.001646 -0.001174 -0.001506  0.000913  0.001183 -0.000668 -0.000955  0.000536  0.001148
                                -0.000664  0.002083 -0.001242 -0.000391  0.000239 -0.000410  0.000258  0.000032 -0.000020 -0.000009
                                 0.000006  0.000004 -0.000002 -0.002565  0.001519  0.000556 -0.000348 -0.000002  0.000001  0.000000
                                 0.000000  0.000000  0.000000  0.000000  0.000000  0.000000  0.000000  0.000000

   2.1  2.00000  -437.505559    -0.000006 -0.000015 -0.000043 -0.000095 -0.000200 -0.000375 -0.000696 -0.001212 -0.002144 -0.003708
                                -0.006539 -0.011577 -0.020791 -0.037825 -0.067832 -0.115596 -0.165802 -0.148316  0.063539  0.425195
                                 0.481983  0.172481  0.014176  0.000251 -0.000051 -0.000279 -0.000855  0.000208  0.000087 -0.000005
                                 0.000004 -0.000002  0.000884 -0.000177  0.000001 -0.000001  0.000001  0.000006 -0.000004 -0.000018
                                 0.000012  0.000041 -0.000031 -0.000054  0.000062  0.000105 -0.000075 -0.000100  0.000054  0.000121
                                 0.000005 -0.000023 -0.000079  0.000042  0.000101 -0.000036 -0.000108  0.000039  0.000114 -0.000088
                                -0.000153 -0.000233 -0.000303  0.000058  0.000060  0.000085  0.000080 -0.000006 -0.000006  0.000002
                                 0.000001  0.000000 -0.000001  0.000267  0.000364 -0.000107 -0.000102 -0.000000  0.000000  0.000000
                                 0.000000  0.000000  0.000000  0.000000  0.000000  0.000000  0.000000  0.000000

   3.1  2.00000  -105.896963     0.000002  0.000008  0.000018  0.000048  0.000090  0.000189  0.000305  0.000609  0.000975  0.001807
                                 0.003057  0.005521  0.010023  0.018034  0.033244  0.056607  0.085274  0.076494 -0.048564 -0.358812
                                -0.535912 -0.064149  0.731455  0.541380  0.073221  0.013371  0.032247 -0.006765 -0.002739  0.000185
                                -0.000108  0.000044 -0.034470  0.005445 -0.000011 -0.000002  0.000003  0.000019 -0.000013 -0.000057
                                 0.000039  0.000136 -0.000097 -0.000155  0.000193  0.000298 -0.000279 -0.000022  0.000249  0.000231
                                -0.000299  0.000526  0.000117  0.000910 -0.000306  0.000481 -0.000030  0.000022 -0.000059  0.000044
                                 0.000028  0.000179 -0.000003 -0.000032  0.000019 -0.000008  0.000030  0.000000 -0.000003  0.000000
                                 0.000001  0.000002 -0.000001 -0.000194  0.000005  0.000019 -0.000033 -0.000002  0.000001  0.000000
                                 0.000000  0.000000  0.000000  0.000000  0.000000  0.000000  0.000000  0.000000

   4.1  2.00000   -70.662923    -0.000001  0.000002 -0.000005  0.000004  0.000001 -0.000004  0.000000  0.000005 -0.000002  0.000000
                                 0.000029 -0.000109  0.000256 -0.000268  0.000458 -0.000428  0.000978 -0.000919  0.001296 -0.002543
                                 0.000512 -0.001455  0.003430 -0.000091 -0.000129  0.000298  0.000866 -0.000182 -0.000066  0.000003
                                -0.000002  0.000000 -0.000921  0.000113 -0.000000 -0.000027 -0.000001 -0.000129 -0.000032 -0.000884
                                -0.000091 -0.003738 -0.000631 -0.014974 -0.002038 -0.045407 -0.006960 -0.113586 -0.016318 -0.219394
                                -0.032623 -0.317202 -0.046233 -0.303288 -0.044706 -0.152910 -0.022139 -0.033738 -0.005082 -0.002020
                                -0.000171  0.000869  0.000314 -0.000233 -0.000062 -0.000193 -0.000051  0.000013  0.000004 -0.000003
                                -0.000001  0.000002  0.000000 -0.001413 -0.000446  0.000269  0.000075 -0.000001 -0.000000  0.000000
                                 0.000000  0.000000  0.000000  0.000000  0.000000  0.000000  0.000000  0.000000

   5.1  2.00000   -70.606769     0.000000 -0.000001  0.000002 -0.000002 -0.000000  0.000002 -0.000001 -0.000002  0.000006  0.000005
                                -0.000026  0.000083 -0.000118  0.000166 -0.000162  0.000303 -0.000296  0.000451 -0.000283 -0.000305
                                -0.000316 -0.000027  0.000706  0.000459 -0.000438  0.000397  0.001319 -0.000246 -0.000110  0.000009
                                -0.000005  0.000001 -0.001376  0.000233 -0.000000 -0.000002  0.000023 -0.000029  0.000152 -0.000096
                                 0.000820 -0.000614  0.003915 -0.002090  0.014765 -0.006790  0.045580 -0.016475  0.113687 -0.032335
[...]
 ==============================

 a a 2           1.0000000

 TOTAL ENERGIES                    -15582.87044853



 **********************************************************************************************************************************
 DATASETS  * FILE   NREC   LENGTH (MB)   RECORD NAMES
              1      23      148.72       500      610      700      900      950      970     1000      129      960     1700
                                          VAR    BASINP    GEOM    SYMINP    ZMAT    AOBASIS   BASIS     P2S    ABASIS    OPER
                                         1101     1401     1411     1412     1650     1100     1400     1410     1200     1210
                                          SR      EKINR    POTR     PVPR    MOLCAS      S      EKIN      POT      H0       H01
                                         1080     1600     1380
                                         AOSYM     SMH     JKOP

              2       5        6.69       700     1000      520     4202     5202
                                         GEOM     BASIS   MCVARS     RHF     MCSCF

 PROGRAMS   *        TOTAL     MULTI       POP       RHF       INT
 CPU TIMES  *       287.26     96.26      0.00     10.65    180.11
 REAL TIME  *       301.72 SEC
 DISK USED  *         4.72 GB
 SF USED    *       496.54 MB
 GA USED    *         0.00 MB       (max)       0.00 MB       (current)
 **********************************************************************************************************************************
   -->
   <time start="06:58:11" end="06:59:54" cpu="96.27" system="5.2" real="103.4"/>
   <storage units="megabyte" memory="24001.84" sf="496.54" df="84.35" eaf="4633.88"
     ga="0.0"/>
  </jobstep><!--
  --><jobstep command="RHF-SCF" commandset="SCFPRO">
   <!--


 PROGRAM * RHF-SCF (OPEN SHELL)       Authors: W. Meyer, H.-J. Werner


 NUMBER OF ELECTRONS:      34+   32-    SPACE SYMMETRY=7    SPIN SYMMETRY: Triplet
 CONVERGENCE THRESHOLDS:    1.00E-05 (Density)    1.32E-07 (Energy)
 MAX. NUMBER OF ITERATIONS:        0
 INTERPOLATION TYPE:            DIIS
 INTERPOLATION STEPS:              2 (START)      1 (STEP)
 LEVEL SHIFTS:                 -0.60 (CLOSED) -0.30 (OPEN)

 Number of closed-shell orbitals:   32 (   9   6   5   2   5   2   2   1 )
 Number of open-shell orbitals:      2 (   0   0   1   0   1   0   0   0 )


 Molecular orbitals read from record     5202.2  Type=MCSCF/NATURAL (state averaged)

 Molecular orbital dump at record        2101.2

 ITERATION    DDIFF          GRAD             ENERGY        2-EL.EN.            DIPOLE MOMENTS         DIIS   ORB.
    1      0.000D+00      0.000D+00    -15582.66553129  10988.930619    0.00000    0.00000    0.00000    0    start

 Final alpha occupancy:   9   6   6   2   6   2   2   1
 Final beta  occupancy:   9   6   5   2   5   2   2   1

 !RHF STATE 1.7 Energy               -15582.6655312886
   --><property name="Energy" method="RHF" principal="true" stateSymmetry="7" stateNumber="1"
     value="-15582.6655312886"/><!--
 Nuclear energy                         0.00000000
 One-electron energy               -21077.13084062
 Two-electron energy                 5494.46530933
 Virial quotient                       -0.71435068
 !RHF STATE 1.7 Dipole moment           0.00000000     0.00000000     0.00000000
 Dipole moment /Debye                   0.00000000     0.00000000     0.00000000
   --><property name="Dipole moment" method="RHF" principal="true" stateSymmetry="7"
     stateNumber="1" value="0.0 0.0 0.0"/><!--

 Orbital energies:

         1.1          2.1          3.1          4.1          5.1          6.1          7.1          8.1          9.1         10.1
  -2495.467600  -437.505559  -105.896963   -70.662923   -70.606769   -26.204587   -13.699955   -13.612082    -3.585381    -6.260513

        11.1
     -3.017417

         1.2          2.2          3.2          4.2          5.2          6.2          7.2          8.2
   -384.806507   -89.846298   -20.794628    -5.837686    -5.736129    -5.099968    -2.044174    -1.600069

         1.3          2.3          3.3          4.3          5.3          6.3          7.3          8.3
   -384.812056   -89.872005   -20.818025    -5.736129    -5.295609    -5.350261    -2.021970    -1.586559

         1.4          2.4          3.4          4.4
    -70.597287   -13.681569    -2.951434    -1.506330

         1.5          2.5          3.5          4.5          5.5          6.5          7.5          8.5
   -384.838027   -89.965711   -20.918017    -5.783408    -5.357439    -5.362388    -2.059522    -1.593071

         1.6          2.6          3.6          4.6
    -70.652389   -13.744021    -3.011569    -1.523422

         1.7          2.7          3.7          4.7
    -70.651010   -13.714401    -2.985264    -1.512607

         1.8          2.8          3.8
     -5.788728    -1.583348    -1.001966

 HOMO      9.1    -3.585381 =     -97.5632eV
 LUMO     10.1    -6.260513 =    -170.3572eV
 LUMO-HOMO        -2.675131 =     -72.7940eV


 **********************************************************************************************************************************
 DATASETS  * FILE   NREC   LENGTH (MB)   RECORD NAMES
              1      23      148.72       500      610      700      900      950      970     1000      129      960     1700
                                          VAR    BASINP    GEOM    SYMINP    ZMAT    AOBASIS   BASIS     P2S    ABASIS    OPER
                                         1101     1401     1411     1412     1650     1100     1400     1410     1200     1210
                                          SR      EKINR    POTR     PVPR    MOLCAS      S      EKIN      POT      H0       H01
                                         1080     1600     1380
                                         AOSYM     SMH     JKOP

              2       6       10.15       700     1000      520     4202     5202     2101
                                         GEOM     BASIS   MCVARS     RHF     MCSCF     RHF

 PROGRAMS   *        TOTAL       RHF     MULTI       POP       RHF       INT
 CPU TIMES  *       287.57      0.30     96.26      0.00     10.65    180.11
 REAL TIME  *       302.05 SEC
 DISK USED  *         4.72 GB
 SF USED    *       496.54 MB
 GA USED    *         0.00 MB       (max)       0.00 MB       (current)
 **********************************************************************************************************************************
   -->
   <time start="06:59:54" end="06:59:55" cpu="0.31" system="0.03" real="0.33"/>
   <storage units="megabyte" memory="24001.84" sf="496.54" df="84.35" eaf="4633.88"
     ga="0.0"/>
  </jobstep><!--
 SETTING SCF(I)         =    -15582.66553129  AU
 SETTING _CC_NORM_MAX   =         2.00000000
  --><jobstep command="RCCSD(T)" commandset="CCSD">
   <!--


 PROGRAM * CCSD (Restricted open-shell coupled cluster)     Authors: C. Hampel, H.-J. Werner, 1991, M. Deegan, P.J. Knowles, 1992


 Convergence thresholds:  THRVAR = 1.00D-08  THRDEN = 1.32D-06

 CCSD(T)     terms to be evaluated (factor= 1.000)


 Number of core orbitals:          30 (   8   5   5   2   5   2   2   1 )
 Number of closed-shell orbitals:   2 (   1   1   0   0   0   0   0   0 )
 Number of active  orbitals:        2 (   0   0   1   0   1   0   0   0 )
 Number of external orbitals:     336 (  79  55  55  26  55  26  26  14 )

 Memory could be reduced to 54.06 Mwords without degradation in triples

 Number of N-1 electron functions:               6
 Number of N-2 electron functions:              15
 Number of singly external CSFs:               380
 Number of doubly external CSFs:            173494
 Total number of CSFs:                      173874

 Molecular orbitals read from record     2101.2  Type=RHF/CANONICAL (state 1.7)

 Integral transformation finished. Total CPU:   1.56 sec, npass=  1  Memory used:   8.18 MW

 Starting RMP2 calculation

 Wavefunction is spin-projected

 ITER.      SQ.NORM     CORR.ENERGY   TOTAL ENERGY   ENERGY CHANGE        DEN1      VAR(S)    VAR(P)  DIIS     TIME
   1      1.21840622     0.02953361-15582.63599768     0.02953361    -0.00549246  0.33D-03  0.32D-01  1  1     1.85
   2      1.40815744     0.02409382-15582.64143747    -0.00543980    -0.00758250  0.49D-05  0.51D-01  2  2     1.86
   3      1.18055137     0.03079247-15582.63473881     0.00669866    -0.00341525  0.22D-04  0.28D-01  3  3     2.00
   4      1.22314765     0.04067626-15582.62485502     0.00988379    -0.00139033  0.90D-05  0.94D-02  4  4     2.00
   5      1.23893536     0.04033571-15582.62519558    -0.00034055    -0.00172347  0.37D-05  0.12D-01  5  5     2.02
   6      1.35679350     0.04577873-15582.61975256     0.00544301    -0.00037081  0.70D-05  0.21D-02  6  6     2.03
   7      1.37369833     0.04585218-15582.61967911     0.00007345    -0.00042641  0.35D-06  0.24D-02  6  1     2.04
   8      1.38731224     0.04659084-15582.61894045     0.00073866    -0.00029082  0.35D-06  0.15D-02  6  3     2.19
   9      1.41167526     0.04709960-15582.61843169     0.00050876    -0.00024988  0.14D-06  0.12D-02  6  4     2.25
  10      1.42849323     0.04715008-15582.61838121     0.00005049    -0.00024962  0.14D-06  0.13D-02  6  2     2.27
  11      1.42925680     0.04694862-15582.61858266    -0.00020146    -0.00025332  0.12D-07  0.13D-02  6  6     2.28
  12      1.44061540     0.04733123-15582.61820006     0.00038261    -0.00024773  0.40D-07  0.13D-02  6  5     2.29
  13      1.44594955     0.04737583-15582.61815546     0.00004459    -0.00024756  0.98D-08  0.13D-02  6  1     2.30
  14      1.44784210     0.04735140-15582.61817988    -0.00002442    -0.00024773  0.14D-09  0.13D-02  6  3     2.31
  15      1.45387807     0.04740364-15582.61812765     0.00005224    -0.00024650  0.38D-08  0.13D-02  6  6     2.33
  16      1.45705066     0.04741199-15582.61811930     0.00000835    -0.00024636  0.75D-09  0.13D-02  6  5     2.35
  17      1.45259244     0.04727835-15582.61825294    -0.00013364    -0.00024801  0.37D-08  0.13D-02  6  4     2.36
  18      1.46148721     0.04750006-15582.61803123     0.00022171    -0.00025097  0.32D-08  0.13D-02  6  2     2.37
  19      1.45974864     0.04747577-15582.61805552    -0.00002429    -0.00023850  0.83D-09  0.12D-02  6  3     2.41
  20      1.47622360     0.04756216-15582.61796913     0.00008639    -0.00024161  0.81D-10  0.12D-02  6  1     2.43
  21      1.46674916     0.04751223-15582.61801905    -0.00004992    -0.00023886  0.17D-08  0.12D-02  6  6     2.45
  22      1.47142745     0.04752891-15582.61800238     0.00001668    -0.00023886  0.15D-10  0.12D-02  6  5     2.46
  23      1.46894444     0.04752150-15582.61800979    -0.00000741    -0.00023793  0.51D-09  0.12D-02  6  3     2.47
  24      1.44896954     0.04712486-15582.61840643    -0.00039664    -0.00022826  0.17D-08  0.12D-02  6  1     2.48
  25      1.43136290     0.04666495-15582.61886633    -0.00045990    -0.00021914  0.18D-09  0.11D-02  6  5     2.50
  26      1.42644934     0.04622362-15582.61930767    -0.00044133    -0.00021131  0.20D-09  0.11D-02  6  1     2.51
  27      1.52682375     0.04477451-15582.62075678    -0.00144911    -0.00017066  0.49D-08  0.87D-03  6  2     2.52
  28      1.73766955     0.04319152-15582.62233977    -0.00158299    -0.00015545  0.42D-08  0.88D-03  6  4     2.54
  29      1.74327351     0.04311691-15582.62241438    -0.00007461    -0.00015971  0.19D-08  0.90D-03  6  6     2.55

 Norm of t1 vector:      0.26121637      S-energy:     0.14196937      T1 diagnostic:  0.07536632
 Norm of t2 vector:      0.82160789      P-energy:    -0.09885246
                                         Alpha-Beta:  -0.07700971
                                         Alpha-Alpha: -0.01564748
                                         Beta-Beta:   -0.00619527

 Singles amplitudes (print threshold =  0.500E-01):

         I         SYM. A    A   T(IA) [Alpha-Alpha]

         1         1         1     -0.17401344

         I         SYM. A    A   T(IA) [Beta-Beta]

         1         1         1     -0.17325379

 ?CONVERGENCE NOT REACHED AFTER MAX. ITERATIONS

 Spin contamination <S**2-Sz**2-Sz>     0.00000000
  Reference energy                   -15582.6655312886
   --><property name="energy" method="Reference" stateSymmetry="1" stateNumber="1"
     value="-15582.6655312886"/><!--
  RHF-RMP2 correlation energy           0.043116908206
   --><property name="energy" method="RHF-RMP2 correlation" stateSymmetry="1" stateNumber="1"
     value="0.43116908206484E-01"/><!--
 !RHF-RMP2 energy                    -15582.6224143804
   --><property name="energy" method="RHF-RMP2" principal="true" stateSymmetry="7"
     stateNumber="1" value="-15582.6224143804"/><!--
 (NB above energy spin projected)

 Starting RCCSD calculation

 ITER.      SQ.NORM     CORR.ENERGY   TOTAL ENERGY   ENERGY CHANGE        DEN1      VAR(S)    VAR(P)  DIIS     TIME
   1      3.23353469    -0.08043570-15582.74596699    -0.08043570    -0.27521915  0.78D-02  0.18D+01  1  1     3.87
   2    144.28833062    -0.31363885-15582.97917013    -0.23320315   -17.07293013  0.51D-01  0.11D+03  1  0     5.17

 UNREASONABLE NORM:144.288331 CALCULATION WILL BE STOPPED

 The threshold can be changed using option CC_NORM_MAX (see manual). The current value is CC_NORM_MAX=2.00

 Norm of t1 vector:      0.34660563      S-energy:     0.10927789      T1 diagnostic:  0.09978056
                                                                       D1 diagnostic:  0.24170592
 Norm of t2 vector:     11.96529127      P-energy:    -0.42291674
                                         Alpha-Beta:  -0.39593124
                                         Alpha-Alpha: -0.01803043
                                         Beta-Beta:   -0.00895506

 Singles amplitudes (print threshold =  0.500E-01):

         I         SYM. A    A   T(IA) [Alpha-Alpha]

         1         1         1     -0.14278218
         1         1         2     -0.11723585
         1         1         9      0.05721528
         1         1        10     -0.08358724
         1         1        11      0.12230213

         I         SYM. A    A   T(IA) [Beta-Beta]

         1         1         1     -0.13940952
         1         1         2     -0.08225790
         1         1         9      0.05803830
         1         1        10     -0.08420917
         1         1        11      0.12338407

 Doubles amplitudes (print threshold =  0.500E-01):

         I         J         SYM. A    SYM. B    A         B      T(IJ, AB) [Alpha-Alpha]

         2         1         1         2         1         3     -0.08111330
         2         1         2         1         3         1      0.08111330

         I         J         SYM. A    SYM. B    A         B      T(IJ, AB) [Beta-Beta]

         2         1         1         2         1         3     -0.08111330
         2         1         2         1         3         1      0.08111330

         I         J         SYM. A    SYM. B    A         B      T(IJ, AB) [Alpha-Beta]

         1         1         1         1         1         4      0.07797936
         1         1         1         1         1         6      0.44215308
         1         1         1         1         1         7      1.57024250
         1         1         1         1         1         8     -0.24422414
         1         1         1         1         1         9      3.23171551
         1         1         1         1         1        10     -4.51045370
         1         1         1         1         1        11      6.09774655
         1         1         1         1         1        12     -1.05653846
         1         1         1         1         1        13     -0.06980443
         1         1         1         1         1        15     -0.10153136
         1         1         1         1         1        18     -0.08668223
         1         1         1         1         1        19      0.05847708
         1         1         1         1         1        20     -0.08716141
         1         1         1         1         1        21      0.14246477
         1         1         1         1         2         2     -0.06644189
         1         1         1         1         4         1      0.07797936
         1         1         1         1         6         1      0.44215308
         1         1         1         1         7         1      1.57024250
         1         1         1         1         8         1     -0.24422414
         1         1         1         1         9         1      3.23171551
         1         1         1         1        10         1     -4.51045370
         1         1         1         1        11         1      6.09774655
         1         1         1         1        12         1     -1.05653846
         1         1         1         1        13         1     -0.06980443
         1         1         1         1        15         1     -0.10153136
         1         1         1         1        18         1     -0.08668223
         1         1         1         1        19         1      0.05847708
         1         1         1         1        20         1     -0.08716141
         1         1         1         1        21         1      0.14246477
         1         1         6         6         1         1     -0.06549385
         1         1         7         7         1         1     -0.05095458
         2         2         1         1         1         1      0.05343677
         2         2         1         1         1         2     -0.18676849
         2         2         1         1         2         1     -0.18676849
         2         1         1         2         1         3     -0.15630884
         2         1         2         1         3         1     -0.07519554
         1         2         1         2         1         3     -0.07519554
         1         2         2         1         3         1     -0.15630884

 ?ERROR: NO CONVERGENCE. TRIPLES WILL NOT BE DONE. THIS CAN BE AVOIDED USING THE NOCHECK OPTION.

 Spin contamination <S**2-Sz**2-Sz>     0.00000000


  Correlated core orbitals:             9.1       6.2       6.3       6.5
  Orbital energies:                    -3.6846   -5.4310   -6.4051   -6.3972

  RCCSD core-core energy               -0.313638845809
   --><property name="core-core energy" method="RCCSD" stateSymmetry="7" stateNumber="1"
     value="-0.313638845808723"/><!--


 RESULTS
 =======

  Reference energy                   -15582.6655312886
   --><property name="energy" method="Reference" stateSymmetry="1" stateNumber="1"
     value="-15582.6655312886"/><!--
  RCCSD singles energy                  0.109277890889
   --><property name="energy" method="RCCSD singles" stateSymmetry="1" stateNumber="1"
     value="0.109277890888731"/><!--
  RCCSD pair energy                    -0.422916736697
   --><property name="energy" method="RCCSD pair" stateSymmetry="1" stateNumber="1"
     value="-0.422916736697453"/><!--
  RCCSD correlation energy             -0.313638845809
   --><property name="energy" method="RCCSD correlation" stateSymmetry="1" stateNumber="1"
     value="-0.313638845808723"/><!--

 !RHF-RCCSD energy                   -15582.9791701344
   --><property name="energy" method="RHF-RCCSD" principal="true" stateSymmetry="1"
     stateNumber="1" value="-15582.9791701344"/><!--

 Program statistics:

 Available memory in ccsd:              2999999732
 Min. memory needed in ccsd:               1018852
 Max. memory used in ccsd:                 1165778
 Max. memory used in cckext:               1522489 ( 2 integral passes)
 Max. memory used in cckint:               8180427 ( 1 integral passes)


 ? Error
 ? No convergence. This error exit can be avoided using the NOCHECK option
 ? The problem occurs in ccsd
   --><error type="Error" location="ccsd"
     message="No convergence. This error exit can be avoided using the NOCHECK option"/><!--
  --></jobstep><!--
  -->
  <input>
  <!--
 --></job><!--
--></molpro>
