<?xml version="1.0"?>
<molpro xmlns="http://www.molpro.net/schema/molpro-output"
  xmlns:xsd="http://www.w3.org/1999/XMLSchema"
  xmlns:cml="http://www.xml-cml.org/schema"
  xmlns:stm="http://www.xml-cml.org/schema"
  xmlns:xhtml="http://www.w3.org/1999/xhtml">
 <!--

 Primary working directories    : /global/cscratch1/sd/haihan
 Secondary working directories  : /global/cscratch1/sd/haihan
 Wavefunction directory         : /global/homes/h/haihan/wfu/
 Main file repository           : /global/cscratch1/sd/haihan/

 SHA1      : 19cd028119e0e09f93f0674bd8af7968d9b3eff6
 NAME      : 2015.1.36
 ARCHNAME  : linux/x86_64
 FC        : /opt/cray/pe/craype/2.5.14/bin/ftn
 BLASLIB   : -L/opt/intel/compilers_and_libraries_2018.1.163/linux/mkl/lib/intel64 -Wl,-_start-group -lmkl_intel_ilp64 -lmkl_intel_thread -lmkl_core -Wl,-_end-group -liomp5
 id        : lbl

 Nodes     nprocs
 nid00760     3
 Number of processes for MPI-2 version of Molpro:   nprocs(total)=    4   nprocs(compute)=    3   nprocs(helper)=    1

 Using customized tuning parameters: mindgm=7; mindgv=16; mindgc=1; mindgr=1; noblas=0; minvec=7
 default implementation of scratch files=sf  

 --><job>
  <!--
 ***,Calculation for Nb atom, singlet and triplet
 memory,3,g
 
 gthresh,twoint=1.e-15
 gthresh,oneint=1.e-15
 
 set,dkroll=1,dkho=10,dkhp=4
 
 geometry={
 1
 Ta
 Ta  0.0 0.0 0.0
 }
 
 basis={
 Including file /global/u2/h/haihan/Research/ECP/f_group_element_ecps/Ta/Molpro/atom/UC/test_13/../aug-cc-pwCVTZ.basis
 }
 
 
 {rhf
  start,atden
  print,orbitals=2
  wf,66,4,2
  occ,9,6,6,2,6,2,2,1
  closed,9,5,5,2,6,2,2,1
  orbital,4202.2
 }
 pop
 {multi
  start,4202.2
  occ,9,6,6,2,6,2,2,1
  closed,9,5,5,2,5,2,2,1
  wf,66,7,2;state,1
  wf,66,6,2;state,1
  wf,66,4,2;state,1
  natorb,ci,print
  orbital,5202.2
 }
 {rhf,nitord=1,maxit=0
  start,5202.2
  wf,66,4,2
  occ,9,6,6,2,6,2,2,1
  closed,9,5,5,2,6,2,2,1
 }
 scf(i)=energy
 _CC_NORM_MAX=2.0
 {rccsd(t),maxit=100;core,8,5,5,2,5,2,2,1}
 ccsd(i)=energy
 
 table,scf,ccsd
 type,csv
 save

 Variables initialized (889), CPU time= 0.00 sec
 Commands  initialized (702), CPU time= 0.01 sec, 572 directives.
 Default parameters read. Elapsed time= 0.13 sec

 Checking input...
 Passed
1


                                         ***  PROGRAM SYSTEM MOLPRO  ***
                                       Copyright, TTI GmbH Stuttgart, 2015
                                    Version 2015.1 linked Dec 29 2018 15:55:43


 **********************************************************************************************************************************
 LABEL *   Calculation for Nb atom, singlet and triplet                                  
  64 bit mpp version                                                                     DATE: 10-Oct-22          TIME: 08:04:46  
 **********************************************************************************************************************************

 SHA1:             19cd028119e0e09f93f0674bd8af7968d9b3eff6
 **********************************************************************************************************************************
  -->
  <!--

 THRESHOLDS:

 ZERO    =  1.00D-12  ONEINT  =  1.00D-12  TWOINT  =  1.00D-15  PREFAC  =  1.00D-14  LOCALI  =  1.00D-09  EORDER  =  1.00D-04
 ENERGY  =  0.00D+00  ETEST   =  0.00D+00  EDENS   =  0.00D+00  THRDEDEF=  1.00D-06  GRADIENT=  1.00D-02  STEP    =  1.00D-03
 ORBITAL =  1.00D-05  CIVEC   =  1.00D-05  COEFF   =  1.00D-04  PRINTCI =  5.00D-02  PUNCHCI =  9.90D+01  OPTGRAD =  3.00D-04
 OPTENERG=  1.00D-06  OPTSTEP =  3.00D-04  THRGRAD =  1.00D-10  COMPRESS=  1.00D-11  VARMIN  =  1.00D-07  VARMAX  =  1.00D-03
 THRDOUB =  0.00D+00  THRDIV  =  1.00D-05  THRRED  =  1.00D-07  THRPSP  =  1.00D+00  THRDC   =  1.00D-10  THRCS   =  1.00D-10
 THRNRM  =  1.00D-08  THREQ   =  0.00D+00  THRDE   =  1.00D+00  THRREF  =  1.00D-05  SPARFAC =  1.00D+00  THRDLP  =  1.00D-07
 THRDIA  =  1.00D-10  THRDLS  =  1.00D-07  THRGPS  =  0.00D+00  THRKEX  =  0.00D+00  THRDIS  =  2.00D-01  THRVAR  =  1.00D-10
 THRLOC  =  1.00D-06  THRGAP  =  1.00D-06  THRLOCT = -1.00D+00  THRGAPT = -1.00D+00  THRORB  =  1.00D-06  THRMLTP =  0.00D+00
 THRCPQCI=  1.00D-10  KEXTA   =  0.00D+00  THRCOARS=  0.00D+00  SYMTOL  =  1.00D-06  GRADTOL =  1.00D-06  THROVL  =  1.00D-08
 THRORTH =  1.00D-08  GRID    =  1.00D-06  GRIDMAX =  1.00D-03  DTMAX   =  0.00D+00  THROCCDE=  1.00D-01  THROCCDE=  1.00D-01



 THRESHOLDS:

 ZERO    =  1.00D-12  ONEINT  =  1.00D-15  TWOINT  =  1.00D-15  PREFAC  =  1.00D-14  LOCALI  =  1.00D-09  EORDER  =  1.00D-04
 ENERGY  =  0.00D+00  ETEST   =  0.00D+00  EDENS   =  0.00D+00  THRDEDEF=  1.00D-06  GRADIENT=  1.00D-02  STEP    =  1.00D-03
 ORBITAL =  1.00D-05  CIVEC   =  1.00D-05  COEFF   =  1.00D-04  PRINTCI =  5.00D-02  PUNCHCI =  9.90D+01  OPTGRAD =  3.00D-04
 OPTENERG=  1.00D-06  OPTSTEP =  3.00D-04  THRGRAD =  1.00D-10  COMPRESS=  1.00D-11  VARMIN  =  1.00D-07  VARMAX  =  1.00D-03
 THRDOUB =  0.00D+00  THRDIV  =  1.00D-05  THRRED  =  1.00D-07  THRPSP  =  1.00D+00  THRDC   =  1.00D-10  THRCS   =  1.00D-10
 THRNRM  =  1.00D-08  THREQ   =  0.00D+00  THRDE   =  1.00D+00  THRREF  =  1.00D-05  SPARFAC =  1.00D+00  THRDLP  =  1.00D-07
 THRDIA  =  1.00D-10  THRDLS  =  1.00D-07  THRGPS  =  0.00D+00  THRKEX  =  0.00D+00  THRDIS  =  2.00D-01  THRVAR  =  1.00D-10
 THRLOC  =  1.00D-06  THRGAP  =  1.00D-06  THRLOCT = -1.00D+00  THRGAPT = -1.00D+00  THRORB  =  1.00D-06  THRMLTP =  0.00D+00
 THRCPQCI=  1.00D-10  KEXTA   =  0.00D+00  THRCOARS=  0.00D+00  SYMTOL  =  1.00D-06  GRADTOL =  1.00D-06  THROVL  =  1.00D-08
 THRORTH =  1.00D-08  GRID    =  1.00D-06  GRIDMAX =  1.00D-03  DTMAX   =  0.00D+00  THROCCDE=  1.00D-01  THROCCDE=  1.00D-01


 SETTING DKROLL         =         1.00000000                                  
 SETTING DKHO           =        10.00000000                                  
 SETTING DKHP           =         4.00000000                                  

Geometry recognized as XYZ


 Variable memory set to 3000000000 words,  buffer space   230000 words

 SETTING BASIS          =    USERDEF
  --><jobstep command="RHF-SCF" commandset="SCFPRO">
   <!--


 Recomputing integrals since basis changed


 Using spherical harmonics



 PROGRAM * SEWARD (Integral evaluation for generally contracted gaussian basis sets)     Author: Roland Lindh, 1990

 Geometry written to block  1 of record 700

 Orientation using atomic masses  
 Molecule type: Atom
 Symmetry elements: X,Y,Z
 Rotational constants:       0.0000000      0.0000000      0.0000000 GHz  (calculated with average atomic masses)

 Point group  D2h 


   --><cml:molecule>
    <cml:symmetry pointGroup="D2h"/>
    <cml:atomArray>
     <cml:atom id="a1" elementType="Ta" x3="0.0" y3="0.0" z3="0.0"/>
    </cml:atomArray>
    <cml:bondArray>
    </cml:bondArray>
   </cml:molecule><!--

 ATOMIC COORDINATES

 NR  ATOM    CHARGE       X              Y              Z

   1  TA     73.00    0.000000000    0.000000000    0.000000000

 NUCLEAR CHARGE:                   73
 NUMBER OF PRIMITIVE AOS:         455
 NUMBER OF SYMMETRY AOS:          370
 NUMBER OF CONTRACTIONS:          370   (  88Ag  +  61B3u +  61B2u +  28B1g +  61B1u +  28B2g +  28B3g +  15Au  )
 NUMBER OF CORE ORBITALS:          34   (   9Ag  +   6B3u +   6B2u +   2B1g +   6B1u +   2B2g +   2B3g +   1Au  )
 NUMBER OF VALENCE ORBITALS:        6   (   3Ag  +   0B3u +   0B2u +   1B1g +   0B1u +   1B2g +   1B3g +   0Au  )


 NUCLEAR REPULSION ENERGY    0.00000000

 One-electron integrals computed with SEWARD

 10nd-order Douglas-Kroll-Hess method activated. McWeeny DKH parametrization is used.

 Computing Douglas-Kroll / X2C integrals

 AO integral compression algorithm  1   Integral accuracy      1.0D-15

     2357.461 MB (compressed) written to integral file ( 47.5%)

     Node minimum: 618.922 MB, node maximum: 1045.955 MB


 NUMBER OF SORTED TWO-ELECTRON INTEGRALS:  101359485.     BUFFER LENGTH:  32768
 NUMBER OF SEGMENTS:   4  SEGMENT LENGTH:   31999029      RECORD LENGTH: 524288

 Memory used in sort:      32.56 MW

 SORT1 READ   620842336. AND WROTE    63934281. INTEGRALS IN    185 RECORDS. CPU TIME:    11.54 SEC, REAL TIME:    13.65 SEC
 SORT2 READ   190733767. AND WROTE   304061875. INTEGRALS IN  11970 RECORDS. CPU TIME:     1.76 SEC, REAL TIME:     2.61 SEC

 Node minimum:   101278730.  Node maximum:   101423660. integrals

 OPERATOR DM      FOR CENTER  0  COORDINATES:    0.000000    0.000000    0.000000

 EXTRA SYMMETRY OF AOS IN SYMMETRY 1:   1 1 1 1 1 1 1 1 1 1   1 1 1 1 1 1 1 1 1 1   1 1 1 1 1 1 1 1 1 1   1 1 1 1 1 1 1 1 1 1
                                        1 1 1 1 1 1 1 1 1 1   1 1 1 1 1 1 1 1 1 1   1 1 1 1 1 1 1 1 1 1   1 1 1 1 1 1 1 1 1 2
                                        3 4 2 3 4 2 3 4
 EXTRA SYMMETRY OF AOS IN SYMMETRY 2:   1 1 1 1 1 1 1 1 1 1   1 1 1 1 1 1 1 1 1 1   1 1 1 1 1 1 1 1 1 1   1 2 3 2 3 2 3 2 3 2
                                        3 2 3 2 3 2 3 2 3 2   3 2 3 2 3 2 3 2 3 2   3
 EXTRA SYMMETRY OF AOS IN SYMMETRY 3:   1 1 1 1 1 1 1 1 1 1   1 1 1 1 1 1 1 1 1 1   1 1 1 1 1 1 1 1 1 1   1 2 3 2 3 2 3 2 3 2
                                        3 2 3 2 3 2 3 2 3 2   3 2 3 2 3 2 3 2 3 2   3
 EXTRA SYMMETRY OF AOS IN SYMMETRY 4:   1 1 1 1 1 1 1 1 1 1   1 1 1 1 1 1 1 1 1 1   1 1 2 3 2 3 2 3
 EXTRA SYMMETRY OF AOS IN SYMMETRY 5:   1 1 1 1 1 1 1 1 1 1   1 1 1 1 1 1 1 1 1 1   1 1 1 1 1 1 1 1 1 1   1 2 3 2 3 2 3 2 3 2
                                        3 2 3 2 3 2 3 2 3 2   3 2 3 2 3 2 3 2 3 2   3
 EXTRA SYMMETRY OF AOS IN SYMMETRY 6:   1 1 1 1 1 1 1 1 1 1   1 1 1 1 1 1 1 1 1 1   1 1 2 3 2 3 2 3
 EXTRA SYMMETRY OF AOS IN SYMMETRY 7:   1 1 1 1 1 1 1 1 1 1   1 1 1 1 1 1 1 1 1 1   1 1 2 3 2 3 2 3

 Eigenvalues of metric

         1 0.694E-06 0.139E-04 0.139E-04 0.237E-04 0.481E-04 0.143E-03 0.143E-03 0.146E-03
         2 0.469E-06 0.114E-04 0.100E-03 0.100E-03 0.132E-03 0.442E-03 0.112E-02 0.146E-02
         3 0.469E-06 0.114E-04 0.100E-03 0.100E-03 0.132E-03 0.442E-03 0.112E-02 0.146E-02
         4 0.139E-04 0.143E-03 0.607E-03 0.227E-02 0.654E-02 0.151E-01 0.281E-01 0.503E-01
         5 0.469E-06 0.114E-04 0.100E-03 0.100E-03 0.132E-03 0.442E-03 0.112E-02 0.146E-02
         6 0.139E-04 0.143E-03 0.607E-03 0.227E-02 0.654E-02 0.151E-01 0.281E-01 0.503E-01
         7 0.139E-04 0.143E-03 0.607E-03 0.227E-02 0.654E-02 0.151E-01 0.281E-01 0.503E-01
         8 0.100E-03 0.146E-02 0.736E-02 0.189E-01 0.417E-01 0.101E+00 0.199E+00 0.345E+00


 **********************************************************************************************************************************
 DATASETS  * FILE   NREC   LENGTH (MB)   RECORD NAMES
              1      22       21.46       500      610      700      900      950      970     1000      129      960     1700   
                                          VAR    BASINP    GEOM    SYMINP    ZMAT    AOBASIS   BASIS     P2S    ABASIS    OPER   
                                         1101     1401     1411     1412     1650     1100     1400     1410     1200     1210   
                                          SR      EKINR    POTR     PVPR    MOLCAS      S      EKIN      POT      H0       H01  
                                         1080     1600   
                                         AOSYM     SMH  

 PROGRAMS   *        TOTAL       INT
 CPU TIMES  *       182.36    182.23
 REAL TIME  *       188.62 SEC
 DISK USED  *         4.63 GB      
 GA USED    *         0.00 MB       (max)       0.00 MB       (current)
 **********************************************************************************************************************************


 PROGRAM * RHF-SCF (OPEN SHELL)       Authors: W. Meyer, H.-J. Werner


 NUMBER OF ELECTRONS:      34+   32-    SPACE SYMMETRY=4    SPIN SYMMETRY: Triplet 
 CONVERGENCE THRESHOLDS:    1.00E-05 (Density)    1.46E-07 (Energy)
 MAX. NUMBER OF ITERATIONS:       60
 INTERPOLATION TYPE:            DIIS
 INTERPOLATION STEPS:              2 (START)      1 (STEP)
 LEVEL SHIFTS:                 -0.60 (CLOSED) -0.30 (OPEN) 

 Number of closed-shell orbitals:   32 (   9   5   5   2   6   2   2   1 )
 Number of open-shell orbitals:      2 (   0   1   1   0   0   0   0   0 )


 Orbital guess generated from atomic densities. Full valence occupancy:   12   6   6   3   6   3   3   1


 Molecular orbital dump at record        4202.2

 ITERATION    DDIFF          GRAD             ENERGY        2-EL.EN.            DIPOLE MOMENTS         DIIS   ORB.
    1      0.000D+00      0.000D+00    -15587.36639003  10828.358080    0.00000    0.00000    0.00000    0    start
    2      0.000D+00      0.787D-01    -15588.92357376  11209.039616    0.00000    0.00000    0.00000    1    diag,B
    3      0.266D-01      0.703D-01    -15589.62873998  11079.430059    0.00000    0.00000    0.00000    2    diag,B
    4      0.827D-02      0.649D-02    -15589.64239525  11067.577309    0.00000    0.00000    0.00000    3    diag,B
    5      0.666D-02      0.957D-03    -15589.64324242  11068.984104    0.00000    0.00000    0.00000    4    diag,B
    6      0.247D-02      0.212D-03    -15589.64345374  11069.251764    0.00000    0.00000    0.00000    5    diag,B
    7      0.528D-03      0.125D-03    -15589.64366034  11069.277224    0.00000    0.00000    0.00000    6    fixocc
    8      0.113D-03      0.867D-04    -15589.64386005  11069.314261    0.00000    0.00000    0.00000    7    diag,B
    9      0.126D-03      0.280D-04    -15589.64386396  11069.261233    0.00000    0.00000    0.00000    8    diag,B
   10      0.147D-04      0.158D-04    -15589.64386568  11069.263188    0.00000    0.00000    0.00000    9    orth
   11      0.218D-05      0.161D-04    -15589.64384663  11069.260298    0.00000    0.00000    0.00000    9    diag,B
   12      0.249D-04      0.118D-04    -15589.64382598  11069.262077    0.00000    0.00000    0.00000    9    diag,B
   13      0.623D-04      0.358D-05    -15589.64382598  11069.262329    0.00000    0.00000    0.00000    9    diag,B
   14      0.523D-07      0.355D-05    -15589.64382600  11069.264013    0.00000    0.00000    0.00000    0    orth

 Final alpha occupancy:   9   6   6   2   6   2   2   1
 Final beta  occupancy:   9   5   5   2   6   2   2   1

 !RHF STATE 1.4 Energy               -15589.6438260021    
   --><property name="Energy" method="RHF" principal="true" stateSymmetry="4" stateNumber="1"
     value="-15589.6438260021"/><!--
 Nuclear energy                         0.00000000
 One-electron energy               -21124.27583246
 Two-electron energy                 5534.63200646
 Virial quotient                       -0.71363488
 !RHF STATE 1.4 Dipole moment           0.00000000     0.00000000     0.00000000
 Dipole moment /Debye                   0.00000000     0.00000000     0.00000000
   --><property name="Dipole moment" method="RHF" principal="true" stateSymmetry="4"
     stateNumber="1" value="0.0 0.0 0.0"/><!--

 ELECTRON ORBITALS
 =================


   Orb  Occ    Energy  Couls-En    Coefficients

                                   1 1s      1 1s      1 1s      1 1s      1 1s      1 1s      1 1s      1 1s      1 1s      1 1s   
                                   1 1s      1 1s      1 1s      1 1s      1 1s      1 1s      1 1s      1 1s      1 1s      1 1s   
                                   1 1s      1 1s      1 1s      1 1s      1 1s      1 1s      1 1s      1 1s      1 1s      1 1s   
                                   1 1s      1 1s      1 1s      1 1s      1 1s      1 3d0     1 3d2+    1 3d0     1 3d2+    1 3d0  
                                   1 3d2+    1 3d0     1 3d2+    1 3d0     1 3d2+    1 3d0     1 3d2+    1 3d0     1 3d2+    1 3d0  
                                   1 3d2+    1 3d0     1 3d2+    1 3d0     1 3d2+    1 3d0     1 3d2+    1 3d0     1 3d2+    1 3d0  
                                   1 3d2+    1 3d0     1 3d2+    1 3d0     1 3d2+    1 3d0     1 3d2+    1 3d0     1 3d2+    1 3d0  
                                   1 3d2+    1 3d0     1 3d2+    1 3d0     1 3d2+    1 3d0     1 3d2+    1 3d0     1 3d2+    1 5g0  
                                   1 5g4+    1 5g2+    1 5g0     1 5g4+    1 5g2+    1 5g0     1 5g4+    1 5g2+ 

   1.1   2 -2495.2295-5381.2502  0.000015  0.000042  0.000113  0.000255  0.000526  0.001001  0.001823  0.003218  0.005605  0.009712
                                 0.016883  0.029528  0.051948  0.091003  0.154441  0.238050  0.293118  0.229228  0.079048  0.006388
                                 0.000439 -0.000227  0.000083 -0.000084  0.000066 -0.000066 -0.000195  0.000038  0.000015 -0.000001
                                 0.000001 -0.000000  0.000213 -0.000030  0.000000  0.000000  0.000000  0.000000 -0.000000  0.000000
                                 0.000000  0.000000  0.000000  0.000000  0.000000  0.000000  0.000000  0.000000 -0.000000  0.000000
                                 0.000000 -0.000000 -0.000000 -0.000000  0.000000  0.000000 -0.000000  0.000000  0.000000 -0.000000
                                -0.000000 -0.000000 -0.000000  0.000000  0.000000  0.000000  0.000000 -0.000000 -0.000000  0.000000
                                 0.000000 -0.000000 -0.000000  0.000000  0.000000 -0.000000 -0.000000  0.000000  0.000000  0.000000
                                -0.000000 -0.000000 -0.000000  0.000000  0.000000  0.000000 -0.000000 -0.000000

   2.1   2  -437.3697-1170.1834 -0.000006 -0.000016 -0.000043 -0.000096 -0.000198 -0.000378 -0.000690 -0.001220 -0.002134 -0.003720
                                -0.006525 -0.011576 -0.020815 -0.037776 -0.067911 -0.115452 -0.166027 -0.147993  0.063121  0.425652
                                 0.481448  0.172956  0.013943  0.000318  0.000001 -0.000430 -0.001281  0.000284  0.000116 -0.000008
                                 0.000005 -0.000002  0.001362 -0.000230  0.000001  0.000000  0.000000  0.000000 -0.000000  0.000000
                                 0.000000  0.000000 -0.000000  0.000001  0.000000  0.000004 -0.000000  0.000014  0.000000  0.000031
                                -0.000000  0.000022  0.000000  0.000000 -0.000000 -0.000001  0.000000 -0.000001 -0.000000  0.000001
                                 0.000000  0.000001  0.000000 -0.000000 -0.000000 -0.000000 -0.000000  0.000000  0.000000 -0.000000
                                -0.000000  0.000000  0.000000 -0.000001 -0.000000  0.000000  0.000000 -0.000000 -0.000000 -0.000000
                                 0.000000  0.000000  0.000000 -0.000000 -0.000000 -0.000000  0.000000 -0.000000

   3.1   2  -105.8299 -416.0676  0.000003  0.000007  0.000020  0.000046  0.000094  0.000179  0.000327  0.000579  0.001012  0.001767
                                 0.003104  0.005519  0.009958  0.018180  0.033003  0.057080  0.084511  0.077704 -0.050250 -0.356781
                                -0.538277 -0.062391  0.731055  0.541305  0.073432  0.012561  0.029951 -0.006300 -0.002545  0.000171
                                -0.000101  0.000042 -0.031992  0.005079 -0.000011  0.000000 -0.000000  0.000000 -0.000000  0.000001
                                -0.000000  0.000006 -0.000000  0.000022 -0.000000  0.000066 -0.000000  0.000159 -0.000000  0.000287
                                -0.000000  0.000512 -0.000000  0.000851 -0.000000  0.000517 -0.000000  0.000026 -0.000000  0.000001
                                 0.000000  0.000025  0.000000 -0.000006 -0.000000 -0.000007 -0.000000  0.000001  0.000000 -0.000000
                                -0.000000  0.000000 -0.000000 -0.000035 -0.000000  0.000009  0.000000 -0.000000 -0.000000 -0.000001
                                 0.000000  0.000000  0.000001 -0.000000 -0.000000 -0.000000  0.000000  0.000000

   4.1   2   -70.5615 -355.4416 -0.000000 -0.000000 -0.000000 -0.000000 -0.000000 -0.000000 -0.000001 -0.000001 -0.000002 -0.000004
                                -0.000007 -0.000012 -0.000022 -0.000040 -0.000072 -0.000125 -0.000186 -0.000172  0.000117  0.000827
                                 0.001297 -0.000022 -0.002168 -0.000841  0.000283 -0.000125 -0.000256  0.000047  0.000020 -0.000001
                                 0.000001 -0.000000  0.000260 -0.000039  0.000000  0.000024  0.000000  0.000149  0.000000  0.000839
                                 0.000000  0.003898  0.000000  0.014990  0.000000  0.046008  0.000000  0.114692  0.000000  0.221646
                                 0.000000  0.320604  0.000000  0.306655  0.000000  0.154579  0.000000  0.034161  0.000000  0.001869
                                 0.000000 -0.000963 -0.000000  0.000241  0.000000  0.000231  0.000000 -0.000018 -0.000000  0.000005
                                 0.000000 -0.000002 -0.000000  0.001509  0.000000 -0.000313 -0.000000  0.000001  0.000000  0.000167
                                -0.000000  0.000000 -0.000083  0.000000 -0.000000  0.000029 -0.000000  0.000000

   5.1   2   -70.5094 -355.3827  0.000000 -0.000000  0.000000  0.000000  0.000000  0.000000  0.000000  0.000000  0.000000  0.000000
                                 0.000000  0.000000  0.000000  0.000000  0.000000  0.000000  0.000000  0.000000 -0.000000 -0.000000
                                -0.000000 -0.000000  0.000000  0.000000  0.000000 -0.000000 -0.000000  0.000000  0.000000 -0.000000
                                 0.000000 -0.000000  0.000000 -0.000000  0.000000 -0.000000  0.000024 -0.000000  0.000149 -0.000000
                                 0.000839 -0.000000  0.003898 -0.000000  0.014992 -0.000000  0.046017 -0.000000  0.114715 -0.000000
                                 0.221693 -0.000000  0.320618 -0.000000  0.306432 -0.000000  0.154448 -0.000000  0.034460 -0.000000
                                 0.002137  0.000000 -0.000859 -0.000000  0.000264 -0.000000  0.000235  0.000000 -0.000018 -0.000000
                                 0.000005 -0.000000 -0.000002 -0.000000  0.001501  0.000000 -0.000316  0.000000  0.000001 -0.000000
                                -0.000000  0.000057  0.000000  0.000000 -0.000029 -0.000000 -0.000000  0.000010

   6.1   2   -26.1279 -181.5005 -0.000001 -0.000004 -0.000010 -0.000022 -0.000046 -0.000088 -0.000161 -0.000285 -0.000498 -0.000870
                                -0.001529 -0.002719 -0.004912 -0.008977 -0.016345 -0.028361 -0.042351 -0.039111  0.027399  0.202826
                                 0.326637  0.036916 -0.768673 -0.741289  0.508065  0.920441  0.269439 -0.035594 -0.016879  0.001173
                                -0.000697  0.000293 -0.076769  0.034372 -0.000079 -0.000000 -0.000000 -0.000001 -0.000000 -0.000004
                                -0.000000 -0.000017 -0.000000 -0.000064 -0.000000 -0.000198 -0.000000 -0.000499 -0.000000 -0.000956
                                -0.000000 -0.001410 -0.000000 -0.001477 -0.000000  0.000879  0.000000  0.004504  0.000000  0.003317
                                 0.000000  0.000870  0.000000 -0.000088 -0.000000 -0.000105 -0.000000  0.000008  0.000000 -0.000002
                                -0.000000  0.000001  0.000000 -0.000577 -0.000000  0.000141  0.000000 -0.000000 -0.000000  0.000005
                                 0.000000  0.000000 -0.000006  0.000000  0.000000  0.000002 -0.000000 -0.000000

   7.1   2   -13.5743 -147.9290  0.000000  0.000000  0.000000  0.000000  0.000000  0.000001  0.000001  0.000002  0.000004  0.000007
                                 0.000012  0.000021  0.000038  0.000070  0.000128  0.000222  0.000333  0.000307 -0.000217 -0.001626
                                -0.002638 -0.000201  0.006807  0.005047 -0.005087 -0.005366 -0.001314 -0.000210 -0.000039  0.000001
                                -0.000001  0.000000 -0.000775  0.000076 -0.000000 -0.000012 -0.000000 -0.000074 -0.000000 -0.000421
                                -0.000000 -0.001959 -0.000000 -0.007605 -0.000000 -0.023518 -0.000000 -0.059838 -0.000000 -0.115783
                                -0.000000 -0.162984 -0.000000 -0.112427 -0.000000  0.122093  0.000000  0.380161  0.000000  0.416002
                                 0.000000  0.203261  0.000000  0.034373  0.000000  0.003389  0.000000 -0.000093 -0.000000  0.000014
                                 0.000000 -0.000003 -0.000000  0.001829  0.000000 -0.004096 -0.000000  0.000001  0.000000  0.003676
                                -0.000001  0.000000 -0.001625  0.000000 -0.000000  0.000569 -0.000000  0.000000

   8.1   2   -13.5405 -147.8176 -0.000000 -0.000000  0.000000 -0.000000  0.000000 -0.000000 -0.000000 -0.000000 -0.000000 -0.000000
                                -0.000000 -0.000000 -0.000000 -0.000000 -0.000000 -0.000000 -0.000000 -0.000000  0.000000  0.000000
                                 0.000000  0.000000 -0.000000  0.000000 -0.000000  0.000000  0.000000 -0.000000  0.000000  0.000000
                                -0.000000  0.000000 -0.000000 -0.000000 -0.000000  0.000000 -0.000012  0.000000 -0.000074  0.000000
                                -0.000421  0.000000 -0.001960  0.000000 -0.007608  0.000000 -0.023529  0.000000 -0.059863  0.000000
                                -0.115837  0.000000 -0.163016  0.000000 -0.112211 -0.000000  0.122225 -0.000000  0.378792 -0.000000
                                 0.414960 -0.000000  0.204771 -0.000000  0.035674 -0.000000  0.003760  0.000000 -0.000119  0.000000
                                 0.000021  0.000000 -0.000006 -0.000000  0.002063  0.000000 -0.004454 -0.000000  0.000002 -0.000000
                                 0.000000  0.001549  0.000000 -0.000000 -0.000702 -0.000000  0.000000  0.000245

   9.1   2    -6.8942  -81.9559  0.000001  0.000002  0.000004  0.000010  0.000020  0.000038  0.000069  0.000123  0.000215  0.000375
                                 0.000658  0.001171  0.002116  0.003868  0.007047  0.012239  0.018309  0.016934 -0.012094 -0.090317
                                -0.147930 -0.017489  0.400412  0.402846 -0.369456 -0.898897  0.181880  0.863494  0.223953  0.005951
                                -0.002505  0.000918 -0.314821  0.311976 -0.000235  0.000000  0.000000  0.000001  0.000000  0.000003
                                 0.000000  0.000015  0.000000  0.000060  0.000000  0.000183  0.000000  0.000470  0.000000  0.000891
                                 0.000000  0.001308  0.000000  0.001010  0.000000 -0.001359 -0.000000 -0.005149 -0.000000 -0.002902
                                -0.000000  0.006614 -0.000000  0.007039  0.000000  0.001228  0.000000 -0.000056 -0.000000  0.000022
                                 0.000000 -0.000008 -0.000000 -0.000940  0.000000  0.000178 -0.000000  0.000003  0.000000  0.000180
                                -0.000001 -0.000000 -0.000053  0.000000  0.000000  0.000019 -0.000000 -0.000000

  10.1   0    -2.9507  -56.7037 -0.000000 -0.000000 -0.000000 -0.000000 -0.000000 -0.000000 -0.000000 -0.000001 -0.000001 -0.000002
                                -0.000003 -0.000005 -0.000009 -0.000016 -0.000029 -0.000050 -0.000078 -0.000065  0.000038  0.000404
                                 0.000556  0.000158 -0.002012 -0.000307  0.000393  0.002450  0.041289 -0.012138 -0.051170 -0.008959
                                 0.002927 -0.001077 -0.033415  0.049712  0.000277  0.000004 -0.000000  0.000025 -0.000000  0.000144
                                -0.000000  0.000673 -0.000000  0.002607 -0.000000  0.008101 -0.000000  0.020603 -0.000000  0.040051
                                -0.000000  0.055783 -0.000000  0.035602 -0.000000 -0.059516  0.000000 -0.157924  0.000000 -0.178292
                                 0.000000 -0.013451  0.000000  0.395849 -0.000000  0.594026 -0.000000  0.173991 -0.000000 -0.006134
                                 0.000000  0.003025 -0.000000  0.034652 -0.000000 -0.047346  0.000000 -0.000962  0.000000  0.003623
                                 0.000001  0.000000  0.001231  0.000000  0.000000  0.000241  0.000000  0.000000

  11.1   0    -2.9124  -56.1817  0.000000  0.000000  0.000000  0.000000  0.000000  0.000000 -0.000000  0.000000  0.000000  0.000000
                                 0.000000  0.000000  0.000000  0.000000  0.000000  0.000000  0.000000  0.000000 -0.000000 -0.000000
                                -0.000000 -0.000000  0.000000 -0.000000 -0.000000 -0.000000 -0.000000  0.000000  0.000000  0.000000
                                -0.000000  0.000000  0.000000 -0.000000 -0.000000 -0.000000 -0.000004 -0.000000 -0.000025 -0.000000
                                -0.000142 -0.000000 -0.000663 -0.000000 -0.002569 -0.000000 -0.007985 -0.000000 -0.020299 -0.000000
                                -0.039483 -0.000000 -0.054933 -0.000000 -0.035030  0.000000  0.058682  0.000000  0.154249  0.000000
                                 0.175997  0.000000  0.023098 -0.000000 -0.387210 -0.000000 -0.607500 -0.000000 -0.183254  0.000000
                                 0.005735 -0.000000 -0.003023 -0.000000 -0.038400  0.000000  0.057553  0.000000  0.000966 -0.000000
                                -0.000000 -0.002210 -0.000000 -0.000000 -0.000781 -0.000000 -0.000000 -0.000156

                                   1 2px     1 2px     1 2px     1 2px     1 2px     1 2px     1 2px     1 2px     1 2px     1 2px  
                                   1 2px     1 2px     1 2px     1 2px     1 2px     1 2px     1 2px     1 2px     1 2px     1 2px  
                                   1 2px     1 2px     1 2px     1 2px     1 2px     1 2px     1 2px     1 2px     1 2px     1 2px  
                                   1 2px     1 4f1+    1 4f3+    1 4f1+    1 4f3+    1 4f1+    1 4f3+    1 4f1+    1 4f3+    1 4f1+ 
                                   1 4f3+    1 4f1+    1 4f3+    1 4f1+    1 4f3+    1 4f1+    1 4f3+    1 4f1+    1 4f3+    1 4f1+ 
                                   1 4f3+    1 4f1+    1 4f3+    1 4f1+    1 4f3+    1 4f1+    1 4f3+    1 4f1+    1 4f3+    1 4f1+ 
                                   1 4f3+ 

   1.2   2  -384.6571-1076.4684  0.000003  0.000007  0.000021  0.000056  0.000141  0.000341  0.000821  0.001991  0.004898  0.012166
                                 0.029915  0.070287  0.147888  0.256839  0.325582  0.248203  0.089584  0.010166  0.000517 -0.000257
                                 0.000108 -0.000382 -0.000216  0.000602  0.000014 -0.000002  0.000001 -0.000000  0.000440 -0.000555
                                 0.000000  0.000000 -0.000000  0.000004 -0.000000  0.000015 -0.000000  0.000013 -0.000000  0.000000
                                 0.000000 -0.000000  0.000000 -0.000001  0.000000 -0.000000 -0.000000 -0.000001  0.000000 -0.000001
                                 0.000000 -0.000000  0.000000  0.000001 -0.000000  0.000000 -0.000000  0.000000 -0.000000 -0.000000
                                 0.000000

   2.2   2   -89.7780 -385.6817 -0.000001 -0.000004 -0.000011 -0.000028 -0.000071 -0.000173 -0.000418 -0.001019 -0.002519 -0.006312
                                -0.015717 -0.037788 -0.082189 -0.149640 -0.194600 -0.092440  0.217845  0.494157  0.345649  0.080844
                                 0.007679 -0.003364 -0.002569  0.007722  0.000184 -0.000033  0.000013 -0.000005  0.004885 -0.007147
                                 0.000001  0.000000 -0.000000  0.000002 -0.000000  0.000011  0.000000  0.000105 -0.000000  0.000324
                                -0.000000  0.000192  0.000000 -0.000031  0.000000 -0.000034 -0.000000 -0.000039  0.000000 -0.000021
                                 0.000000 -0.000004  0.000000  0.000018 -0.000000  0.000008 -0.000000  0.000001 -0.000000 -0.000000
                                 0.000000

   3.2   2   -20.6855 -166.7890  0.000001  0.000002  0.000005  0.000014  0.000035  0.000084  0.000204  0.000497  0.001231  0.003089
                                 0.007719  0.018649  0.040910  0.075327  0.098771  0.036317 -0.165394 -0.400130 -0.216609  0.339904
                                 0.579909  0.308773  0.048745 -0.026318 -0.000480  0.000077 -0.000028  0.000011 -0.024025  0.024930
                                -0.000003  0.000000  0.000000  0.000004 -0.000000  0.000017 -0.000000  0.000015 -0.000000 -0.000013
                                 0.000000  0.000807 -0.000000  0.001815 -0.000000  0.000743 -0.000000 -0.000242  0.000000 -0.000177
                                -0.000000 -0.000026 -0.000000  0.000101 -0.000000  0.000049  0.000000  0.000006  0.000000 -0.000001
                                -0.000000

   4.2   2    -5.5925 -122.3836 -0.000000 -0.000000 -0.000000 -0.000000 -0.000000 -0.000000 -0.000000 -0.000000 -0.000000 -0.000000
                                -0.000000 -0.000000 -0.000000 -0.000000 -0.000000 -0.000000  0.000000  0.000000  0.000000 -0.000000
                                -0.000001 -0.000000  0.000002  0.000002  0.000001 -0.000000  0.000000 -0.000000 -0.000000  0.000001
                                 0.000000 -0.000000  0.000285 -0.000002  0.002466 -0.000008  0.013413 -0.000029  0.046327 -0.000074
                                 0.120117 -0.000143  0.230755 -0.000193  0.311561 -0.000194  0.314208 -0.000135  0.221549 -0.000054
                                 0.090757 -0.000006  0.010650 -0.000001  0.002673  0.000005 -0.006698  0.000001 -0.001940 -0.000000
                                 0.000221

   5.2   2    -5.2733  -72.7464 -0.000000 -0.000001 -0.000002 -0.000006 -0.000014 -0.000034 -0.000083 -0.000202 -0.000502 -0.001258
                                -0.003151 -0.007608 -0.016753 -0.030846 -0.040684 -0.013650  0.073095  0.183435  0.084307 -0.206728
                                -0.402517 -0.137486  0.471645  0.398298  0.147364 -0.003495  0.001686 -0.000676 -0.059936  0.248373
                                 0.000188  0.000002  0.000000  0.000016  0.000000  0.000085  0.000000  0.000317  0.000000  0.000829
                                 0.000000  0.001211  0.000001  0.001330  0.000001  0.003364  0.000001  0.005273  0.000000  0.003387
                                -0.000000  0.000497 -0.000000  0.000162  0.000000 -0.000163  0.000000 -0.000087 -0.000000  0.000010
                                -0.000000

   6.2   +    -5.8135 -123.3292  0.000000  0.000000  0.000000  0.000000  0.000000  0.000000  0.000000  0.000001  0.000003  0.000007
                                 0.000017  0.000040  0.000088  0.000161  0.000213  0.000072 -0.000370 -0.000980 -0.000502  0.001248
                                 0.002944  0.000534 -0.005249 -0.003953 -0.001560  0.000035 -0.000017  0.000007  0.000593 -0.002816
                                -0.000002  0.000288  0.000000  0.002484  0.000002  0.013511  0.000008  0.046646  0.000029  0.121010
                                 0.000074  0.233053  0.000143  0.315497  0.000193  0.315565  0.000194  0.216837  0.000136  0.084583
                                 0.000055  0.009435  0.000006  0.001100  0.000001 -0.007772 -0.000004 -0.001803 -0.000001  0.000202
                                 0.000000

   7.2   0    -2.0211  -34.6170  0.000000  0.000000  0.000001  0.000003  0.000006  0.000016  0.000038  0.000092  0.000230  0.000572
                                 0.001449  0.003450  0.007730  0.013927  0.019042  0.005186 -0.031798 -0.089859 -0.029121  0.081118
                                 0.257685 -0.279695 -0.906061  5.631153  0.790221  0.834040 -0.025923  0.016180  0.657930 -6.308897
                                -0.004546  0.000001 -0.000000  0.000007 -0.000000  0.000040 -0.000000  0.000127 -0.000000  0.000323
                                -0.000000  0.000829 -0.000000  0.001230 -0.000000 -0.000130  0.000000 -0.002096  0.000001 -0.002022
                                 0.000000  0.000251  0.000000  0.000102 -0.000000  0.000606  0.000000  0.001175  0.000000  0.000081
                                 0.000000

   8.2   0    -1.5614  -34.5150  0.000000  0.000000  0.000000  0.000000  0.000000  0.000000  0.000000  0.000001  0.000001  0.000003
                                 0.000009  0.000021  0.000046  0.000085  0.000111  0.000039 -0.000209 -0.000496 -0.000239  0.000583
                                 0.000780  0.001146  0.001012 -0.007950 -0.003452  0.001363  0.000642 -0.000114 -0.001075  0.006533
                                 0.000027 -0.000065 -0.000000 -0.000530 -0.000000 -0.003023 -0.000000 -0.010023 -0.000001 -0.027192
                                -0.000003 -0.049002 -0.000005 -0.068893 -0.000006 -0.044970 -0.000004 -0.080767 -0.000008 -0.146734
                                -0.000014  0.072601  0.000007  0.172378  0.000017  0.416617  0.000041  0.617628  0.000060  0.101480
                                 0.000010

                                   1 2py     1 2py     1 2py     1 2py     1 2py     1 2py     1 2py     1 2py     1 2py     1 2py  
                                   1 2py     1 2py     1 2py     1 2py     1 2py     1 2py     1 2py     1 2py     1 2py     1 2py  
                                   1 2py     1 2py     1 2py     1 2py     1 2py     1 2py     1 2py     1 2py     1 2py     1 2py  
                                   1 2py     1 4f1-    1 4f3-    1 4f1-    1 4f3-    1 4f1-    1 4f3-    1 4f1-    1 4f3-    1 4f1- 
                                   1 4f3-    1 4f1-    1 4f3-    1 4f1-    1 4f3-    1 4f1-    1 4f3-    1 4f1-    1 4f3-    1 4f1- 
                                   1 4f3-    1 4f1-    1 4f3-    1 4f1-    1 4f3-    1 4f1-    1 4f3-    1 4f1-    1 4f3-    1 4f1- 
                                   1 4f3- 

   1.3   2  -384.6571-1076.4684  0.000003  0.000007  0.000021  0.000056  0.000141  0.000341  0.000821  0.001991  0.004898  0.012166
                                 0.029915  0.070287  0.147888  0.256839  0.325582  0.248203  0.089584  0.010166  0.000517 -0.000257
                                 0.000108 -0.000382 -0.000216  0.000602  0.000014 -0.000002  0.000001 -0.000000  0.000440 -0.000555
                                 0.000000  0.000000  0.000000  0.000004  0.000000  0.000015  0.000000  0.000013  0.000000  0.000000
                                -0.000000 -0.000000 -0.000000 -0.000001 -0.000000 -0.000000  0.000000 -0.000001 -0.000000 -0.000001
                                -0.000000 -0.000000 -0.000000  0.000001  0.000000  0.000000  0.000000  0.000000  0.000000 -0.000000
                                -0.000000

   2.3   2   -89.7780 -385.6817 -0.000001 -0.000004 -0.000011 -0.000028 -0.000071 -0.000173 -0.000418 -0.001019 -0.002519 -0.006312
                                -0.015717 -0.037788 -0.082189 -0.149640 -0.194600 -0.092440  0.217845  0.494157  0.345649  0.080844
                                 0.007679 -0.003364 -0.002569  0.007722  0.000184 -0.000033  0.000013 -0.000005  0.004885 -0.007147
                                 0.000001  0.000000  0.000000  0.000002  0.000000  0.000011 -0.000000  0.000105  0.000000  0.000324
                                 0.000000  0.000192 -0.000000 -0.000031 -0.000000 -0.000034  0.000000 -0.000039 -0.000000 -0.000021
                                -0.000000 -0.000004 -0.000000  0.000018  0.000000  0.000008  0.000000  0.000001  0.000000 -0.000000
                                -0.000000

   3.3   2   -20.6855 -166.7890  0.000001  0.000002  0.000005  0.000014  0.000035  0.000084  0.000204  0.000497  0.001231  0.003089
                                 0.007719  0.018649  0.040910  0.075327  0.098771  0.036317 -0.165394 -0.400130 -0.216609  0.339904
                                 0.579909  0.308773  0.048745 -0.026318 -0.000480  0.000077 -0.000028  0.000011 -0.024025  0.024930
                                -0.000003  0.000000 -0.000000  0.000004  0.000000  0.000017  0.000000  0.000015  0.000000 -0.000013
                                -0.000000  0.000807  0.000000  0.001815  0.000000  0.000743  0.000000 -0.000242 -0.000000 -0.000177
                                 0.000000 -0.000026  0.000000  0.000101  0.000000  0.000049 -0.000000  0.000006 -0.000000 -0.000001
                                 0.000000

   4.3   2    -5.5925 -122.3836  0.000000  0.000000  0.000000  0.000000  0.000000  0.000000  0.000000  0.000000  0.000000  0.000000
                                 0.000000  0.000000  0.000000  0.000000  0.000000  0.000000 -0.000000 -0.000000 -0.000000  0.000000
                                 0.000001  0.000000 -0.000002 -0.000002 -0.000001  0.000000 -0.000000  0.000000  0.000000 -0.000001
                                -0.000000  0.000000  0.000285  0.000002  0.002466  0.000008  0.013413  0.000029  0.046327  0.000074
                                 0.120117  0.000143  0.230755  0.000193  0.311561  0.000194  0.314208  0.000135  0.221549  0.000054
                                 0.090757  0.000006  0.010650  0.000001  0.002673 -0.000005 -0.006698 -0.000001 -0.001940  0.000000
                                 0.000221

   5.3   2    -5.2733  -72.7464 -0.000000 -0.000001 -0.000002 -0.000006 -0.000014 -0.000034 -0.000083 -0.000202 -0.000502 -0.001258
                                -0.003151 -0.007608 -0.016753 -0.030846 -0.040684 -0.013650  0.073095  0.183435  0.084307 -0.206728
                                -0.402517 -0.137486  0.471645  0.398298  0.147364 -0.003495  0.001686 -0.000676 -0.059936  0.248373
                                 0.000188  0.000002 -0.000000  0.000016 -0.000000  0.000085 -0.000000  0.000317 -0.000000  0.000829
                                -0.000000  0.001211 -0.000001  0.001330 -0.000001  0.003364 -0.000001  0.005273 -0.000000  0.003387
                                 0.000000  0.000497  0.000000  0.000162 -0.000000 -0.000163 -0.000000 -0.000087  0.000000  0.000010
                                 0.000000

   6.3   +    -5.8135 -123.3292  0.000000  0.000000  0.000000  0.000000  0.000000  0.000000  0.000000  0.000001  0.000003  0.000007
                                 0.000017  0.000040  0.000088  0.000161  0.000213  0.000072 -0.000370 -0.000980 -0.000502  0.001248
                                 0.002944  0.000534 -0.005249 -0.003953 -0.001560  0.000035 -0.000017  0.000007  0.000593 -0.002816
                                -0.000002  0.000288 -0.000000  0.002484 -0.000002  0.013511 -0.000008  0.046646 -0.000029  0.121010
                                -0.000074  0.233053 -0.000143  0.315497 -0.000193  0.315565 -0.000194  0.216837 -0.000136  0.084583
                                -0.000055  0.009435 -0.000006  0.001100 -0.000001 -0.007772  0.000004 -0.001803  0.000001  0.000202
                                -0.000000

   7.3   0    -2.0211  -34.6170  0.000000  0.000000  0.000001  0.000003  0.000006  0.000016  0.000038  0.000092  0.000230  0.000572
                                 0.001449  0.003450  0.007730  0.013927  0.019042  0.005186 -0.031798 -0.089859 -0.029121  0.081118
                                 0.257685 -0.279695 -0.906061  5.631153  0.790221  0.834040 -0.025923  0.016180  0.657930 -6.308897
                                -0.004546  0.000001  0.000000  0.000007  0.000000  0.000040  0.000000  0.000127  0.000000  0.000323
                                 0.000000  0.000829  0.000000  0.001230  0.000000 -0.000130 -0.000000 -0.002096 -0.000001 -0.002022
                                -0.000000  0.000251 -0.000000  0.000102  0.000000  0.000606 -0.000000  0.001175 -0.000000  0.000081
                                -0.000000

   8.3   0    -1.5614  -34.5150  0.000000  0.000000  0.000000  0.000000  0.000000  0.000000  0.000000  0.000001  0.000001  0.000003
                                 0.000009  0.000021  0.000046  0.000085  0.000111  0.000039 -0.000209 -0.000496 -0.000239  0.000583
                                 0.000780  0.001146  0.001012 -0.007950 -0.003452  0.001363  0.000642 -0.000114 -0.001075  0.006533
                                 0.000027 -0.000065  0.000000 -0.000530  0.000000 -0.003023  0.000000 -0.010023  0.000001 -0.027192
                                 0.000003 -0.049002  0.000005 -0.068893  0.000006 -0.044970  0.000004 -0.080767  0.000008 -0.146734
                                 0.000014  0.072601 -0.000007  0.172378 -0.000017  0.416617 -0.000041  0.617628 -0.000060  0.101480
                                -0.000010

                                   1 3d2-    1 3d2-    1 3d2-    1 3d2-    1 3d2-    1 3d2-    1 3d2-    1 3d2-    1 3d2-    1 3d2- 
                                   1 3d2-    1 3d2-    1 3d2-    1 3d2-    1 3d2-    1 3d2-    1 3d2-    1 3d2-    1 3d2-    1 3d2- 
                                   1 3d2-    1 3d2-    1 5g2-    1 5g4-    1 5g2-    1 5g4-    1 5g2-    1 5g4- 

   1.4   2   -70.5093 -355.3828  0.000024  0.000149  0.000839  0.003898  0.014992  0.046017  0.114715  0.221693  0.320618  0.306432
                                 0.154448  0.034460  0.002137 -0.000859  0.000264  0.000235 -0.000018  0.000005 -0.000002  0.001501
                                -0.000316  0.000001  0.000057 -0.000000 -0.000029  0.000000  0.000010 -0.000000

   2.4   2   -13.5405 -147.8176 -0.000012 -0.000074 -0.000421 -0.001960 -0.007608 -0.023529 -0.059863 -0.115837 -0.163016 -0.112211
                                 0.122225  0.378792  0.414960  0.204770  0.035673  0.003760 -0.000119  0.000021 -0.000006  0.002063
                                -0.004454  0.000002  0.001551  0.000000 -0.000703 -0.000000  0.000246  0.000000

   3.4   0    -2.9124  -56.1819 -0.000004 -0.000025 -0.000142 -0.000663 -0.002569 -0.007985 -0.020299 -0.039484 -0.054933 -0.035030
                                 0.058682  0.154251  0.175998  0.023095 -0.387213 -0.607495 -0.183252  0.005735 -0.003023 -0.038399
                                 0.057550  0.000966 -0.002209 -0.000000 -0.000781 -0.000000 -0.000156 -0.000000

   4.4   0    -1.4974  -28.5216 -0.000002 -0.000013 -0.000074 -0.000356 -0.001336 -0.004288 -0.010532 -0.021374 -0.027884 -0.020608
                                 0.037317  0.072177  0.137015  0.239568 -0.414714 -1.075195  0.637708  0.668414 -0.028381 -0.240612
                                 0.653905  0.011169 -0.001419 -0.000000  0.000052  0.000000  0.000928  0.000000

                                   1 2pz     1 2pz     1 2pz     1 2pz     1 2pz     1 2pz     1 2pz     1 2pz     1 2pz     1 2pz  
                                   1 2pz     1 2pz     1 2pz     1 2pz     1 2pz     1 2pz     1 2pz     1 2pz     1 2pz     1 2pz  
                                   1 2pz     1 2pz     1 2pz     1 2pz     1 2pz     1 2pz     1 2pz     1 2pz     1 2pz     1 2pz  
                                   1 2pz     1 4f0     1 4f2+    1 4f0     1 4f2+    1 4f0     1 4f2+    1 4f0     1 4f2+    1 4f0  
                                   1 4f2+    1 4f0     1 4f2+    1 4f0     1 4f2+    1 4f0     1 4f2+    1 4f0     1 4f2+    1 4f0  
                                   1 4f2+    1 4f0     1 4f2+    1 4f0     1 4f2+    1 4f0     1 4f2+    1 4f0     1 4f2+    1 4f0  
                                   1 4f2+ 

   1.5   2  -384.6792-1076.4863  0.000003  0.000007  0.000021  0.000056  0.000141  0.000341  0.000821  0.001991  0.004898  0.012165
                                 0.029913  0.070283  0.147880  0.256822  0.325562  0.248210  0.089631  0.010181  0.000512 -0.000259
                                 0.000107 -0.000381 -0.000215  0.000601  0.000014 -0.000002  0.000001 -0.000000  0.000439 -0.000553
                                 0.000000  0.000001  0.000000  0.000005  0.000000  0.000019  0.000000  0.000017  0.000000 -0.000000
                                 0.000000 -0.000001  0.000000 -0.000001  0.000000  0.000000 -0.000000 -0.000001  0.000000 -0.000001
                                 0.000000 -0.000000  0.000000  0.000001 -0.000000  0.000001 -0.000000  0.000000 -0.000000 -0.000000
                                 0.000000

   2.5   2   -89.8761 -385.7584 -0.000001 -0.000004 -0.000011 -0.000028 -0.000071 -0.000173 -0.000418 -0.001018 -0.002518 -0.006310
                                -0.015713 -0.037776 -0.082162 -0.149586 -0.194534 -0.092449  0.217497  0.493966  0.346124  0.080922
                                 0.007570 -0.003399 -0.002583  0.007742  0.000185 -0.000033  0.000013 -0.000005  0.004889 -0.007167
                                 0.000001  0.000000  0.000000  0.000002  0.000000  0.000014  0.000000  0.000136  0.000000  0.000430
                                 0.000000  0.000260  0.000000 -0.000020  0.000000 -0.000006  0.000000 -0.000024  0.000000 -0.000018
                                 0.000000 -0.000004  0.000000  0.000026 -0.000000  0.000011 -0.000000  0.000001 -0.000000 -0.000000
                                -0.000000

   3.5   2   -20.8058 -166.9747  0.000001  0.000002  0.000005  0.000014  0.000035  0.000084  0.000204  0.000497  0.001231  0.003091
                                 0.007723  0.018660  0.040934  0.075369  0.098826  0.036368 -0.165273 -0.400329 -0.217949  0.340778
                                 0.582372  0.306544  0.047271 -0.024358 -0.000432  0.000068 -0.000025  0.000010 -0.023313  0.023057
                                -0.000003  0.000001  0.000000  0.000008  0.000000  0.000041  0.000000  0.000086  0.000000  0.000134
                                 0.000000  0.001350  0.000000  0.002783  0.000000  0.001345  0.000000 -0.000023  0.000000 -0.000093
                                 0.000000 -0.000018 -0.000000  0.000140 -0.000000  0.000051 -0.000000  0.000005 -0.000000 -0.000000
                                 0.000000

   4.5   2    -5.7536 -123.0617 -0.000000 -0.000000 -0.000000 -0.000000 -0.000000 -0.000000 -0.000001 -0.000002 -0.000005 -0.000014
                                -0.000034 -0.000082 -0.000181 -0.000334 -0.000439 -0.000150  0.000795  0.001927  0.000906 -0.001910
                                -0.003041 -0.001708  0.000211  0.000882  0.000132 -0.000006  0.000003 -0.000001 -0.000036 -0.000132
                                 0.000000  0.000287  0.000000  0.002479  0.000000  0.013487  0.000000  0.046569  0.000000  0.120814
                                 0.000000  0.232426  0.000000  0.314214  0.000000  0.315105  0.000000  0.218401  0.000000  0.086505
                                 0.000000  0.009776  0.000000  0.001566  0.000000 -0.007555  0.000000 -0.001844 -0.000000  0.000208
                                 0.000000

   5.5   2    -5.6669 -122.7021  0.000000  0.000000  0.000000  0.000000  0.000000  0.000000  0.000000  0.000000  0.000000  0.000000
                                 0.000000  0.000000  0.000000  0.000000  0.000000  0.000000 -0.000000 -0.000000 -0.000000  0.000000
                                 0.000000  0.000000 -0.000000 -0.000000 -0.000000 -0.000000  0.000000 -0.000000 -0.000000 -0.000000
                                 0.000000 -0.000000  0.000286 -0.000000  0.002473 -0.000000  0.013448 -0.000000  0.046442 -0.000000
                                 0.120448 -0.000000  0.231545 -0.000000  0.312812 -0.000000  0.314634 -0.000000  0.220081 -0.000000
                                 0.088758 -0.000000  0.010232 -0.000000  0.002153  0.000000 -0.007114  0.000000 -0.001896 -0.000000
                                 0.000215

   6.5   2    -5.3316  -73.0963 -0.000000 -0.000001 -0.000002 -0.000006 -0.000014 -0.000035 -0.000084 -0.000204 -0.000505 -0.001267
                                -0.003172 -0.007660 -0.016867 -0.031055 -0.040958 -0.013755  0.073526  0.184749  0.085554 -0.209032
                                -0.408424 -0.136373  0.480739  0.427649  0.141318 -0.003685  0.001712 -0.000683 -0.056904  0.215920
                                 0.000190 -0.000002  0.000000 -0.000016  0.000000 -0.000086  0.000000 -0.000266  0.000000 -0.000668
                                 0.000000 -0.001807  0.000000 -0.002905  0.000000 -0.000290  0.000000  0.003566 -0.000000  0.002961
                                -0.000000  0.000463 -0.000000  0.000097  0.000000 -0.000177  0.000000 -0.000083  0.000000  0.000010
                                -0.000000

   7.5   0    -2.0352  -34.8278  0.000000  0.000000  0.000001  0.000003  0.000007  0.000016  0.000038  0.000093  0.000232  0.000577
                                 0.001463  0.003484  0.007805  0.014062  0.019227  0.005238 -0.032076 -0.090811 -0.029777  0.082608
                                 0.262664 -0.285682 -0.921977  5.652584  0.817021  0.819324 -0.029028  0.016808  0.663749 -6.328138
                                -0.004697  0.000001  0.000000  0.000010  0.000000  0.000057  0.000000  0.000181  0.000000  0.000455
                                 0.000000  0.001170  0.000000  0.001743 -0.000000 -0.000199  0.000000 -0.002941 -0.000000 -0.002690
                                -0.000000  0.000319 -0.000000  0.000174  0.000000  0.000825  0.000000  0.001441  0.000000  0.000095
                                -0.000000

   8.5   0    -1.5608  -34.5132  0.000000  0.000000  0.000000  0.000000  0.000000  0.000000  0.000000  0.000001  0.000002  0.000004
                                 0.000011  0.000026  0.000056  0.000104  0.000135  0.000047 -0.000255 -0.000602 -0.000289  0.000716
                                 0.000902  0.001485  0.001515 -0.010649 -0.004601  0.002024  0.000911 -0.000161 -0.001503  0.008959
                                 0.000039 -0.000065 -0.000000 -0.000533 -0.000000 -0.003042 -0.000000 -0.010088 -0.000000 -0.027362
                                -0.000000 -0.049298 -0.000000 -0.069269 -0.000000 -0.045537 -0.000000 -0.081877 -0.000000 -0.148286
                                -0.000000  0.071603  0.000000  0.172600  0.000000  0.417121  0.000000  0.618999  0.000000  0.101866
                                 0.000000

                                   1 3d1+    1 3d1+    1 3d1+    1 3d1+    1 3d1+    1 3d1+    1 3d1+    1 3d1+    1 3d1+    1 3d1+ 
                                   1 3d1+    1 3d1+    1 3d1+    1 3d1+    1 3d1+    1 3d1+    1 3d1+    1 3d1+    1 3d1+    1 3d1+ 
                                   1 3d1+    1 3d1+    1 5g1+    1 5g3+    1 5g1+    1 5g3+    1 5g1+    1 5g3+ 

   1.6   2   -70.5512 -355.4246  0.000024  0.000149  0.000839  0.003898  0.014990  0.046008  0.114692  0.221647  0.320594  0.306582
                                 0.154558  0.034287  0.001972 -0.000923  0.000250  0.000233 -0.000018  0.000005 -0.000002  0.001506
                                -0.000314  0.000001 -0.000133 -0.000000  0.000063  0.000000 -0.000022 -0.000000

   2.6   2   -13.5754 -147.9086 -0.000012 -0.000074 -0.000421 -0.001960 -0.007607 -0.023525 -0.059854 -0.115817 -0.163021 -0.112390
                                 0.122129  0.379752  0.415677  0.203740  0.034795  0.003504 -0.000101  0.000016 -0.000004  0.001888
                                -0.004197  0.000001 -0.000928 -0.000001  0.000264  0.000000 -0.000095 -0.000000

   3.6   0    -2.9387  -56.5397 -0.000004 -0.000025 -0.000143 -0.000670 -0.002595 -0.008065 -0.020509 -0.039875 -0.055520 -0.035424
                                 0.059262  0.156751  0.177568  0.016605 -0.393138 -0.598417 -0.176893  0.006021 -0.003027 -0.035877
                                 0.050559  0.000964 -0.004258  0.000000 -0.001115  0.000000 -0.000297  0.000000

   4.6   0    -1.5044  -28.6210 -0.000002 -0.000014 -0.000074 -0.000357 -0.001343 -0.004306 -0.010585 -0.021464 -0.028040 -0.020699
                                 0.037459  0.073157  0.137177  0.234512 -0.416907 -1.058536  0.650008  0.657944 -0.029468 -0.238231
                                 0.642891  0.011318 -0.002761  0.000000  0.000102  0.000000  0.001201 -0.000000

                                   1 3d1-    1 3d1-    1 3d1-    1 3d1-    1 3d1-    1 3d1-    1 3d1-    1 3d1-    1 3d1-    1 3d1- 
                                   1 3d1-    1 3d1-    1 3d1-    1 3d1-    1 3d1-    1 3d1-    1 3d1-    1 3d1-    1 3d1-    1 3d1- 
                                   1 3d1-    1 3d1-    1 5g1-    1 5g3-    1 5g1-    1 5g3-    1 5g1-    1 5g3- 

   1.7   2   -70.5512 -355.4246  0.000024  0.000149  0.000839  0.003898  0.014990  0.046008  0.114692  0.221647  0.320594  0.306582
                                 0.154558  0.034287  0.001972 -0.000923  0.000250  0.000233 -0.000018  0.000005 -0.000002  0.001506
                                -0.000314  0.000001 -0.000133  0.000000  0.000063 -0.000000 -0.000022  0.000000

   2.7   2   -13.5754 -147.9086 -0.000012 -0.000074 -0.000421 -0.001960 -0.007607 -0.023525 -0.059854 -0.115817 -0.163021 -0.112390
                                 0.122129  0.379752  0.415677  0.203740  0.034795  0.003504 -0.000101  0.000016 -0.000004  0.001888
                                -0.004197  0.000001 -0.000928  0.000001  0.000264 -0.000000 -0.000095  0.000000

   3.7   0    -2.9387  -56.5397 -0.000004 -0.000025 -0.000143 -0.000670 -0.002595 -0.008065 -0.020509 -0.039875 -0.055520 -0.035424
                                 0.059262  0.156751  0.177568  0.016605 -0.393138 -0.598417 -0.176893  0.006021 -0.003027 -0.035877
                                 0.050559  0.000964 -0.004258 -0.000000 -0.001115 -0.000000 -0.000297 -0.000000

   4.7   0    -1.5044  -28.6210 -0.000002 -0.000014 -0.000074 -0.000357 -0.001343 -0.004306 -0.010585 -0.021464 -0.028040 -0.020699
                                 0.037459  0.073157  0.137177  0.234512 -0.416907 -1.058536  0.650008  0.657944 -0.029468 -0.238231
                                 0.642891  0.011318 -0.002761 -0.000000  0.000102 -0.000000  0.001201  0.000000

                                   1 4f2-    1 4f2-    1 4f2-    1 4f2-    1 4f2-    1 4f2-    1 4f2-    1 4f2-    1 4f2-    1 4f2- 
                                   1 4f2-    1 4f2-    1 4f2-    1 4f2-    1 4f2- 

   1.8   2    -5.6670 -122.7023  0.000286  0.002473  0.013448  0.046442  0.120448  0.231545  0.312813  0.314635  0.220080  0.088757
                                 0.010231  0.002153 -0.007114 -0.001896  0.000215

   2.8   0    -1.5552  -34.3741 -0.000065 -0.000532 -0.003037 -0.010067 -0.027311 -0.049161 -0.069176 -0.045722 -0.084424 -0.154408
                                 0.065365  0.174167  0.419728  0.625618  0.104241

   3.8   0    -0.9902  -21.5404  0.000047  0.000425  0.002229  0.007964  0.019995  0.039482  0.047022  0.048784 -0.060820 -0.283213
                                -0.584318  0.103321  0.140065  0.113933  0.943857

 HOMO      6.5    -5.331573 =    -145.0795eV
 LUMO     10.1    -2.950665 =     -80.2917eV
 LUMO-HOMO         2.380908 =      64.7878eV


 **********************************************************************************************************************************
 DATASETS  * FILE   NREC   LENGTH (MB)   RECORD NAMES
              1      22       21.46       500      610      700      900      950      970     1000      129      960     1700   
                                          VAR    BASINP    GEOM    SYMINP    ZMAT    AOBASIS   BASIS     P2S    ABASIS    OPER   
                                         1101     1401     1411     1412     1650     1100     1400     1410     1200     1210   
                                          SR      EKINR    POTR     PVPR    MOLCAS      S      EKIN      POT      H0       H01  
                                         1080     1600   
                                         AOSYM     SMH  

              2       4        3.41       700     1000      520     4202   
                                         GEOM     BASIS   MCVARS     RHF  

 PROGRAMS   *        TOTAL       RHF       INT
 CPU TIMES  *       186.76      4.40    182.23
 REAL TIME  *       193.65 SEC
 DISK USED  *         4.72 GB      
 SF USED    *         0.09 MB      
 GA USED    *         0.00 MB       (max)       0.00 MB       (current)
 **********************************************************************************************************************************
   -->
   <time start="08:04:46" end="08:07:59" cpu="186.76" system="6.34" real="193.65"/>
   <storage units="megabyte" memory="24001.84" sf="0.09" df="84.35" eaf="4633.88" ga="0.0"/>
  </jobstep><!--
  --><jobstep command="POP" commandset="POP">
   <!--


 PROGRAM * POP (Mulliken population analysis)

 
 Density matrix read from record         4202.2  Type=RHF/CHARGE (state 1.4)
 
 Population analysis by basis function type

 Unique atom        s        p        d        f        g    Total    Charge
   1  TA      9.99971 23.99951 20.00026 12.00049  0.00003 66.00000  + 7.00000


 **********************************************************************************************************************************
 DATASETS  * FILE   NREC   LENGTH (MB)   RECORD NAMES
              1      22       21.46       500      610      700      900      950      970     1000      129      960     1700   
                                          VAR    BASINP    GEOM    SYMINP    ZMAT    AOBASIS   BASIS     P2S    ABASIS    OPER   
                                         1101     1401     1411     1412     1650     1100     1400     1410     1200     1210   
                                          SR      EKINR    POTR     PVPR    MOLCAS      S      EKIN      POT      H0       H01  
                                         1080     1600   
                                         AOSYM     SMH  

              2       4        3.41       700     1000      520     4202   
                                         GEOM     BASIS   MCVARS     RHF  

 PROGRAMS   *        TOTAL       POP       RHF       INT
 CPU TIMES  *       186.77      0.01      4.40    182.23
 REAL TIME  *       193.66 SEC
 DISK USED  *         4.72 GB      
 SF USED    *         0.09 MB      
 GA USED    *         0.00 MB       (max)       0.00 MB       (current)
 **********************************************************************************************************************************
   -->
   <time start="08:07:59" end="08:07:59" cpu="0.01" system="0.0" real="0.01"/>
   <storage units="megabyte" memory="24001.84" sf="0.09" df="84.35" eaf="4633.88" ga="0.0"/>
  </jobstep><!--
  --><jobstep command="MULTI" commandset="MULTI">
   <!--


 PROGRAM * MULTI (Direct Multiconfiguration SCF)       Authors: P.J. Knowles, H.-J. Werner (1984)     S.T. Elbert (1988)


 Number of closed-shell orbitals:  31 (   9   5   5   2   5   2   2   1 )
 Number of active  orbitals:        3 (   0   1   1   0   1   0   0   0 )
 Number of external orbitals:     336 (  79  55  55  26  55  26  26  14 )

 State symmetry 1

 Number of electrons:     4    Spin symmetry=Triplet   Space symmetry=7
 Number of states:        1
 Number of CSFs:          1   (1 determinants, 3 intermediate states)

 State symmetry 2

 Number of electrons:     4    Spin symmetry=Triplet   Space symmetry=6
 Number of states:        1
 Number of CSFs:          1   (1 determinants, 3 intermediate states)

 State symmetry 3

 Number of electrons:     4    Spin symmetry=Triplet   Space symmetry=4
 Number of states:        1
 Number of CSFs:          1   (1 determinants, 3 intermediate states)

 Molecular orbitals read from record     4202.2  Type=RHF/CANONICAL (state 1.4)
 *** IN SYMMETRY 1 ORBITAL  4 SYMMETRY CONTAMINATION OF 0.227D-03 HAS BEEN REMOVED
 *** IN SYMMETRY 1 ORBITAL  5 SYMMETRY CONTAMINATION OF 0.781D-04 HAS BEEN REMOVED
 *** IN SYMMETRY 1 ORBITAL  7 SYMMETRY CONTAMINATION OF 0.348D-02 HAS BEEN REMOVED
 *** IN SYMMETRY 1 ORBITAL  8 SYMMETRY CONTAMINATION OF 0.151D-02 HAS BEEN REMOVED
 *** IN SYMMETRY 1 ORBITAL  9 SYMMETRY CONTAMINATION OF 0.583D-04 HAS BEEN REMOVED

 EXTRA SYMMETRY OF MOS IN SYMMETRY 1:   1 1 1 1 1 1 1 1 1 1   1 1 1 1 1 1 1 2 4 3   1 1 1 1 1 1 1 2 4 3   1 1 1 2 4 3 1 1 1 1
                                        1 1 1 1 1 1 1 1 1 1   1 1 1 1 1 1 1 1 1 1   1 1 1 1 1 1 1 1 1 1   1 1 1 1 1 1 1 1 1 1
                                        1 1 1 1 1 1 1 1
 *** IN SYMMETRY 2 ORBITAL  1 SYMMETRY CONTAMINATION OF 0.316D-04 HAS BEEN REMOVED
 *** IN SYMMETRY 2 ORBITAL  2 SYMMETRY CONTAMINATION OF 0.450D-03 HAS BEEN REMOVED
 *** IN SYMMETRY 2 ORBITAL  3 SYMMETRY CONTAMINATION OF 0.166D-02 HAS BEEN REMOVED
 *** IN SYMMETRY 2 ORBITAL  4 SYMMETRY CONTAMINATION OF 0.620D-03 HAS BEEN REMOVED
 *** IN SYMMETRY 2 ORBITAL  5 SYMMETRY CONTAMINATION OF 0.656D-02 HAS BEEN REMOVED
 *** IN SYMMETRY 2 ORBITAL  6 SYMMETRY CONTAMINATION OF 0.160D-01 HAS BEEN REMOVED
 EXTRA SYMMETRY OF MOS IN SYMMETRY 2:   1 1 1 3 1 2 1 2 3 1   2 3 1 1 2 3 1 2 3 1   2 3 1 2 3 1 2 3 1 2   3 1 2 3 1 2 3 2 3 1
                                        1 2 3 1 2 3 1 2 3 1   1 1 1 1 1 1 1 1 1 1   1
 *** IN SYMMETRY 3 ORBITAL  1 SYMMETRY CONTAMINATION OF 0.316D-04 HAS BEEN REMOVED
 *** IN SYMMETRY 3 ORBITAL  2 SYMMETRY CONTAMINATION OF 0.450D-03 HAS BEEN REMOVED
 *** IN SYMMETRY 3 ORBITAL  3 SYMMETRY CONTAMINATION OF 0.166D-02 HAS BEEN REMOVED
 *** IN SYMMETRY 3 ORBITAL  4 SYMMETRY CONTAMINATION OF 0.620D-03 HAS BEEN REMOVED
 *** IN SYMMETRY 3 ORBITAL  5 SYMMETRY CONTAMINATION OF 0.656D-02 HAS BEEN REMOVED
 *** IN SYMMETRY 3 ORBITAL  6 SYMMETRY CONTAMINATION OF 0.160D-01 HAS BEEN REMOVED
 EXTRA SYMMETRY OF MOS IN SYMMETRY 3:   1 1 1 3 1 2 1 2 3 1   2 3 1 1 2 3 1 2 3 1   2 3 1 2 3 1 2 3 1 2   3 1 2 3 1 2 3 2 3 1
                                        1 2 3 1 2 3 1 2 3 1   1 1 1 1 1 1 1 1 1 1   1
 *** IN SYMMETRY 4 ORBITAL  1 SYMMETRY CONTAMINATION OF 0.783D-04 HAS BEEN REMOVED
 *** IN SYMMETRY 4 ORBITAL  2 SYMMETRY CONTAMINATION OF 0.151D-02 HAS BEEN REMOVED
 EXTRA SYMMETRY OF MOS IN SYMMETRY 4:   1 1 1 1 1 2 3 1 1 2   3 1 2 3 1 1 1 1 1 1   1 1 1 1 1 1 1 1
 *** IN SYMMETRY 5 ORBITAL  1 SYMMETRY CONTAMINATION OF 0.406D-04 HAS BEEN REMOVED
 *** IN SYMMETRY 5 ORBITAL  2 SYMMETRY CONTAMINATION OF 0.542D-03 HAS BEEN REMOVED
 *** IN SYMMETRY 5 ORBITAL  3 SYMMETRY CONTAMINATION OF 0.251D-02 HAS BEEN REMOVED
 *** IN SYMMETRY 5 ORBITAL  4 SYMMETRY CONTAMINATION OF 0.934D-02 HAS BEEN REMOVED
 *** IN SYMMETRY 5 ORBITAL  6 SYMMETRY CONTAMINATION OF 0.524D-02 HAS BEEN REMOVED
 EXTRA SYMMETRY OF MOS IN SYMMETRY 5:   1 1 1 2 3 1 1 2 3 1   2 3 1 1 2 3 1 2 3 1   2 3 1 2 3 1 2 3 1 2   3 1 2 3 1 2 3 2 3 1
                                        1 2 3 1 2 3 1 2 3 1   1 1 1 1 1 1 1 1 1 1   1
 *** IN SYMMETRY 6 ORBITAL  1 SYMMETRY CONTAMINATION OF 0.178D-03 HAS BEEN REMOVED
 *** IN SYMMETRY 6 ORBITAL  2 SYMMETRY CONTAMINATION OF 0.779D-03 HAS BEEN REMOVED
 EXTRA SYMMETRY OF MOS IN SYMMETRY 6:   1 1 1 1 1 2 3 1 1 2   3 1 1 3 1 1 1 1 1 1   1 1 1 1 1 1 1 2
 *** IN SYMMETRY 7 ORBITAL  1 SYMMETRY CONTAMINATION OF 0.178D-03 HAS BEEN REMOVED
 *** IN SYMMETRY 7 ORBITAL  2 SYMMETRY CONTAMINATION OF 0.779D-03 HAS BEEN REMOVED
 EXTRA SYMMETRY OF MOS IN SYMMETRY 7:   1 1 1 1 1 2 3 1 1 2   3 1 1 3 1 1 1 1 1 1   1 1 1 1 1 1 1 2

 Wavefunction dump at record             5202.2

 Convergence thresholds  0.10E-01 (gradient)  0.13E-05 (energy)  0.10E-02 (step length)

 Weight factors for state symmetry  1:    0.33333
 Weight factors for state symmetry  2:    0.33333
 Weight factors for state symmetry  3:    0.33333

 Number of orbital rotations:     1886   (    15 Core/Active   1706 Core/Virtual   0 Active/Active    165 Active/Virtual)
 Total number of variables:       1889


 ITER. MIC  NCI  NEG     ENERGY(VAR)     ENERGY(PROJ)   ENERGY CHANGE     GRAD(0)  GRAD(ORB)   GRAD(CI)     STEP       TIME

   1   25   21    0  -15589.44072647  -15589.49581929   -0.05509282    1.34755383 0.00000002 0.00000000  0.54D-01      2.88
   2   20   24    0  -15589.49625572  -15589.49626492   -0.00000920    0.01643504 0.00000000 0.00000000  0.76D-03      5.67
   3   19   15    0  -15589.49626492  -15589.49626492   -0.00000000    0.00000330 0.00000000 0.00000000  0.16D-06      8.15

 ** WVFN ****  CONVERGENCE REACHED, FINAL GRADIENT:  0.43D-09



 Results for state 1.7
 =====================

 !MCSCF STATE 1.7 Energy             -15589.4489140880    
   --><property name="Energy" method="MCSCF" principal="true" stateSymmetry="7" stateNumber="1"
     value="-15589.448914088"/><!--
 Nuclear energy                         0.00000000
 Kinetic energy                     21851.44173217
 One electron energy               -21153.94339184
 Two electron energy                 5564.49447775
 Virial ratio                           1.71342885

 !MCSCF STATE 1.7 Dipole moment         0.00000000     0.00000000     0.00000000
 Dipole moment /Debye                   0.00000000     0.00000000     0.00000000
   --><property name="Dipole moment" method="MCSCF" principal="true" stateSymmetry="7"
     stateNumber="1" value="0.0 0.0 0.0"/><!--



 Results for state 1.6
 =====================

 !MCSCF STATE 1.6 Energy             -15589.4489140880    
   --><property name="Energy" method="MCSCF" principal="true" stateSymmetry="6" stateNumber="1"
     value="-15589.448914088"/><!--
 Nuclear energy                         0.00000000
 Kinetic energy                     21851.44173217
 One electron energy               -21153.94339184
 Two electron energy                 5564.49447775
 Virial ratio                           1.71342885

 !MCSCF STATE 1.6 Dipole moment         0.00000000     0.00000000     0.00000000
 Dipole moment /Debye                   0.00000000     0.00000000     0.00000000
   --><property name="Dipole moment" method="MCSCF" principal="true" stateSymmetry="6"
     stateNumber="1" value="0.0 0.0 0.0"/><!--



 Results for state 1.4
 =====================

 !MCSCF STATE 1.4 Energy             -15589.5909665776    
   --><property name="Energy" method="MCSCF" principal="true" stateSymmetry="4" stateNumber="1"
     value="-15589.5909665776"/><!--
 Nuclear energy                         0.00000000
 Kinetic energy                     21829.59161781
 One electron energy               -21105.71768438
 Two electron energy                 5516.12671780
 Virial ratio                           1.71414946

 !MCSCF STATE 1.4 Dipole moment         0.00000000     0.00000000     0.00000000
 Dipole moment /Debye                   0.00000000     0.00000000     0.00000000
   --><property name="Dipole moment" method="MCSCF" principal="true" stateSymmetry="4"
     stateNumber="1" value="0.0 0.0 0.0"/><!--

 State-averaged charge density matrix saved on record  5202.2 (density set 1)


 NATURAL ORBITALS (state averaged)
 =================================

   Orb     Occ        Energy       Coefficients

                                   1 1s      1 1s      1 1s      1 1s      1 1s      1 1s      1 1s      1 1s      1 1s      1 1s   
                                   1 1s      1 1s      1 1s      1 1s      1 1s      1 1s      1 1s      1 1s      1 1s      1 1s   
                                   1 1s      1 1s      1 1s      1 1s      1 1s      1 1s      1 1s      1 1s      1 1s      1 1s   
                                   1 1s      1 1s      1 1s      1 1s      1 1s      1 3d0     1 3d2+    1 3d0     1 3d2+    1 3d0  
                                   1 3d2+    1 3d0     1 3d2+    1 3d0     1 3d2+    1 3d0     1 3d2+    1 3d0     1 3d2+    1 3d0  
                                   1 3d2+    1 3d0     1 3d2+    1 3d0     1 3d2+    1 3d0     1 3d2+    1 3d0     1 3d2+    1 3d0  
                                   1 3d2+    1 3d0     1 3d2+    1 3d0     1 3d2+    1 3d0     1 3d2+    1 3d0     1 3d2+    1 3d0  
                                   1 3d2+    1 3d0     1 3d2+    1 3d0     1 3d2+    1 3d0     1 3d2+    1 3d0     1 3d2+    1 5g0  
                                   1 5g4+    1 5g2+    1 5g0     1 5g4+    1 5g2+    1 5g0     1 5g4+    1 5g2+ 

   1.1  2.00000 -2495.043697     0.000015  0.000042  0.000113  0.000255  0.000526  0.001001  0.001823  0.003218  0.005605  0.009712
                                 0.016883  0.029528  0.051948  0.091004  0.154441  0.238051  0.293119  0.229228  0.079045  0.006387
                                 0.000439 -0.000227  0.000083 -0.000084  0.000066 -0.000066 -0.000195  0.000038  0.000015 -0.000001
                                 0.000001 -0.000000  0.000213 -0.000030  0.000000  0.000000  0.000000  0.000000 -0.000000  0.000000
                                 0.000000  0.000000 -0.000000  0.000000  0.000000  0.000000 -0.000000  0.000000 -0.000000  0.000000
                                 0.000000  0.000000 -0.000000 -0.000000  0.000000 -0.000000 -0.000000 -0.000000  0.000000 -0.000000
                                 0.000000  0.000000  0.000000  0.000000 -0.000000  0.000000 -0.000000 -0.000000  0.000000  0.000000
                                 0.000000 -0.000000 -0.000000  0.000000 -0.000000 -0.000000  0.000000  0.000000  0.000000  0.000000
                                 0.000000  0.000000  0.000000  0.000000  0.000000  0.000000  0.000000  0.000000

   2.1  2.00000  -437.144670    -0.000006 -0.000016 -0.000043 -0.000096 -0.000198 -0.000378 -0.000690 -0.001220 -0.002134 -0.003720
                                -0.006526 -0.011576 -0.020816 -0.037778 -0.067914 -0.115457 -0.166036 -0.147997  0.063134  0.425696
                                 0.481479  0.172877  0.013933  0.000318  0.000012 -0.000434 -0.001298  0.000286  0.000117 -0.000008
                                 0.000005 -0.000002  0.001380 -0.000232  0.000001  0.000000  0.000000  0.000000  0.000000  0.000000
                                -0.000000  0.000000  0.000000  0.000001  0.000000  0.000004 -0.000000  0.000017  0.000000  0.000026
                                -0.000000  0.000015  0.000000  0.000002 -0.000000  0.000001 -0.000000  0.000001  0.000000 -0.000000
                                -0.000000 -0.000001 -0.000000 -0.000000  0.000000 -0.000000  0.000000  0.000000  0.000000 -0.000000
                                -0.000000  0.000000  0.000000  0.000000  0.000000 -0.000000 -0.000000 -0.000000  0.000000  0.000000
                                 0.000000  0.000000  0.000000  0.000000  0.000000  0.000000  0.000000  0.000000

   3.1  2.00000  -105.562630     0.000003  0.000007  0.000020  0.000046  0.000094  0.000179  0.000327  0.000579  0.001012  0.001767
                                 0.003104  0.005519  0.009959  0.018181  0.033004  0.057082  0.084517  0.077703 -0.050258 -0.356853
                                -0.538313 -0.062144  0.731013  0.541256  0.073290  0.012722  0.030350 -0.006360 -0.002574  0.000173
                                -0.000102  0.000043 -0.032389  0.005140 -0.000012  0.000000 -0.000000  0.000000 -0.000000  0.000001
                                -0.000000  0.000005 -0.000000  0.000018 -0.000000  0.000054  0.000000  0.000126 -0.000000  0.000237
                                -0.000000  0.000408  0.000000  0.000720 -0.000000  0.000428  0.000000  0.000013 -0.000000  0.000018
                                 0.000000  0.000050  0.000000 -0.000003 -0.000000 -0.000008 -0.000000  0.000001 -0.000000 -0.000000
                                 0.000000  0.000000 -0.000000 -0.000050 -0.000000  0.000012  0.000000 -0.000000  0.000000  0.000000
                                 0.000000  0.000000  0.000000  0.000000  0.000000  0.000000  0.000000  0.000000

   4.1  2.00000   -70.301947    -0.000000 -0.000000 -0.000000 -0.000000 -0.000000 -0.000000 -0.000001 -0.000001 -0.000002 -0.000003
                                -0.000006 -0.000010 -0.000018 -0.000033 -0.000060 -0.000105 -0.000155 -0.000145  0.000099  0.000688
                                 0.001104 -0.000036 -0.001883 -0.000585  0.000150 -0.000029 -0.000031  0.000020  0.000005 -0.000000
                                 0.000000 -0.000000  0.000041 -0.000004  0.000000  0.000024 -0.000000  0.000149 -0.000000  0.000839
                                -0.000000  0.003899 -0.000000  0.014993 -0.000000  0.046019 -0.000000  0.114715 -0.000000  0.221695
                                -0.000000  0.320566 -0.000000  0.306563 -0.000000  0.154526 -0.000000  0.034263  0.000000  0.002036
                                -0.000000 -0.000835 -0.000000  0.000247  0.000000  0.000220  0.000000 -0.000017 -0.000000  0.000005
                                 0.000000 -0.000002 -0.000000  0.001422  0.000000 -0.000296 -0.000000  0.000001  0.000000  0.000000
                                 0.000000  0.000000  0.000000  0.000000  0.000000  0.000000  0.000000  0.000000

   5.1  2.00000   -70.251097     0.000000 -0.000000  0.000000 -0.000000  0.000000 -0.000000  0.000000 -0.000000  0.000000 -0.000000
                                 0.000000 -0.000000  0.000000 -0.000000 -0.000000 -0.000000  0.000000 -0.000000  0.000000 -0.000000
                                 0.000000 -0.000000  0.000000 -0.000000  0.000000 -0.000000 -0.000000  0.000000  0.000000 -0.000000
                                 0.000000 -0.000000  0.000000 -0.000000  0.000000  0.000000  0.000024  0.000000  0.000149  0.000000
                                 0.000839  0.000000  0.003899  0.000000  0.014996  0.000000  0.046029  0.000000  0.114744  0.000000
                                 0.221751  0.000000  0.320624  0.000000  0.306379  0.000000  0.154386  0.000000  0.034462 -0.000000
                                 0.002183 -0.000000 -0.000812  0.000000  0.000263  0.000000  0.000229 -0.000000 -0.000018  0.000000
                                 0.000005 -0.000000 -0.000002  0.000000  0.001457 -0.000000 -0.000307  0.000000  0.000001  0.000000
                                 0.000000  0.000000  0.000000  0.000000  0.000000  0.000000  0.000000  0.000000

   6.1  2.00000   -25.891569    -0.000001 -0.000004 -0.000010 -0.000022 -0.000046 -0.000088 -0.000161 -0.000284 -0.000497 -0.000868
                                -0.001526 -0.002714 -0.004904 -0.008961 -0.016315 -0.028308 -0.042277 -0.039030  0.027335  0.202510
                                 0.325943  0.036701 -0.767064 -0.737875  0.503762  0.913622  0.259192 -0.033061 -0.015966  0.001112
                                -0.000661  0.000278 -0.059956  0.032462 -0.000075 -0.000000  0.000000 -0.000001 -0.000000 -0.000003
                                -0.000000 -0.000015  0.000000 -0.000056 -0.000000 -0.000174  0.000000 -0.000434 -0.000000 -0.000843
                                 0.000000 -0.001211 -0.000000 -0.001250  0.000000  0.000681 -0.000000  0.003477  0.000000  0.003374
                                -0.000000  0.000636 -0.000000 -0.000113  0.000000 -0.000071  0.000000  0.000005 -0.000000 -0.000001
                                 0.000000  0.000001 -0.000000  0.000122  0.000000  0.000078 -0.000000 -0.000000  0.000000  0.000000
                                 0.000000  0.000000  0.000000  0.000000  0.000000  0.000000  0.000000  0.000000

   7.1  2.00000   -13.387833     0.000000  0.000000  0.000000  0.000000  0.000000  0.000001  0.000001  0.000002  0.000004  0.000007
                                 0.000013  0.000023  0.000041  0.000074  0.000135  0.000235  0.000351  0.000326 -0.000233 -0.001712
                                -0.002813 -0.000239  0.007242  0.006074 -0.006124 -0.009341 -0.001073  0.000870  0.000273 -0.000039
                                 0.000022 -0.000009  0.003577 -0.001415  0.000002 -0.000012  0.000000 -0.000074  0.000000 -0.000419
                                 0.000000 -0.001952  0.000000 -0.007576  0.000000 -0.023430  0.000000 -0.059600  0.000000 -0.115350
                                 0.000000 -0.162246  0.000000 -0.111977  0.000000  0.121271 -0.000000  0.376815 -0.000000  0.414433
                                -0.000000  0.206399 -0.000000  0.036616  0.000000  0.004300  0.000000 -0.000163 -0.000000  0.000034
                                 0.000000 -0.000010 -0.000000  0.003514  0.000000 -0.005289 -0.000000  0.000003  0.000000  0.000000
                                 0.000000  0.000000  0.000000  0.000000  0.000000  0.000000  0.000000  0.000000

   8.1  2.00000   -13.328138    -0.000000  0.000000 -0.000000 -0.000000 -0.000000 -0.000000 -0.000000 -0.000000 -0.000000 -0.000000
                                 0.000000 -0.000000 -0.000000 -0.000000  0.000000 -0.000000 -0.000000 -0.000000  0.000000  0.000000
                                -0.000000  0.000000 -0.000000  0.000000 -0.000000  0.000000  0.000000  0.000000  0.000000 -0.000000
                                 0.000000 -0.000000 -0.000000 -0.000000  0.000000 -0.000000 -0.000012 -0.000000 -0.000074 -0.000000
[...]
 EXTRA SYMMETRY OF MOS IN SYMMETRY 7:   1 1 1 1 1 2 3 1 1 2   3 1 2 3 1 1 1 1 1 1   1 1 1 1 1 1 1 1

 Natural orbital dump (state averaged) at molpro section  5202.2    (Orbital set 2)


 CI vector for state symmetry 1
 ==============================

 2 a a           1.0000000

 TOTAL ENERGIES                    -15589.44891409

 CI vector for state symmetry 2
 ==============================

 a 2 a           1.0000000

 TOTAL ENERGIES                    -15589.44891409

 CI vector for state symmetry 3
 ==============================

 a a 2           1.0000000

 TOTAL ENERGIES                    -15589.59096658



 **********************************************************************************************************************************
 DATASETS  * FILE   NREC   LENGTH (MB)   RECORD NAMES
              1      23      148.72       500      610      700      900      950      970     1000      129      960     1700   
                                          VAR    BASINP    GEOM    SYMINP    ZMAT    AOBASIS   BASIS     P2S    ABASIS    OPER   
                                         1101     1401     1411     1412     1650     1100     1400     1410     1200     1210   
                                          SR      EKINR    POTR     PVPR    MOLCAS      S      EKIN      POT      H0       H01  
                                         1080     1600     1380   
                                         AOSYM     SMH     JKOP   

              2       5        6.69       700     1000      520     4202     5202   
                                         GEOM     BASIS   MCVARS     RHF     MCSCF   

 PROGRAMS   *        TOTAL     MULTI       POP       RHF       INT
 CPU TIMES  *       197.80     11.03      0.01      4.40    182.23
 REAL TIME  *       212.68 SEC
 DISK USED  *         4.72 GB      
 SF USED    *       496.54 MB      
 GA USED    *         0.00 MB       (max)       0.00 MB       (current)
 **********************************************************************************************************************************
   -->
   <time start="08:07:59" end="08:08:18" cpu="11.03" system="4.68" real="19.02"/>
   <storage units="megabyte" memory="24001.84" sf="496.54" df="84.35" eaf="4633.88"
     ga="0.0"/>
  </jobstep><!--
  --><jobstep command="RHF-SCF" commandset="SCFPRO">
   <!--


 PROGRAM * RHF-SCF (OPEN SHELL)       Authors: W. Meyer, H.-J. Werner


 NUMBER OF ELECTRONS:      34+   32-    SPACE SYMMETRY=4    SPIN SYMMETRY: Triplet 
 CONVERGENCE THRESHOLDS:    1.00E-05 (Density)    1.32E-07 (Energy)
 MAX. NUMBER OF ITERATIONS:        0
 INTERPOLATION TYPE:            DIIS
 INTERPOLATION STEPS:              2 (START)      1 (STEP)
 LEVEL SHIFTS:                 -0.60 (CLOSED) -0.30 (OPEN) 

 Number of closed-shell orbitals:   32 (   9   5   5   2   6   2   2   1 )
 Number of open-shell orbitals:      2 (   0   1   1   0   0   0   0   0 )


 Molecular orbitals read from record     5202.2  Type=MCSCF/NATURAL (state averaged)

 Molecular orbital dump at record        2101.2

 ITERATION    DDIFF          GRAD             ENERGY        2-EL.EN.            DIPOLE MOMENTS         DIIS   ORB.
    1      0.000D+00      0.000D+00    -15589.59096658  11032.253436    0.00000    0.00000    0.00000    0    start

 Final alpha occupancy:   9   6   6   2   6   2   2   1
 Final beta  occupancy:   9   5   5   2   6   2   2   1

 !RHF STATE 1.4 Energy               -15589.5909665776    
   --><property name="Energy" method="RHF" principal="true" stateSymmetry="4" stateNumber="1"
     value="-15589.5909665776"/><!--
 Nuclear energy                         0.00000000
 One-electron energy               -21105.71768438
 Two-electron energy                 5516.12671780
 Virial quotient                       -0.71414946
 !RHF STATE 1.4 Dipole moment           0.00000000     0.00000000     0.00000000
 Dipole moment /Debye                   0.00000000     0.00000000     0.00000000
   --><property name="Dipole moment" method="RHF" principal="true" stateSymmetry="4"
     stateNumber="1" value="0.0 0.0 0.0"/><!--

 Orbital energies:

         1.1          2.1          3.1          4.1          5.1          6.1          7.1          8.1          9.1         10.1
  -2495.043697  -437.144670  -105.562630   -70.301947   -70.251097   -25.891569   -13.387833   -13.328138    -6.766536    -2.891092

        11.1
     -2.859286

         1.2          2.2          3.2          4.2          5.2          6.2          7.2          8.2
   -384.437152   -89.518132   -20.464943    -5.388302    -5.191970    -5.000996    -2.002316    -1.547771

         1.3          2.3          3.3          4.3          5.3          6.3          7.3          8.3
   -384.437152   -89.518132   -20.464943    -5.388302    -5.191970    -5.000996    -2.002316    -1.547771

         1.4          2.4          3.4          4.4
    -70.251097   -13.328138    -2.859286    -1.482390

         1.5          2.5          3.5          4.5          5.5          6.5          7.5          8.5
   -384.454978   -89.596508   -20.570851    -5.538643    -5.461758    -5.041166    -2.025572    -1.557494

         1.6          2.6          3.6          4.6
    -70.290980   -13.378991    -2.882795    -1.493871

         1.7          2.7          3.7          4.7
    -70.290980   -13.378991    -2.882795    -1.493871

         1.8          2.8          3.8
     -5.461758    -1.544405    -0.984162

 HOMO      6.2    -5.000996 =    -136.0840eV
 LUMO     10.1    -2.891092 =     -78.6706eV
 LUMO-HOMO         2.109905 =      57.4134eV


 **********************************************************************************************************************************
 DATASETS  * FILE   NREC   LENGTH (MB)   RECORD NAMES
              1      23      148.72       500      610      700      900      950      970     1000      129      960     1700   
                                          VAR    BASINP    GEOM    SYMINP    ZMAT    AOBASIS   BASIS     P2S    ABASIS    OPER   
                                         1101     1401     1411     1412     1650     1100     1400     1410     1200     1210   
                                          SR      EKINR    POTR     PVPR    MOLCAS      S      EKIN      POT      H0       H01  
                                         1080     1600     1380   
                                         AOSYM     SMH     JKOP   

              2       6       10.15       700     1000      520     4202     5202     2101   
                                         GEOM     BASIS   MCVARS     RHF     MCSCF     RHF  

 PROGRAMS   *        TOTAL       RHF     MULTI       POP       RHF       INT
 CPU TIMES  *       198.06      0.26     11.03      0.01      4.40    182.23
 REAL TIME  *       213.02 SEC
 DISK USED  *         4.72 GB      
 SF USED    *       496.54 MB      
 GA USED    *         0.00 MB       (max)       0.00 MB       (current)
 **********************************************************************************************************************************
   -->
   <time start="08:08:18" end="08:08:18" cpu="0.26" system="0.05" real="0.34"/>
   <storage units="megabyte" memory="24001.84" sf="496.54" df="84.35" eaf="4633.88"
     ga="0.0"/>
  </jobstep><!--
 SETTING SCF(I)         =    -15589.59096658  AU                              
 SETTING _CC_NORM_MAX   =         2.00000000                                  
  --><jobstep command="RCCSD(T)" commandset="CCSD">
   <!--


 PROGRAM * CCSD (Restricted open-shell coupled cluster)     Authors: C. Hampel, H.-J. Werner, 1991, M. Deegan, P.J. Knowles, 1992


 Convergence thresholds:  THRVAR = 1.00D-08  THRDEN = 1.32D-06

 CCSD(T)     terms to be evaluated (factor= 1.000)


 Number of core orbitals:          30 (   8   5   5   2   5   2   2   1 )
 Number of closed-shell orbitals:   2 (   1   0   0   0   1   0   0   0 )
 Number of active  orbitals:        2 (   0   1   1   0   0   0   0   0 )
 Number of external orbitals:     336 (  79  55  55  26  55  26  26  14 )

 Memory could be reduced to 54.06 Mwords without degradation in triples

 Number of N-1 electron functions:               6
 Number of N-2 electron functions:              15
 Number of singly external CSFs:               380
 Number of doubly external CSFs:            173494
 Total number of CSFs:                      173874

 Molecular orbitals read from record     2101.2  Type=RHF/CANONICAL (state 1.4)

 Integral transformation finished. Total CPU:   1.42 sec, npass=  1  Memory used:   8.18 MW

 Starting RMP2 calculation

 Wavefunction is spin-projected

 ITER.      SQ.NORM     CORR.ENERGY   TOTAL ENERGY   ENERGY CHANGE        DEN1      VAR(S)    VAR(P)  DIIS     TIME
   1      1.00937733    -0.07894997-15589.66991655    -0.07894997    -0.00017585  0.96D-05  0.13D-04  1  1     1.68
   2      1.00942894    -0.07913539-15589.67010197    -0.00018542    -0.00000003  0.65D-09  0.23D-08  2  2     1.69
   3      1.00942928    -0.07913618-15589.67010275    -0.00000078    -0.00000000  0.69D-13  0.73D-12  3  3     1.70

 Norm of t1 vector:      0.05843180      S-energy:    -0.02155732      T1 diagnostic:  0.01677266
 Norm of t2 vector:      0.07755643      P-energy:    -0.05757885
                                         Alpha-Beta:  -0.04655119
                                         Alpha-Alpha: -0.00998557
                                         Beta-Beta:   -0.00104209

 Spin contamination <S**2-Sz**2-Sz>     0.00000000
  Reference energy                   -15589.5909665776    
   --><property name="energy" method="Reference" stateSymmetry="1" stateNumber="1"
     value="-15589.5909665776"/><!--
  RHF-RMP2 correlation energy          -0.079136175408
   --><property name="energy" method="RHF-RMP2 correlation" stateSymmetry="1" stateNumber="1"
     value="-0.791361754076117E-01"/><!--
 !RHF-RMP2 energy                    -15589.6701027530    
   --><property name="energy" method="RHF-RMP2" principal="true" stateSymmetry="4"
     stateNumber="1" value="-15589.670102753"/><!--
 (NB above energy spin projected)

 Starting RCCSD calculation

 ITER.      SQ.NORM     CORR.ENERGY   TOTAL ENERGY   ENERGY CHANGE        DEN1      VAR(S)    VAR(P)  DIIS     TIME
   1      1.01075401    -0.08328522-15589.67425180    -0.08328522    -0.00148285  0.28D-04  0.17D-03  1  1     2.98
   2      1.01139719    -0.08500568-15589.67597226    -0.00172046    -0.00002127  0.31D-06  0.29D-05  2  2     4.29
   3      1.01147497    -0.08513850-15589.67610508    -0.00013282    -0.00000025  0.58D-08  0.32D-07  3  3     5.58
   4      1.01147949    -0.08514484-15589.67611142    -0.00000635    -0.00000001  0.42D-10  0.92D-09  4  4     6.88
   5      1.01147940    -0.08514454-15589.67611112     0.00000030    -0.00000000  0.15D-11  0.38D-10  5  5     8.16

 Norm of t1 vector:      0.06052370      S-energy:    -0.02222829      T1 diagnostic:  0.01729973
                                                                       D1 diagnostic:  0.02457959
 Norm of t2 vector:      0.08840972      P-energy:    -0.06291625
                                         Alpha-Beta:  -0.05184848
                                         Alpha-Alpha: -0.00994398
                                         Beta-Beta:   -0.00112379

 Spin contamination <S**2-Sz**2-Sz>     0.00000000

 Memory could be reduced to 54.47 Mwords without degradation in triples
 

  Correlated core orbitals:             9.1       6.2       6.3       6.5
  Orbital energies:                    -6.9798   -5.9969   -5.9969   -5.4164
 
  RCCSD core-core energy               -0.085144544360
   --><property name="core-core energy" method="RCCSD" stateSymmetry="4" stateNumber="1"
     value="-0.851445443604033E-01"/><!--
 

 RESULTS
 =======

  Reference energy                   -15589.5909665776    
   --><property name="energy" method="Reference" stateSymmetry="1" stateNumber="1"
     value="-15589.5909665776"/><!--
  RCCSD singles energy                 -0.022228294154
   --><property name="energy" method="RCCSD singles" stateSymmetry="1" stateNumber="1"
     value="-0.22228294153931E-01"/><!--
  RCCSD pair energy                    -0.062916250206
   --><property name="energy" method="RCCSD pair" stateSymmetry="1" stateNumber="1"
     value="-0.629162502064723E-01"/><!--
  RCCSD correlation energy             -0.085144544360
   --><property name="energy" method="RCCSD correlation" stateSymmetry="1" stateNumber="1"
     value="-0.851445443604033E-01"/><!--
  Triples (T) contribution             -0.000241776538
   --><property name="contribution" method="Triples (T)" stateSymmetry="1" stateNumber="1"
     value="-0.241776538481612E-03"/><!--
  Total correlation energy             -0.085386320899
   --><property name="energy" method="Total correlation" stateSymmetry="1" stateNumber="1"
     value="-0.853863208988849E-01"/><!--
 
  RHF-RCCSD energy                   -15589.6761111220    
   --><property name="energy" method="RHF-RCCSD" stateSymmetry="1" stateNumber="1"
     value="-15589.676111122"/><!--
  RHF-RCCSD[T] energy                -15589.6763264316    
   --><property name="energy" method="RHF-RCCSD[T]" stateSymmetry="1" stateNumber="1"
     value="-15589.6763264316"/><!--
  RHF-RCCSD-T energy                 -15589.6763520330    
   --><property name="energy" method="RHF-RCCSD-T" stateSymmetry="1" stateNumber="1"
     value="-15589.676352033"/><!--
 !RHF-RCCSD(T) energy                -15589.6763528985    
   --><property name="energy" method="RHF-RCCSD(T)" principal="true" stateSymmetry="1"
     stateNumber="1" value="-15589.6763528985"/><!--

 Program statistics:

 Available memory in ccsd:              2999999732
 Min. memory needed in ccsd:               1018852
 Max. memory used in ccsd:                 1165778
 Max. memory used in cckext:               1522306 ( 5 integral passes)
 Max. memory used in cckint:               8182196 ( 1 integral passes)



 **********************************************************************************************************************************
 DATASETS  * FILE   NREC   LENGTH (MB)   RECORD NAMES
              1      23      148.72       500      610      700      900      950      970     1000      129      960     1700   
                                          VAR    BASINP    GEOM    SYMINP    ZMAT    AOBASIS   BASIS     P2S    ABASIS    OPER   
                                         1101     1401     1411     1412     1650     1100     1400     1410     1200     1210   
                                          SR      EKINR    POTR     PVPR    MOLCAS      S      EKIN      POT      H0       H01  
                                         1080     1600     1380   
                                         AOSYM     SMH     JKOP   

              2       6       10.15       700     1000      520     4202     5202     2101   
                                         GEOM     BASIS   MCVARS     RHF     MCSCF     RHF  

 PROGRAMS   *        TOTAL  RCCSD(T)       RHF     MULTI       POP       RHF       INT
 CPU TIMES  *       208.91     10.85      0.26     11.03      0.01      4.40    182.23
 REAL TIME  *       225.76 SEC
 DISK USED  *         5.16 GB      
 SF USED    *       522.80 MB      
 GA USED    *         0.00 MB       (max)       0.00 MB       (current)
 **********************************************************************************************************************************
   -->
   <time start="08:08:18" end="08:08:31" cpu="10.85" system="1.24" real="12.74"/>
   <storage units="megabyte" memory="24001.84" sf="522.8" df="530.74" eaf="4633.88"
     ga="0.0"/>
  </jobstep><!--
 SETTING CCSD(I)        =    -15589.67635290  AU                              
 Output type csv         
                                                                                                                                                                                                                                                                

          SCF,CCSD
   -15589.59097,   -15589.67635
                                                  
-->
<table xmlns="http://www.w3.org/1999/xhtml" id="table1">
<thead><tr><th>SCF  </th><th>CCSD </th></tr></thead><tbody>
<tr><td>   -15589.59097</td><td>   -15589.67635</td></tr>
</tbody></table>
<!--

 RCCSD(T)/USERDEF energy= -15589.676352898541

        RCCSD(T)        RHF-SCF         MULTI           RHF-SCF 
 -15589.67635290 -15589.59096658 -15589.59096658 -15589.64382600
 **********************************************************************************************************************************
 Molpro calculation terminated
 Variable memory released
  --><stm:metadataList>
   <stm:metadata name="dc:date" content="2022-10-10T08:08:31-07:00"/>
   <stm:metadata name="dc:creator" content="haihan"/>
   <stm:metadata name="dc:title" content="Calculation for Nb atom, singlet and triplet"/>
   <stm:metadata name="cmlm:insilico" content="Molpro"/>
  </stm:metadataList><!--
  --><platform>
   <version major="2015" minor="1" SHA="19cd028119e0e09f93f0674bd8af7968d9b3eff6"
     integer_bits="64" parallelism="mpp">
    2015.1
    <date year="2022" month="10" day="10" hour="8" minute="4" second="46">
     2022-10-10T08:04:46
    </date>
   </version>
   <licence id="lbl"/>
   <parallel processes="3" nodes="1" all_processes="3" openmp="1"/>
   <machine hostname="" architecture="">
     64 bit mpp version
    <sysinfo name="cpu MHz" content="3473.375"/>
    <sysinfo name="MemTotal" content="131890088 kB"/>
    <sysinfo name="vendor_id" content="GenuineIntel"/>
    <sysinfo name="cpu family" content="6"/>
    <sysinfo name="model name" content="Intel(R) Xeon(R) CPU E5-2698 v3 @ 2.30GHz"/>
    <sysinfo name="flags"
      content="fpu vme de pse tsc msr pae mce cx8 apic sep mtrr pge mca cmov pat pse36 clflush dts acpi mmx fxsr sse sse2 ss ht tm pbe syscall nx pdpe1gb rdtscp lm constant_tsc arch_perfmon pebs bts rep_good nopl xtopology nonstop_tsc cpuid aperfmperf pni pclmulqdq dtes64 monitor ds_cpl vmx smx est tm2 ssse3 sdbg fma cx16 xtpr pdcm pcid dca sse4_1 sse4_2 x2apic movbe popcnt tsc_deadline_timer aes xsave avx f16c rdrand lahf_lm abm cpuid_fault epb invpcid_single pti intel_ppin ssbd ibrs ibpb stibp tpr_shadow vnmi flexpriority ept vpid ept_ad fsgsbase tsc_adjust bmi1 avx2 smep bmi2 erms invpcid cqm xsaveopt cqm_llc cqm_occup_llc dtherm ida arat pln pts md_clear flush_l1d"/>
    <sysinfo name="MemTotal" content="131890088 kB"/>
    <sysinfo name="cache size" content="40960 KB"/>
    <sysinfo name="ncpu" content="64"/>
   </machine>
  </platform><!--
  -->
  <input>
   <p> ***,Calculation for Nb atom, singlet and triplet </p>
   <p> memory,3,g </p>
   <p> gthresh,twoint=1.e-15 </p>
   <p> gthresh,oneint=1.e-15 </p>
   <p> set,dkroll=1,dkho=10,dkhp=4 </p>
   <p> geometry={ </p>
   <p> 1 </p>
   <p> Ta </p>
   <p> Ta  0.0 0.0 0.0 </p>
   <p> } </p>
   <p> basis={ </p>
   <include file="/global/u2/h/haihan/Research/ECP/f_group_element_ecps/Ta/Molpro/atom/UC/test_13/../aug-cc-pwCVTZ.basis"/>
   <p> } </p>
   <p> {rhf </p>
   <p>  start,atden </p>
   <p>  print,orbitals=2 </p>
   <p>  wf,66,4,2 </p>
   <p>  occ,9,6,6,2,6,2,2,1 </p>
   <p>  closed,9,5,5,2,6,2,2,1 </p>
   <p>  orbital,4202.2 </p>
   <p> } </p>
   <p> pop </p>
   <p> {multi </p>
   <p>  start,4202.2 </p>
   <p>  occ,9,6,6,2,6,2,2,1 </p>
   <p>  closed,9,5,5,2,5,2,2,1 </p>
   <p>  wf,66,7,2;state,1 </p>
   <p>  wf,66,6,2;state,1 </p>
   <p>  wf,66,4,2;state,1 </p>
   <p>  natorb,ci,print </p>
   <p>  orbital,5202.2 </p>
   <p> } </p>
   <p> {rhf,nitord=1,maxit=0 </p>
   <p>  start,5202.2 </p>
   <p>  wf,66,4,2 </p>
   <p>  occ,9,6,6,2,6,2,2,1 </p>
   <p>  closed,9,5,5,2,6,2,2,1 </p>
   <p> } </p>
   <p> scf(i)=energy </p>
   <p> _CC_NORM_MAX=2.0 </p>
   <p> {rccsd(t),maxit=100;core,8,5,5,2,5,2,2,1} </p>
   <p> ccsd(i)=energy </p>
   <p> table,scf,ccsd </p>
   <p> type,csv </p>
   <p> save </p>
  </input>
  <!--
 --></job><!--
--></molpro>
