
 Primary working directories    : /global/cscratch1/sd/haihan
 Secondary working directories  : /global/cscratch1/sd/haihan
 Wavefunction directory         : /global/homes/h/haihan/wfu/
 Main file repository           : /global/cscratch1/sd/haihan/

 SHA1      : 19cd028119e0e09f93f0674bd8af7968d9b3eff6
 NAME      : 2015.1.36
 ARCHNAME  : linux/x86_64
 FC        : /opt/cray/pe/craype/2.5.14/bin/ftn
 BLASLIB   : -L/opt/intel/compilers_and_libraries_2018.1.163/linux/mkl/lib/intel64 -Wl,-_start-group -lmkl_intel_ilp64 -lmkl_intel_thread -lmkl_core -Wl,-_end-group -liomp5
 id        : lbl

 Nodes     nprocs
 nid00151    11
 Number of processes for MPI-2 version of Molpro:   nprocs(total)=   12   nprocs(compute)=   11   nprocs(helper)=    1

 Using customized tuning parameters: mindgm=7; mindgv=16; mindgc=1; mindgr=1; noblas=0; minvec=7
 default implementation of scratch files=sf  

 ***,Calculation for Nb atom, singlet and triplet
 memory,1,g
 
 gthresh,twoint=1.e-15
 gthresh,oneint=1.e-15
 
 geometry={
 1
 Nb
 Nb  0.0 0.0 0.0
 }
 
 basis={
 Including file /global/u2/h/haihan/Research/ECP/f_group_element_ecps/Nb/Molpro/atom/UC/aug-cc-pwCVTZ.basis
 }
 
 set,dkroll=1,dkho=10,dkhp=4
 
 
 
 Including file /global/u2/h/haihan/Research/ECP/f_group_element_ecps/Nb/Molpro/atom/UC/Nb_states_ae.proc
 
 
 do i=1,17
     if (i.eq.1) then
         Id4s1
     else if (i.eq.2) then
         Id5
     else if (i.eq.3) then
         EAd4s2
     else if (i.eq.4) then
         IPd4
     else if (i.eq.5) then
         IPd3s1
     else if (i.eq.6) then
         IId3
     else if (i.eq.7) then
         IIId2
     else if (i.eq.8) then
         IVd1
     else if (i.eq.9) then
         IVp1
     else if (i.eq.10) then
         IVf1
     else if (i.eq.11) then
         Vp6
     else if (i.eq.12) then
         VIp5
     else if (i.eq.13) then
         VIIp4
     else if (i.eq.14) then
         VIIIp3
     else if (i.eq.15) then
         IXp2
     else if (i.eq.16) then
         Xp1
     else if (i.eq.17) then
         XIp
     endif
     scf(i)=energy
     _CC_NORM_MAX=2.0
     {rccsd(t),maxit=100;core,5,2,2,1,2,1,1}
     ccsd(i)=energy
 enddo
 
 table,scf,ccsd
 type,csv
 save
 

 Variables initialized (889), CPU time= 0.00 sec
 Commands  initialized (702), CPU time= 0.01 sec, 572 directives.
 Default parameters read. Elapsed time= 0.16 sec

 Checking input...
 Passed
1


                                         ***  PROGRAM SYSTEM MOLPRO  ***
                                       Copyright, TTI GmbH Stuttgart, 2015
                                    Version 2015.1 linked Dec 29 2018 15:55:43


 **********************************************************************************************************************************
 LABEL *   Calculation for Nb atom, singlet and triplet                                  
  64 bit mpp version                                                                     DATE: 02-Oct-22          TIME: 19:51:26  
 **********************************************************************************************************************************

 SHA1:             19cd028119e0e09f93f0674bd8af7968d9b3eff6
 **********************************************************************************************************************************

 THRESHOLDS:

 ZERO    =  1.00D-12  ONEINT  =  1.00D-12  TWOINT  =  1.00D-15  PREFAC  =  1.00D-14  LOCALI  =  1.00D-09  EORDER  =  1.00D-04
 ENERGY  =  0.00D+00  ETEST   =  0.00D+00  EDENS   =  0.00D+00  THRDEDEF=  1.00D-06  GRADIENT=  1.00D-02  STEP    =  1.00D-03
 ORBITAL =  1.00D-05  CIVEC   =  1.00D-05  COEFF   =  1.00D-04  PRINTCI =  5.00D-02  PUNCHCI =  9.90D+01  OPTGRAD =  3.00D-04
 OPTENERG=  1.00D-06  OPTSTEP =  3.00D-04  THRGRAD =  1.00D-10  COMPRESS=  1.00D-11  VARMIN  =  1.00D-07  VARMAX  =  1.00D-03
 THRDOUB =  0.00D+00  THRDIV  =  1.00D-05  THRRED  =  1.00D-07  THRPSP  =  1.00D+00  THRDC   =  1.00D-10  THRCS   =  1.00D-10
 THRNRM  =  1.00D-08  THREQ   =  0.00D+00  THRDE   =  1.00D+00  THRREF  =  1.00D-05  SPARFAC =  1.00D+00  THRDLP  =  1.00D-07
 THRDIA  =  1.00D-10  THRDLS  =  1.00D-07  THRGPS  =  0.00D+00  THRKEX  =  0.00D+00  THRDIS  =  2.00D-01  THRVAR  =  1.00D-10
 THRLOC  =  1.00D-06  THRGAP  =  1.00D-06  THRLOCT = -1.00D+00  THRGAPT = -1.00D+00  THRORB  =  1.00D-06  THRMLTP =  0.00D+00
 THRCPQCI=  1.00D-10  KEXTA   =  0.00D+00  THRCOARS=  0.00D+00  SYMTOL  =  1.00D-06  GRADTOL =  1.00D-06  THROVL  =  1.00D-08
 THRORTH =  1.00D-08  GRID    =  1.00D-06  GRIDMAX =  1.00D-03  DTMAX   =  0.00D+00  THROCCDE=  1.00D-01  THROCCDE=  1.00D-01



 THRESHOLDS:

 ZERO    =  1.00D-12  ONEINT  =  1.00D-15  TWOINT  =  1.00D-15  PREFAC  =  1.00D-14  LOCALI  =  1.00D-09  EORDER  =  1.00D-04
 ENERGY  =  0.00D+00  ETEST   =  0.00D+00  EDENS   =  0.00D+00  THRDEDEF=  1.00D-06  GRADIENT=  1.00D-02  STEP    =  1.00D-03
 ORBITAL =  1.00D-05  CIVEC   =  1.00D-05  COEFF   =  1.00D-04  PRINTCI =  5.00D-02  PUNCHCI =  9.90D+01  OPTGRAD =  3.00D-04
 OPTENERG=  1.00D-06  OPTSTEP =  3.00D-04  THRGRAD =  1.00D-10  COMPRESS=  1.00D-11  VARMIN  =  1.00D-07  VARMAX  =  1.00D-03
 THRDOUB =  0.00D+00  THRDIV  =  1.00D-05  THRRED  =  1.00D-07  THRPSP  =  1.00D+00  THRDC   =  1.00D-10  THRCS   =  1.00D-10
 THRNRM  =  1.00D-08  THREQ   =  0.00D+00  THRDE   =  1.00D+00  THRREF  =  1.00D-05  SPARFAC =  1.00D+00  THRDLP  =  1.00D-07
 THRDIA  =  1.00D-10  THRDLS  =  1.00D-07  THRGPS  =  0.00D+00  THRKEX  =  0.00D+00  THRDIS  =  2.00D-01  THRVAR  =  1.00D-10
 THRLOC  =  1.00D-06  THRGAP  =  1.00D-06  THRLOCT = -1.00D+00  THRGAPT = -1.00D+00  THRORB  =  1.00D-06  THRMLTP =  0.00D+00
 THRCPQCI=  1.00D-10  KEXTA   =  0.00D+00  THRCOARS=  0.00D+00  SYMTOL  =  1.00D-06  GRADTOL =  1.00D-06  THROVL  =  1.00D-08
 THRORTH =  1.00D-08  GRID    =  1.00D-06  GRIDMAX =  1.00D-03  DTMAX   =  0.00D+00  THROCCDE=  1.00D-01  THROCCDE=  1.00D-01



Geometry recognized as XYZ


 Variable memory set to 1000000000 words,  buffer space   230000 words

 SETTING BASIS          =    USERDEF
 SETTING DKROLL         =         1.00000000                                  
 SETTING DKHO           =        10.00000000                                  
 SETTING DKHP           =         4.00000000                                  

 DO I                   =         1.00000000   

 Running procedure=ID4S1


 Recomputing integrals since basis changed


 Using spherical harmonics



 PROGRAM * SEWARD (Integral evaluation for generally contracted gaussian basis sets)     Author: Roland Lindh, 1990

 Geometry written to block  1 of record 700

 Orientation using atomic masses  
 Molecule type: Atom
 Symmetry elements: X,Y,Z
 Rotational constants:       0.0000000      0.0000000      0.0000000 GHz  (calculated with average atomic masses)

 Point group  D2h 



 ATOMIC COORDINATES

 NR  ATOM    CHARGE       X              Y              Z

   1  NB     41.00    0.000000000    0.000000000    0.000000000

 NUCLEAR CHARGE:                   41
 NUMBER OF PRIMITIVE AOS:         404
 NUMBER OF SYMMETRY AOS:          333
 NUMBER OF CONTRACTIONS:          333   (  93Ag  +  45B3u +  45B2u +  33B1g +  45B1u +  33B2g +  33B3g +   6Au  )
 NUMBER OF CORE ORBITALS:          18   (   6Ag  +   3B3u +   3B2u +   1B1g +   3B1u +   1B2g +   1B3g +   0Au  )
 NUMBER OF VALENCE ORBITALS:        6   (   3Ag  +   0B3u +   0B2u +   1B1g +   0B1u +   1B2g +   1B3g +   0Au  )


 NUCLEAR REPULSION ENERGY    0.00000000

 One-electron integrals computed with SEWARD

 10nd-order Douglas-Kroll-Hess method activated. McWeeny DKH parametrization is used.

 Computing Douglas-Kroll / X2C integrals

 AO integral compression algorithm  1   Integral accuracy      1.0D-15

     1579.680 MB (compressed) written to integral file ( 49.2%)

     Node minimum: 52.429 MB, node maximum: 204.997 MB


 NUMBER OF SORTED TWO-ELECTRON INTEGRALS:   18225073.     BUFFER LENGTH:  32768
 NUMBER OF SEGMENTS:   1  SEGMENT LENGTH:   18225073      RECORD LENGTH: 524288

 Memory used in sort:      18.78 MW

 SORT1 READ   400923133. AND WROTE    11885292. INTEGRALS IN     35 RECORDS. CPU TIME:     8.06 SEC, REAL TIME:     8.40 SEC
 SORT2 READ   131150808. AND WROTE   200699433. INTEGRALS IN   7964 RECORDS. CPU TIME:     0.42 SEC, REAL TIME:     0.91 SEC

 Node minimum:    18225073.  Node maximum:    18302042. integrals

 OPERATOR DM      FOR CENTER  0  COORDINATES:    0.000000    0.000000    0.000000

 EXTRA SYMMETRY OF AOS IN SYMMETRY 1:   1 1 1 1 1 1 1 1 1 1   1 1 1 1 1 1 1 1 1 1   1 1 1 1 1 1 1 1 1 1   1 1 2 3 2 3 2 3 2 3
                                        2 3 2 3 2 3 2 3 2 3   2 3 2 3 2 3 2 3 2 3   2 3 2 3 2 3 2 3 2 3   2 3 2 3 2 3 2 3 4 5
                                        6 4 5 6 4 5 6 4 5 6   4 5 6
 EXTRA SYMMETRY OF AOS IN SYMMETRY 2:   1 1 1 1 1 1 1 1 1 1   1 1 1 1 1 1 1 1 1 1   1 1 1 1 1 1 1 1 1 1   1 1 1 2 3 2 3 2 3 2
                                        3 2 3 2 3
 EXTRA SYMMETRY OF AOS IN SYMMETRY 3:   1 1 1 1 1 1 1 1 1 1   1 1 1 1 1 1 1 1 1 1   1 1 1 1 1 1 1 1 1 1   1 1 1 2 3 2 3 2 3 2
                                        3 2 3 2 3
 EXTRA SYMMETRY OF AOS IN SYMMETRY 4:   1 1 1 1 1 1 1 1 1 1   1 1 1 1 1 1 1 1 1 1   1 1 1 2 3 2 3 2 3 2   3 2 3
 EXTRA SYMMETRY OF AOS IN SYMMETRY 5:   1 1 1 1 1 1 1 1 1 1   1 1 1 1 1 1 1 1 1 1   1 1 1 1 1 1 1 1 1 1   1 1 1 2 3 2 3 2 3 2
                                        3 2 3 2 3
 EXTRA SYMMETRY OF AOS IN SYMMETRY 6:   1 1 1 1 1 1 1 1 1 1   1 1 1 1 1 1 1 1 1 1   1 1 1 2 3 2 3 2 3 2   3 2 3
 EXTRA SYMMETRY OF AOS IN SYMMETRY 7:   1 1 1 1 1 1 1 1 1 1   1 1 1 1 1 1 1 1 1 1   1 1 1 2 3 2 3 2 3 2   3 2 3

 Eigenvalues of metric

         1 0.114E-04 0.314E-04 0.399E-04 0.399E-04 0.621E-04 0.128E-03 0.222E-03 0.664E-03
         2 0.339E-06 0.217E-05 0.607E-05 0.127E-04 0.264E-04 0.499E-04 0.360E-03 0.597E-03
         3 0.339E-06 0.217E-05 0.607E-05 0.127E-04 0.264E-04 0.499E-04 0.360E-03 0.597E-03
         4 0.399E-04 0.664E-03 0.112E-02 0.208E-02 0.393E-02 0.742E-02 0.137E-01 0.245E-01
         5 0.339E-06 0.217E-05 0.607E-05 0.127E-04 0.264E-04 0.499E-04 0.360E-03 0.597E-03
         6 0.399E-04 0.664E-03 0.112E-02 0.208E-02 0.393E-02 0.742E-02 0.137E-01 0.245E-01
         7 0.399E-04 0.664E-03 0.112E-02 0.208E-02 0.393E-02 0.742E-02 0.137E-01 0.245E-01
         8 0.453E-01 0.220E+00 0.464E+00 0.952E+00 0.183E+01 0.249E+01


 **********************************************************************************************************************************
 DATASETS  * FILE   NREC   LENGTH (MB)   RECORD NAMES
              1      22       21.22       500      610      700      900      950      970     1000      129      960     1700   
                                          VAR    BASINP    GEOM    SYMINP    ZMAT    AOBASIS   BASIS     P2S    ABASIS    OPER   
                                         1101     1401     1411     1412     1650     1100     1400     1410     1200     1210   
                                          SR      EKINR    POTR     PVPR    MOLCAS      S      EKIN      POT      H0       H01  
                                         1080     1600   
                                         AOSYM     SMH  

 PROGRAMS   *        TOTAL       INT
 CPU TIMES  *       102.82    102.46
 REAL TIME  *       105.99 SEC
 DISK USED  *         3.19 GB      
 GA USED    *         0.00 MB       (max)       0.00 MB       (current)
 **********************************************************************************************************************************


 PROGRAM * RHF-SCF (OPEN SHELL)       Authors: W. Meyer, H.-J. Werner


 NUMBER OF ELECTRONS:      23+   18-    SPACE SYMMETRY=1    SPIN SYMMETRY: Sextet  
 CONVERGENCE THRESHOLDS:    1.00E-05 (Density)    1.00E-07 (Energy)
 MAX. NUMBER OF ITERATIONS:       60
 INTERPOLATION TYPE:            DIIS
 INTERPOLATION STEPS:              2 (START)      1 (STEP)
 LEVEL SHIFTS:                 -0.60 (CLOSED) -0.30 (OPEN) 

 Number of closed-shell orbitals:   18 (   6   3   3   1   3   1   1   0 )
 Number of open-shell orbitals:      5 (   2   0   0   1   0   1   1   0 )


 
 Extra symmetries of mos in symmetry 1:   1   1   1   3   2   1   1   3   2
     Symmetry restrictions:    1             1
 Orbital guess generated from atomic densities. Full valence occupancy:    9   3   3   2   3   2   2   0


 Molecular orbital dump at record        3202.2

 ITERATION    DDIFF          GRAD             ENERGY        2-EL.EN.            DIPOLE MOMENTS         DIIS   ORB.
    1      0.000D+00      0.000D+00     -3812.90371273   2719.629153    0.00000    0.00000    0.00000    0    start
    2      0.000D+00      0.178D-01     -3816.42088733   2989.817119    0.00000    0.00000    0.00000    1    diag,B
    3      0.240D+00      0.282D-01     -3816.95621245   2954.717263    0.00000    0.00000    0.00000    2    diag,B
    4      0.370D-01      0.129D-01     -3817.17101818   2934.765947    0.00000    0.00000    0.00000    3    diag,B
    5      0.186D-01      0.665D-02     -3817.26823420   2916.986263    0.00000    0.00000    0.00000    4    diag,B
    6      0.105D-01      0.170D-02     -3817.28348242   2909.449783    0.00000    0.00000    0.00000    5    diag,B
    7      0.629D-02      0.409D-03     -3817.28509364   2908.275502    0.00000    0.00000    0.00000    6    fixocc
    8      0.308D-02      0.280D-03     -3817.28547133   2908.359113    0.00000    0.00000    0.00000    7    diag,B
    9      0.168D-02      0.112D-03     -3817.28556166   2908.541873    0.00000    0.00000    0.00000    8    diag,B
   10      0.991D-03      0.270D-04     -3817.28557786   2908.609517    0.00000    0.00000    0.00000    9    orth
   11      0.169D-03      0.315D-04     -3817.28558130   2908.575024    0.00000    0.00000    0.00000    9    diag,B
   12      0.189D-03      0.161D-04     -3817.28558254   2908.538421    0.00000    0.00000    0.00000    9    diag,B
   13      0.245D-04      0.370D-05     -3817.28558297   2908.536554    0.00000    0.00000    0.00000    9    diag,B
   14      0.477D-04      0.260D-05     -3817.28558334   2908.536602    0.00000    0.00000    0.00000    9    diag,B
   15      0.140D-04      0.101D-05     -3817.28558338   2908.536702    0.00000    0.00000    0.00000    9    diag,B
   16      0.149D-04      0.285D-06     -3817.28558339   2908.536926    0.00000    0.00000    0.00000    9    diag,B
   17      0.192D-05      0.136D-06     -3817.28558339   2908.536945    0.00000    0.00000    0.00000    0    orth

 Final alpha occupancy:   8   3   3   2   3   2   2   0
 Final beta  occupancy:   6   3   3   1   3   1   1   0

 !RHF STATE 1.1 Energy              -3817.285583386073
 Nuclear energy                         0.00000000
 One-electron energy                -5271.55405585
 Two-electron energy                 1454.26847247
 Virial quotient                       -0.90733165
 !RHF STATE 1.1 Dipole moment           0.00000000     0.00000000     0.00000000
 Dipole moment /Debye                   0.00000000     0.00000000     0.00000000

 ELECTRON ORBITALS
 =================


   Orb  Occ    Energy  Couls-En    Coefficients

                                   1 1s      1 1s      1 1s      1 1s      1 1s      1 1s      1 1s      1 1s      1 1s      1 1s   
                                   1 1s      1 1s      1 1s      1 1s      1 1s      1 1s      1 1s      1 1s      1 1s      1 1s   
                                   1 1s      1 1s      1 1s      1 1s      1 1s      1 1s      1 1s      1 1s      1 1s      1 1s   
                                   1 1s      1 1s      1 3d0     1 3d2+    1 3d0     1 3d2+    1 3d0     1 3d2+    1 3d0     1 3d2+ 
                                   1 3d0     1 3d2+    1 3d0     1 3d2+    1 3d0     1 3d2+    1 3d0     1 3d2+    1 3d0     1 3d2+ 
                                   1 3d0     1 3d2+    1 3d0     1 3d2+    1 3d0     1 3d2+    1 3d0     1 3d2+    1 3d0     1 3d2+ 
                                   1 3d0     1 3d2+    1 3d0     1 3d2+    1 3d0     1 3d2+    1 3d0     1 3d2+    1 3d0     1 3d2+ 
                                   1 3d0     1 3d2+    1 3d0     1 3d2+    1 3d0     1 3d2+    1 3d0     1 3d2+    1 5g0     1 5g4+ 
                                   1 5g2+    1 5g0     1 5g4+    1 5g2+    1 5g0     1 5g4+    1 5g2+    1 5g0     1 5g4+    1 5g2+ 
                                   1 5g0     1 5g4+    1 5g2+ 

   1.1   2  -701.4208-1561.4316  0.000042  0.000115  0.000295  0.000468  0.000891  0.001786  0.003710  0.007904  0.017860  0.041501
                                 0.001175  0.099563  0.228267  0.385129  0.362539 -0.047555  0.073095 -0.011079  0.021798 -0.024321
                                 0.010864 -0.009505  0.010972 -0.006166  0.006630 -0.005850  0.001003 -0.000327  0.000179 -0.000086
                                 0.000035 -0.000010  0.000000 -0.000000  0.000000  0.000000  0.000000 -0.000000 -0.000000  0.000000
                                 0.000000 -0.000000  0.000000 -0.000000  0.000000  0.000000  0.000000 -0.000000 -0.000000  0.000000
                                 0.000000 -0.000000 -0.000000  0.000000  0.000000 -0.000000 -0.000000  0.000000  0.000000 -0.000000
                                -0.000000  0.000000  0.000000 -0.000000 -0.000000 -0.000000  0.000000  0.000000 -0.000000 -0.000000
                                 0.000000  0.000000 -0.000000 -0.000000  0.000000  0.000000 -0.000000 -0.000000 -0.000000  0.000000
                                 0.000000  0.000000 -0.000000  0.000000 -0.000000  0.000000 -0.000000  0.000000 -0.000000  0.000000
                                -0.000000 -0.000000 -0.000000

   2.1   2  -100.8044 -314.7535 -0.000014 -0.000038 -0.000098 -0.000156 -0.000294 -0.000598 -0.001228 -0.002688 -0.005960 -0.015076
                                 0.001570 -0.038171 -0.087732 -0.193968 -0.178873 -0.068017  0.232184  0.724294  0.273625 -0.031188
                                -0.001016  0.019489 -0.025805  0.015774 -0.018607  0.016596 -0.002920  0.000962 -0.000532  0.000256
                                -0.000104  0.000030  0.000000  0.000000  0.000000 -0.000000 -0.000000  0.000000  0.000000  0.000000
                                -0.000000 -0.000000  0.000000  0.000000  0.000001  0.000000  0.000009  0.000000  0.000016  0.000000
                                 0.000005  0.000000  0.000001  0.000000  0.000001  0.000000  0.000001  0.000000 -0.000000 -0.000000
                                 0.000001 -0.000000 -0.000000 -0.000000  0.000000 -0.000000 -0.000000 -0.000000  0.000000 -0.000000
                                -0.000000 -0.000000  0.000000  0.000000 -0.000000 -0.000000  0.000000  0.000000  0.000003 -0.000000
                                -0.000000 -0.000002  0.000000  0.000000  0.000001 -0.000000 -0.000000 -0.000000  0.000000  0.000000
                                 0.000000  0.000000 -0.000000

   3.1   2   -17.9759 -105.5399  0.000006  0.000016  0.000041  0.000065  0.000124  0.000251  0.000516  0.001131  0.002506  0.006391
                                -0.000734  0.016287  0.037651  0.086224  0.081901  0.037145 -0.139024 -0.606876 -0.320056  0.338437
                                 0.763736  0.536419 -0.309012  0.160421 -0.155651  0.137503 -0.023685  0.007786 -0.004314  0.002076
                                -0.000849  0.000241  0.000000 -0.000000  0.000000  0.000000  0.000000 -0.000000 -0.000000  0.000000
                                 0.000001 -0.000000  0.000003  0.000000  0.000009 -0.000000  0.000021 -0.000000  0.000049 -0.000000
                                 0.000133 -0.000000  0.000176 -0.000000  0.000255  0.000000  0.000238  0.000000 -0.000005  0.000000
                                 0.000004  0.000000 -0.000017  0.000000  0.000007  0.000000 -0.000006  0.000000  0.000004 -0.000000
                                -0.000002  0.000000  0.000001 -0.000000 -0.000000  0.000000  0.000000 -0.000000  0.000011 -0.000000
                                -0.000000 -0.000055  0.000000  0.000000  0.000025 -0.000000 -0.000000 -0.000007  0.000000  0.000000
                                 0.000002 -0.000000 -0.000000

   4.1   2    -8.2018  -88.1102  0.000000  0.000000  0.000000  0.000000  0.000000  0.000000  0.000000  0.000000  0.000000  0.000000
                                -0.000000  0.000000  0.000000  0.000000  0.000000  0.000000 -0.000000 -0.000000 -0.000000  0.000000
                                 0.000000  0.000000 -0.000000  0.000000 -0.000000  0.000000 -0.000000 -0.000000 -0.000000  0.000000
                                -0.000000  0.000000 -0.000000  0.000101 -0.000000  0.000016 -0.000000  0.001145  0.000000 -0.000757
                                -0.000000  0.002172 -0.000000  0.006192 -0.000000  0.020223 -0.000000  0.055408 -0.000000  0.131529
                                -0.000000  0.238025 -0.000000  0.316791 -0.000000  0.292999 -0.000000  0.154332 -0.000000  0.038915
                                -0.000000  0.004192 -0.000000  0.000317 -0.000000  0.000056  0.000000 -0.000001 -0.000000  0.000012
                                 0.000000 -0.000004 -0.000000  0.000002  0.000000 -0.000001 -0.000000  0.000000 -0.000000  0.000000
                                 0.000170  0.000000 -0.000000 -0.000087 -0.000000  0.000000  0.000067  0.000000 -0.000000 -0.000013
                                -0.000000  0.000000  0.000004

   5.1   2    -8.2011  -88.0539 -0.000000 -0.000000 -0.000000 -0.000000 -0.000000 -0.000000 -0.000000 -0.000001 -0.000002 -0.000006
                                 0.000001 -0.000015 -0.000036 -0.000082 -0.000082 -0.000032  0.000134  0.000621  0.000317 -0.000243
                                -0.001307 -0.000680  0.001281 -0.000119  0.000288 -0.000315  0.000047 -0.000004  0.000015 -0.000005
                                 0.000002 -0.000001  0.000101  0.000000  0.000017  0.000000  0.001143  0.000000 -0.000755 -0.000000
                                 0.002167  0.000000  0.006181  0.000000  0.020185  0.000000  0.055303  0.000000  0.131271  0.000000
                                 0.237607  0.000000  0.316340  0.000000  0.293049  0.000000  0.155285  0.000000  0.039588  0.000000
                                 0.004258  0.000000  0.000303  0.000000  0.000037  0.000000 -0.000007  0.000000  0.000006  0.000000
                                -0.000004 -0.000000  0.000001  0.000000 -0.000000  0.000000  0.000000 -0.000000  0.000351  0.000000
                                 0.000000 -0.000373 -0.000000 -0.000000  0.000200  0.000000  0.000000 -0.000048 -0.000000 -0.000000
                                 0.000014 -0.000000  0.000000

   6.1   2    -2.6515  -40.4256 -0.000002 -0.000006 -0.000016 -0.000025 -0.000048 -0.000097 -0.000199 -0.000435 -0.000967 -0.002444
                                 0.000232 -0.006223 -0.014614 -0.033324 -0.034095 -0.011963  0.054758  0.270215  0.112878 -0.098689
                                -0.657597 -0.563280  0.543154  0.558201  1.020466 -0.600617  0.112642 -0.037810  0.018066 -0.009542
                                 0.003930 -0.001123 -0.000000 -0.000000 -0.000000 -0.000000 -0.000003 -0.000000  0.000002  0.000000
                                -0.000006 -0.000000 -0.000016 -0.000000 -0.000053 -0.000000 -0.000142 -0.000000 -0.000343 -0.000000
                                -0.000636 -0.000000 -0.000819 -0.000000 -0.000723 -0.000000 -0.000107 -0.000000  0.002279  0.000000
                                 0.003174  0.000000  0.000615  0.000000 -0.000354  0.000000 -0.000065  0.000000 -0.000055  0.000000
                                 0.000006  0.000000 -0.000006 -0.000000  0.000001  0.000000 -0.000000 -0.000000 -0.000221  0.000000
                                 0.000000 -0.000654  0.000000  0.000000 -0.000520 -0.000000  0.000000 -0.000105 -0.000000  0.000000
                                 0.000019  0.000000 -0.000000

   7.1   +    -0.2289  -12.8124  0.000001  0.000002  0.000004  0.000007  0.000013  0.000026  0.000053  0.000115  0.000257  0.000647
                                -0.000056  0.001647  0.003891  0.008842  0.009307  0.002867 -0.014433 -0.073640 -0.027037  0.019674
                                 0.202438  0.160028 -0.149257 -0.294920 -0.469520  0.115795  0.254912  0.730451  0.239085  0.019920
                                -0.005763  0.001719  0.000000  0.000000  0.000000 -0.000000  0.000004  0.000000 -0.000003 -0.000000
                                 0.000008  0.000000  0.000023 -0.000000  0.000075  0.000000  0.000206 -0.000000  0.000494  0.000000
                                 0.000891 -0.000000  0.001145  0.000000  0.000932 -0.000000 -0.000328  0.000000 -0.002651 -0.000000
                                -0.004689  0.000000 -0.004528 -0.000000 -0.000772  0.000000  0.003056 -0.000000  0.003711  0.000000
                                 0.001353 -0.000000  0.000149  0.000000 -0.000004  0.000000  0.000002 -0.000000 -0.000652  0.000000
                                -0.000000 -0.000895 -0.000000  0.000000 -0.003486  0.000000 -0.000000 -0.002937 -0.000000  0.000000
                                -0.000049  0.000000 -0.000000

   8.1   +    -0.2746  -23.0474  0.000000  0.000000  0.000000  0.000000  0.000000  0.000000  0.000000  0.000000  0.000000  0.000000
                                -0.000000  0.000000  0.000000  0.000000  0.000000  0.000000 -0.000000 -0.000000 -0.000000  0.000000
                                 0.000000  0.000000 -0.000000  0.000000 -0.000000  0.000000 -0.000000  0.000000 -0.000000  0.000000
                                -0.000000  0.000000 -0.000000 -0.000024 -0.000000 -0.000004 -0.000000 -0.000272  0.000000  0.000178
                                -0.000000 -0.000519 -0.000000 -0.001490 -0.000000 -0.004874 -0.000000 -0.013452 -0.000000 -0.032249
                                -0.000000 -0.058059 -0.000000 -0.074196 -0.000000 -0.059625  0.000000  0.025712  0.000000  0.159570
                                 0.000000  0.259064  0.000000  0.290283  0.000000  0.257126  0.000000  0.179191  0.000000  0.082417
                                 0.000000  0.017012  0.000000  0.000701 -0.000000  0.000011  0.000000 -0.000004 -0.000000  0.000000
                                 0.002369 -0.000000  0.000000  0.001943 -0.000000  0.000000  0.004981 -0.000000  0.000000  0.003194
                                 0.000000 -0.000000 -0.000048

   9.1   0     0.0090   -1.6267 -0.000000 -0.000000 -0.000000 -0.000000 -0.000000 -0.000000 -0.000000 -0.000000 -0.000000 -0.000001
                                 0.000000 -0.000001 -0.000003 -0.000007 -0.000003 -0.000009  0.000016  0.000050  0.000091 -0.000145
                                -0.000024 -0.000621  0.001229 -0.001058  0.006445 -0.007641  0.003724 -0.006643  0.011167 -0.023793
                                 0.046240 -0.035941  0.000000 -0.000000 -0.000002  0.000000  0.000021 -0.000000 -0.000034  0.000000
                                 0.000022 -0.000000 -0.000030  0.000000  0.000013 -0.000000 -0.000127  0.000000 -0.000024 -0.000000
                                -0.000519  0.000000  0.000157 -0.000000 -0.001292  0.000000  0.002145 -0.000000 -0.003414  0.000000
                                 0.009428 -0.000000 -0.015282  0.000000  0.034334 -0.000000 -0.063076  0.000000  0.122603 -0.000000
                                -0.204270  0.000000  0.268816 -0.000000 -0.528216  0.000000  1.300692 -0.000000 -0.000001 -0.000000
                                -0.000000 -0.000012  0.000000  0.000000  0.000009 -0.000000 -0.000000 -0.000004  0.000000  0.000000
                                 0.000334 -0.000000 -0.000000

  10.1   0     0.0031   -1.8733 -0.000000 -0.000000 -0.000000 -0.000000 -0.000001 -0.000001 -0.000003 -0.000005 -0.000013 -0.000029
                                -0.000002 -0.000074 -0.000192 -0.000409 -0.000614  0.000105  0.000515  0.003877 -0.001286  0.003869
                                -0.014923  0.010431 -0.033372  0.062008 -0.189350  0.258079 -0.149115  0.158989 -0.430504  0.674598
                                -1.567908  1.982137 -0.000000 -0.000000 -0.000000  0.000000 -0.000000 -0.000000  0.000000  0.000000
                                -0.000001 -0.000000 -0.000002  0.000000 -0.000005 -0.000000 -0.000015 -0.000000 -0.000036 -0.000000
                                -0.000066 -0.000000 -0.000083 -0.000000 -0.000071  0.000000  0.000030 -0.000000  0.000176  0.000000
                                 0.000349 -0.000000  0.000267  0.000000  0.000253 -0.000000 -0.000383  0.000000  0.000587 -0.000000
                                -0.000894  0.000000  0.002615 -0.000000  0.000439  0.000000  0.010439 -0.000000  0.000028 -0.000000
                                -0.000000  0.000045  0.000000  0.000000  0.000138 -0.000000 -0.000000  0.000129  0.000000  0.000000
                                 0.000135 -0.000000 -0.000000

                                   1 2px     1 2px     1 2px     1 2px     1 2px     1 2px     1 2px     1 2px     1 2px     1 2px  
                                   1 2px     1 2px     1 2px     1 2px     1 2px     1 2px     1 2px     1 2px     1 2px     1 2px  
                                   1 2px     1 2px     1 2px     1 2px     1 2px     1 2px     1 2px     1 2px     1 2px     1 2px  
                                   1 2px     1 2px     1 2px     1 4f1+    1 4f3+    1 4f1+    1 4f3+    1 4f1+    1 4f3+    1 4f1+ 
                                   1 4f3+    1 4f1+    1 4f3+    1 4f1+    1 4f3+ 

   1.2   2   -89.7980 -299.6817  0.000015  0.000056  0.000199  0.000055  0.000667  0.000582  0.000980  0.002015  0.007616  0.018570
                                 0.000712  0.050137  0.118913  0.237822 -0.002922  0.348764  0.291722  0.103412  0.013275 -0.005885
                                 0.011074 -0.009459  0.004030 -0.002672  0.002556 -0.001066  0.000202 -0.000074  0.000024 -0.000007
                                 0.000004 -0.000002  0.000001  0.000007  0.000000 -0.000012 -0.000000  0.000002  0.000000 -0.000001
                                -0.000000  0.000000  0.000000 -0.000000 -0.000000

   2.2   2   -14.2672  -98.7174 -0.000006 -0.000024 -0.000086 -0.000024 -0.000288 -0.000256 -0.000417 -0.000888 -0.003326 -0.008287
                                -0.000220 -0.022623 -0.055111 -0.115855  0.002890 -0.180409 -0.122313  0.158225  0.460692 -0.006027
                                 0.441936 -0.042878  0.136848 -0.014061  0.022760 -0.009117  0.002086 -0.000719  0.000253 -0.000075
                                 0.000043 -0.000021  0.000007  0.000280  0.000000 -0.000130 -0.000000  0.000106  0.000000 -0.000007
                                -0.000000  0.000007  0.000000 -0.000003 -0.000000

   3.2   2    -1.5762  -35.5190  0.000002  0.000009  0.000030  0.000008  0.000102  0.000090  0.000150  0.000313  0.001183  0.002932
                                 0.000099  0.008061  0.019773  0.041817 -0.001000  0.065873  0.042281 -0.078620 -0.213028 -0.028610
                                -0.192849 -0.036623  0.118110  0.443376  0.005926  0.427765  0.175826  0.027032  0.003505  0.000195
                                -0.000022  0.000006 -0.000001  0.001037  0.000000  0.000807  0.000000  0.006085  0.000000  0.003261
                                 0.000000 -0.000385 -0.000000  0.000210 -0.000000

   4.2   0     0.0040   -1.8331 -0.000000 -0.000000 -0.000001 -0.000000 -0.000002 -0.000005  0.000007 -0.000018 -0.000014 -0.000154
                                 0.000112 -0.000236 -0.000356 -0.001246  0.000745 -0.002135 -0.000316  0.000274  0.017340 -0.031084
                                 0.069469 -0.074245  0.045775 -0.091790  0.122702 -0.099866  0.043858 -0.045326  0.088127 -0.038980
                                 0.287194 -0.612959  1.345825  0.000025 -0.000000 -0.000040  0.000000  0.000108 -0.000000  0.000952
                                -0.000000  0.001154 -0.000000  0.001480 -0.000000

   5.2   0     0.0114   -3.9725  0.000000  0.000001  0.000002  0.000000  0.000009  0.000003  0.000024  0.000010  0.000107  0.000115
                                 0.000150  0.000550  0.001627  0.002833  0.000816  0.004259  0.004009 -0.008118 -0.001494 -0.041608
                                 0.064685 -0.095485  0.071764 -0.054528  0.148483 -0.057083  0.076966 -0.090572 -0.046065 -0.374384
                                 0.380060 -1.764598  1.195288 -0.000091  0.000000  0.000149 -0.000000 -0.000394  0.000000 -0.003333
                                 0.000000 -0.004304  0.000000 -0.004689 -0.000000

                                   1 2py     1 2py     1 2py     1 2py     1 2py     1 2py     1 2py     1 2py     1 2py     1 2py  
                                   1 2py     1 2py     1 2py     1 2py     1 2py     1 2py     1 2py     1 2py     1 2py     1 2py  
                                   1 2py     1 2py     1 2py     1 2py     1 2py     1 2py     1 2py     1 2py     1 2py     1 2py  
                                   1 2py     1 2py     1 2py     1 4f1-    1 4f3-    1 4f1-    1 4f3-    1 4f1-    1 4f3-    1 4f1- 
                                   1 4f3-    1 4f1-    1 4f3-    1 4f1-    1 4f3- 

   1.3   2   -89.7980 -299.6817  0.000015  0.000056  0.000199  0.000055  0.000667  0.000582  0.000980  0.002015  0.007616  0.018570
                                 0.000712  0.050137  0.118913  0.237822 -0.002922  0.348764  0.291722  0.103412  0.013275 -0.005885
                                 0.011074 -0.009459  0.004030 -0.002672  0.002556 -0.001066  0.000202 -0.000074  0.000024 -0.000007
                                 0.000004 -0.000002  0.000001  0.000007  0.000000 -0.000012 -0.000000  0.000002  0.000000 -0.000001
                                 0.000000  0.000000 -0.000000 -0.000000 -0.000000

   2.3   2   -14.2672  -98.7174 -0.000006 -0.000024 -0.000086 -0.000024 -0.000288 -0.000256 -0.000417 -0.000888 -0.003326 -0.008287
                                -0.000220 -0.022623 -0.055111 -0.115855  0.002890 -0.180409 -0.122313  0.158225  0.460692 -0.006027
                                 0.441936 -0.042878  0.136848 -0.014061  0.022760 -0.009117  0.002086 -0.000719  0.000253 -0.000075
                                 0.000043 -0.000021  0.000007  0.000280  0.000000 -0.000130 -0.000000  0.000106  0.000000 -0.000007
                                -0.000000  0.000007  0.000000 -0.000003 -0.000000

   3.3   2    -1.5762  -35.5190  0.000002  0.000009  0.000030  0.000008  0.000102  0.000090  0.000150  0.000313  0.001183  0.002932
                                 0.000099  0.008061  0.019773  0.041817 -0.001000  0.065873  0.042281 -0.078620 -0.213028 -0.028610
                                -0.192849 -0.036623  0.118110  0.443376  0.005926  0.427765  0.175826  0.027032  0.003505  0.000195
                                -0.000022  0.000006 -0.000001  0.001037  0.000000  0.000807  0.000000  0.006085  0.000000  0.003261
                                -0.000000 -0.000385  0.000000  0.000210  0.000000

   4.3   0     0.0040   -1.8331 -0.000000 -0.000000 -0.000001 -0.000000 -0.000002 -0.000005  0.000007 -0.000018 -0.000014 -0.000154
                                 0.000112 -0.000236 -0.000356 -0.001246  0.000745 -0.002135 -0.000316  0.000274  0.017340 -0.031084
                                 0.069469 -0.074245  0.045775 -0.091790  0.122702 -0.099866  0.043858 -0.045326  0.088127 -0.038980
                                 0.287194 -0.612959  1.345825  0.000025 -0.000000 -0.000040  0.000000  0.000108 -0.000000  0.000952
                                 0.000000  0.001154  0.000000  0.001480  0.000000

   5.3   0     0.0114   -3.9725  0.000000  0.000001  0.000002  0.000000  0.000009  0.000003  0.000024  0.000010  0.000107  0.000115
                                 0.000150  0.000550  0.001627  0.002833  0.000816  0.004259  0.004009 -0.008118 -0.001494 -0.041608
                                 0.064685 -0.095485  0.071764 -0.054528  0.148483 -0.057083  0.076966 -0.090572 -0.046065 -0.374384
                                 0.380060 -1.764598  1.195288 -0.000091  0.000000  0.000149 -0.000000 -0.000394  0.000000 -0.003333
                                -0.000000 -0.004304 -0.000000 -0.004689 -0.000000

                                   1 3d2-    1 3d2-    1 3d2-    1 3d2-    1 3d2-    1 3d2-    1 3d2-    1 3d2-    1 3d2-    1 3d2- 
                                   1 3d2-    1 3d2-    1 3d2-    1 3d2-    1 3d2-    1 3d2-    1 3d2-    1 3d2-    1 3d2-    1 3d2- 
                                   1 3d2-    1 3d2-    1 3d2-    1 5g2-    1 5g4-    1 5g2-    1 5g4-    1 5g2-    1 5g4-    1 5g2- 
                                   1 5g4-    1 5g2-    1 5g4- 

   1.4   2    -8.2018  -88.1102  0.000101  0.000016  0.001145 -0.000757  0.002172  0.006192  0.020223  0.055408  0.131529  0.238025
                                 0.316791  0.292999  0.154332  0.038915  0.004192  0.000317  0.000056 -0.000001  0.000012 -0.000004
                                 0.000002 -0.000001  0.000000  0.000170  0.000000 -0.000087 -0.000000  0.000067  0.000000 -0.000013
                                -0.000000  0.000004  0.000000

   2.4   +    -0.2746  -23.0474 -0.000024 -0.000004 -0.000272  0.000178 -0.000519 -0.001490 -0.004874 -0.013452 -0.032249 -0.058059
                                -0.074196 -0.059625  0.025712  0.159570  0.259064  0.290283  0.257126  0.179191  0.082417  0.017012
                                 0.000701  0.000011 -0.000004  0.002369  0.000000  0.001943  0.000000  0.004981  0.000000  0.003194
                                 0.000000 -0.000048 -0.000000

   3.4   0     0.0090   -1.6208  0.000000 -0.000002  0.000024 -0.000036  0.000027 -0.000016  0.000060 -0.000001  0.000282  0.000028
                                 0.000864 -0.000735  0.001932 -0.004934  0.007078 -0.018152  0.031994 -0.065772  0.121799 -0.207221
                                 0.269532 -0.536224  1.305402 -0.000010 -0.000000 -0.000014 -0.000000 -0.000010  0.000000 -0.000017
                                -0.000000  0.000159  0.000000

   4.4   0     0.0287   -2.5088 -0.000000  0.000006 -0.000054  0.000091 -0.000053  0.000107  0.000034  0.000556  0.000545  0.002313
                                 0.000656  0.004488 -0.006473  0.007036 -0.030550  0.038437 -0.100626  0.179748 -0.352145  0.616775
                                -0.845579  1.936605 -0.990314 -0.000056 -0.000000 -0.000078 -0.000000 -0.000061  0.000000 -0.000071
                                -0.000000  0.000908  0.000000

                                   1 2pz     1 2pz     1 2pz     1 2pz     1 2pz     1 2pz     1 2pz     1 2pz     1 2pz     1 2pz  
                                   1 2pz     1 2pz     1 2pz     1 2pz     1 2pz     1 2pz     1 2pz     1 2pz     1 2pz     1 2pz  
                                   1 2pz     1 2pz     1 2pz     1 2pz     1 2pz     1 2pz     1 2pz     1 2pz     1 2pz     1 2pz  
                                   1 2pz     1 2pz     1 2pz     1 4f0     1 4f2+    1 4f0     1 4f2+    1 4f0     1 4f2+    1 4f0  
                                   1 4f2+    1 4f0     1 4f2+    1 4f0     1 4f2+ 

   1.5   2   -89.8005 -299.6842  0.000015  0.000056  0.000199  0.000055  0.000667  0.000582  0.000980  0.002015  0.007616  0.018570
                                 0.000712  0.050137  0.118912  0.237821 -0.002924  0.348768  0.291732  0.103405  0.013265 -0.005881
                                 0.011072 -0.009456  0.004033 -0.002668  0.002556 -0.001064  0.000203 -0.000074  0.000025 -0.000007
                                 0.000004 -0.000002  0.000001  0.000001  0.000000  0.000010 -0.000000  0.000002  0.000000  0.000002
                                -0.000000 -0.000000  0.000000  0.000000 -0.000000

   2.5   2   -14.2767  -98.7184 -0.000006 -0.000024 -0.000086 -0.000024 -0.000288 -0.000256 -0.000417 -0.000887 -0.003325 -0.008285
                                -0.000220 -0.022617 -0.055096 -0.115823  0.002891 -0.180363 -0.122301  0.158165  0.460536 -0.006135
                                 0.441876 -0.042739  0.137139 -0.014004  0.022707 -0.009149  0.002056 -0.000727  0.000250 -0.000075
                                 0.000043 -0.000021  0.000007  0.000665  0.000000 -0.000381 -0.000000  0.000035  0.000000 -0.000061
                                -0.000000  0.000018  0.000000 -0.000008 -0.000000

   3.5   2    -1.5828  -35.5806  0.000002  0.000009  0.000031  0.000008  0.000103  0.000090  0.000150  0.000314  0.001186  0.002939
                                 0.000098  0.008079  0.019813  0.041908 -0.001010  0.066020  0.042371 -0.078771 -0.213635 -0.028186
                                -0.194007 -0.035881  0.117106  0.445248  0.006059  0.430851  0.173239  0.023998  0.002757  0.000118
                                 0.000003 -0.000006  0.000002 -0.000638  0.000000  0.000686  0.000000 -0.002321  0.000000 -0.004294
                                 0.000000 -0.000037 -0.000000 -0.000123  0.000000

   4.5   0     0.0038   -1.9205 -0.000000 -0.000000 -0.000001 -0.000000 -0.000002 -0.000005  0.000006 -0.000019 -0.000017 -0.000161
                                 0.000110 -0.000259 -0.000417 -0.001366  0.000737 -0.002322 -0.000452  0.000539  0.017808 -0.030515
                                 0.069107 -0.073027  0.044646 -0.092311  0.121094 -0.100710  0.042180 -0.044029  0.093053 -0.023772
                                 0.286176 -0.567978  1.309543 -0.000129  0.000000  0.000095 -0.000000 -0.000640  0.000000 -0.001247
                                 0.000000 -0.000333  0.000000  0.001656  0.000000

   5.5   0     0.0107   -4.0865  0.000000  0.000001  0.000002  0.000001  0.000009  0.000003  0.000023  0.000012  0.000107  0.000130
                                 0.000135  0.000569  0.001643  0.002931  0.000721  0.004437  0.003986 -0.008027 -0.003416 -0.037497
                                 0.055926 -0.085736  0.065493 -0.043544  0.132462 -0.044618  0.072066 -0.082942 -0.059181 -0.379185
                                 0.325986 -1.686849  1.201855  0.000401 -0.000000 -0.000290  0.000000  0.002000 -0.000000  0.003952
                                -0.000000  0.000771 -0.000000 -0.004211 -0.000000

                                   1 3d1+    1 3d1+    1 3d1+    1 3d1+    1 3d1+    1 3d1+    1 3d1+    1 3d1+    1 3d1+    1 3d1+ 
                                   1 3d1+    1 3d1+    1 3d1+    1 3d1+    1 3d1+    1 3d1+    1 3d1+    1 3d1+    1 3d1+    1 3d1+ 
                                   1 3d1+    1 3d1+    1 3d1+    1 5g1+    1 5g3+    1 5g1+    1 5g3+    1 5g1+    1 5g3+    1 5g1+ 
                                   1 5g3+    1 5g1+    1 5g3+ 

   1.6   2    -8.2086  -88.1112  0.000101  0.000016  0.001145 -0.000757  0.002171  0.006192  0.020220  0.055400  0.131512  0.238005
                                 0.316749  0.292928  0.154399  0.039079  0.004262  0.000322  0.000052 -0.000007  0.000008 -0.000004
                                 0.000002 -0.000001  0.000000  0.000299  0.000000 -0.000285 -0.000000  0.000160  0.000000 -0.000038
                                -0.000000  0.000011  0.000000

   2.6   +    -0.3020  -23.3653 -0.000024 -0.000004 -0.000276  0.000181 -0.000526 -0.001512 -0.004944 -0.013645 -0.032711 -0.058898
                                -0.075261 -0.060526  0.025853  0.161761  0.263995  0.295999  0.258264  0.171789  0.071567  0.012239
                                 0.000358  0.000004 -0.000001  0.000525  0.000000  0.000523  0.000000  0.001323  0.000000  0.000869
                                 0.000000 -0.000023 -0.000000

   3.6   0     0.0090   -1.6230  0.000000 -0.000002  0.000023 -0.000035  0.000026 -0.000017  0.000058 -0.000004  0.000272  0.000013
                                 0.000840 -0.000746  0.001928 -0.004866  0.007101 -0.017994  0.031917 -0.065338  0.121352 -0.206033
                                 0.268539 -0.531898  1.303060 -0.000001 -0.000000 -0.000011 -0.000000  0.000005 -0.000000 -0.000015
                                -0.000000  0.000273  0.000000

   4.6   0     0.0285   -2.5151 -0.000000  0.000006 -0.000054  0.000091 -0.000053  0.000104  0.000028  0.000534  0.000501  0.002220
                                 0.000562  0.004371 -0.006371  0.007144 -0.029972  0.038330 -0.099231  0.178526 -0.347640  0.611305
                                -0.833376  1.929781 -0.990813 -0.000010 -0.000000 -0.000052 -0.000000  0.000012 -0.000000 -0.000039
                                -0.000000  0.001556  0.000000

                                   1 3d1-    1 3d1-    1 3d1-    1 3d1-    1 3d1-    1 3d1-    1 3d1-    1 3d1-    1 3d1-    1 3d1- 
                                   1 3d1-    1 3d1-    1 3d1-    1 3d1-    1 3d1-    1 3d1-    1 3d1-    1 3d1-    1 3d1-    1 3d1- 
                                   1 3d1-    1 3d1-    1 3d1-    1 5g1-    1 5g3-    1 5g1-    1 5g3-    1 5g1-    1 5g3-    1 5g1- 
                                   1 5g3-    1 5g1-    1 5g3- 

   1.7   2    -8.2086  -88.1112  0.000101  0.000016  0.001145 -0.000757  0.002171  0.006192  0.020220  0.055400  0.131512  0.238005
                                 0.316749  0.292928  0.154399  0.039079  0.004262  0.000322  0.000052 -0.000007  0.000008 -0.000004
                                 0.000002 -0.000001  0.000000  0.000299  0.000000 -0.000285 -0.000000  0.000160  0.000000 -0.000038
                                -0.000000  0.000011  0.000000

   2.7   +    -0.3020  -23.3653 -0.000024 -0.000004 -0.000276  0.000181 -0.000526 -0.001512 -0.004944 -0.013645 -0.032711 -0.058898
                                -0.075261 -0.060526  0.025853  0.161761  0.263995  0.295999  0.258264  0.171789  0.071567  0.012239
                                 0.000358  0.000004 -0.000001  0.000525  0.000000  0.000523  0.000000  0.001323  0.000000  0.000869
                                 0.000000 -0.000023  0.000000

   3.7   0     0.0090   -1.6230  0.000000 -0.000002  0.000023 -0.000035  0.000026 -0.000017  0.000058 -0.000004  0.000272  0.000013
                                 0.000840 -0.000746  0.001928 -0.004866  0.007101 -0.017994  0.031917 -0.065338  0.121352 -0.206033
                                 0.268539 -0.531898  1.303060 -0.000001 -0.000000 -0.000011 -0.000000  0.000005 -0.000000 -0.000015
                                -0.000000  0.000273  0.000000

   4.7   0     0.0285   -2.5151 -0.000000  0.000006 -0.000054  0.000091 -0.000053  0.000104  0.000028  0.000534  0.000501  0.002220
                                 0.000562  0.004371 -0.006371  0.007144 -0.029972  0.038330 -0.099231  0.178526 -0.347640  0.611305
                                -0.833376  1.929781 -0.990813 -0.000010 -0.000000 -0.000052 -0.000000  0.000012 -0.000000 -0.000039
                                 0.000000  0.001556  0.000000

                                   1 4f2-    1 4f2-    1 4f2-    1 4f2-    1 4f2-    1 4f2- 

   1.8   0     0.1210   -4.5135 -0.002512  0.007323 -0.008226  0.054334 -0.236016  1.127700

   2.8   0     0.3467   -7.4462 -0.015301  0.021841 -0.058189  0.056262 -1.298832  0.650248

 HOMO      8.1    -0.274612 =      -7.4726eV
 LUMO      4.5     0.003808 =       0.1036eV
 LUMO-HOMO         0.278420 =       7.5762eV


 **********************************************************************************************************************************
 DATASETS  * FILE   NREC   LENGTH (MB)   RECORD NAMES
              1      22       21.22       500      610      700      900      950      970     1000      129      960     1700   
                                          VAR    BASINP    GEOM    SYMINP    ZMAT    AOBASIS   BASIS     P2S    ABASIS    OPER   
                                         1101     1401     1411     1412     1650     1100     1400     1410     1200     1210   
                                          SR      EKINR    POTR     PVPR    MOLCAS      S      EKIN      POT      H0       H01  
                                         1080     1600   
                                         AOSYM     SMH  

              2       5        5.90       200      700     1000      520     3202   
                                        OPTIONS   GEOM     BASIS   MCVARS     RHF  

 PROGRAMS   *        TOTAL       RHF       INT
 CPU TIMES  *       104.52      1.69    102.46
 REAL TIME  *       108.06 SEC
 DISK USED  *         3.52 GB      
 SF USED    *         0.07 MB      
 GA USED    *         0.00 MB       (max)       0.00 MB       (current)
 **********************************************************************************************************************************


 PROGRAM * POP (Mulliken population analysis)

 
 Density matrix read from record         3202.2  Type=RHF/CHARGE (state 1.1)
 
 Population analysis by basis function type

 Unique atom        s        p        d        f        g    Total    Charge
   1  NB      8.99975 17.99962 14.00001  0.00038  0.00024 41.00000  - 0.00000


 **********************************************************************************************************************************
 DATASETS  * FILE   NREC   LENGTH (MB)   RECORD NAMES
              1      22       21.22       500      610      700      900      950      970     1000      129      960     1700   
                                          VAR    BASINP    GEOM    SYMINP    ZMAT    AOBASIS   BASIS     P2S    ABASIS    OPER   
                                         1101     1401     1411     1412     1650     1100     1400     1410     1200     1210   
                                          SR      EKINR    POTR     PVPR    MOLCAS      S      EKIN      POT      H0       H01  
                                         1080     1600   
                                         AOSYM     SMH  

              2       5        5.90       200      700     1000      520     3202   
                                        OPTIONS   GEOM     BASIS   MCVARS     RHF  

 PROGRAMS   *        TOTAL       POP       RHF       INT
 CPU TIMES  *       104.53      0.01      1.69    102.46
 REAL TIME  *       108.08 SEC
 DISK USED  *         3.52 GB      
 SF USED    *         0.07 MB      
 GA USED    *         0.00 MB       (max)       0.00 MB       (current)
 **********************************************************************************************************************************


 PROGRAM * MULTI (Direct Multiconfiguration SCF)       Authors: P.J. Knowles, H.-J. Werner (1984)     S.T. Elbert (1988)


 Number of frozen core orbitals:   18 (   6   3   3   1   3   1   1   0 )
 Number of active  orbitals:        6 (   3   0   0   1   0   1   1   0 )
 Number of external orbitals:     309 (  84  42  42  31  42  31  31   6 )

 State symmetry 1

 Orbital occupancy restrictions for symmetry 7
  1      1       200000                          

 Number of electrons:     5    Spin symmetry=Sextet    Space symmetry=7
 Number of states:        1
 Number of CSFs:          1

 State symmetry 2

 Orbital occupancy restrictions for symmetry 6
  1      1       200000                          

 Number of electrons:     5    Spin symmetry=Sextet    Space symmetry=6
 Number of states:        1
 Number of CSFs:          1

 State symmetry 3

 Orbital occupancy restrictions for symmetry 4
  1      1       200000                          

 Number of electrons:     5    Spin symmetry=Sextet    Space symmetry=4
 Number of states:        1
 Number of CSFs:          1

 State symmetry 4

 Orbital occupancy restrictions for symmetry 1
  1      1       200000                          

 Number of electrons:     5    Spin symmetry=Sextet    Space symmetry=1
 Number of states:        2
 Number of CSFs:          2
 
 Maximum number of shells:             1
 Maximum number of spin couplings:     1

 Storage for configuration lists      46, coupling coefficients      5, address lists    266

 Valence orbitals read from record       3202.2  Type=RHF/CANONICAL (state 1.1)
 Frozen core orbitals read from record   3202.2  Type=RHF/CANONICAL (state 1.1)
 *** IN SYMMETRY 1 ORBITAL  2 SYMMETRY CONTAMINATION OF 0.219D-04 HAS BEEN REMOVED
 *** IN SYMMETRY 1 ORBITAL  3 SYMMETRY CONTAMINATION OF 0.272D-03 HAS BEEN REMOVED
 *** IN SYMMETRY 1 ORBITAL  4 SYMMETRY CONTAMINATION OF 0.270D-03 HAS BEEN REMOVED
 *** IN SYMMETRY 1 ORBITAL  5 SYMMETRY CONTAMINATION OF 0.522D-02 HAS BEEN REMOVED
 *** IN SYMMETRY 1 ORBITAL  6 SYMMETRY CONTAMINATION OF 0.229D-02 HAS BEEN REMOVED
 *** IN SYMMETRY 1 ORBITAL  7 SYMMETRY CONTAMINATION OF 0.116D-01 HAS BEEN REMOVED
 *** IN SYMMETRY 1 ORBITAL  8 SYMMETRY CONTAMINATION OF 0.820D-02 HAS BEEN REMOVED
 *** IN SYMMETRY 1 ORBITAL  9 SYMMETRY CONTAMINATION OF 0.538D-01 HAS BEEN REMOVED

 EXTRA SYMMETRY OF MOS IN SYMMETRY 1:   0 0 0 0 0 0 1 3 2 1   3 1 2 3 1 2 3 2 1 3   2 4 6 5 3 2 1 4 6 5   3 2 1 3 2 4 6 5 1 2
                                        3 4 6 5 2 3 1 4 6 5   2 3 1 2 3 1 2 3 1 2   3 1 2 3 2 3 1 2 3 1   2 3 1 2 3 2 3 1 2 3
                                        1 2 3 1 1 1 1 1 1 1   1 1 1
 *** IN SYMMETRY 2 ORBITAL  1 SYMMETRY CONTAMINATION OF 0.181D-04 HAS BEEN REMOVED
 *** IN SYMMETRY 2 ORBITAL  2 SYMMETRY CONTAMINATION OF 0.295D-03 HAS BEEN REMOVED
 *** IN SYMMETRY 2 ORBITAL  3 SYMMETRY CONTAMINATION OF 0.605D-02 HAS BEEN REMOVED
 EXTRA SYMMETRY OF MOS IN SYMMETRY 2:   0 0 0 1 1 1 1 2 3 1   2 3 1 3 2 1 3 2 1 2   3 1 1 2 3 1 1 1 1 1   1 1 1 1 1 1 1 1 1 1
                                        1 1 1 1 1
 *** IN SYMMETRY 3 ORBITAL  1 SYMMETRY CONTAMINATION OF 0.181D-04 HAS BEEN REMOVED
 *** IN SYMMETRY 3 ORBITAL  2 SYMMETRY CONTAMINATION OF 0.295D-03 HAS BEEN REMOVED
 *** IN SYMMETRY 3 ORBITAL  3 SYMMETRY CONTAMINATION OF 0.605D-02 HAS BEEN REMOVED
 EXTRA SYMMETRY OF MOS IN SYMMETRY 3:   0 0 0 1 1 1 1 2 3 1   2 3 1 3 2 1 3 2 1 2   3 1 1 2 3 1 1 1 1 1   1 1 1 1 1 1 1 1 1 1
                                        1 1 1 1 1
 *** IN SYMMETRY 4 ORBITAL  1 SYMMETRY CONTAMINATION OF 0.270D-03 HAS BEEN REMOVED
 *** IN SYMMETRY 4 ORBITAL  2 SYMMETRY CONTAMINATION OF 0.820D-02 HAS BEEN REMOVED
 EXTRA SYMMETRY OF MOS IN SYMMETRY 4:   0 1 1 1 1 1 2 3 1 2   3 1 1 2 3 1 2 3 1 2   3 1 1 1 1 1 1 1 1 1   1 1 1
 *** IN SYMMETRY 5 ORBITAL  1 SYMMETRY CONTAMINATION OF 0.134D-04 HAS BEEN REMOVED
 *** IN SYMMETRY 5 ORBITAL  2 SYMMETRY CONTAMINATION OF 0.645D-03 HAS BEEN REMOVED
 *** IN SYMMETRY 5 ORBITAL  3 SYMMETRY CONTAMINATION OF 0.417D-02 HAS BEEN REMOVED
 EXTRA SYMMETRY OF MOS IN SYMMETRY 5:   0 0 0 1 1 1 1 2 3 1   3 2 1 3 2 1 3 2 1 2   3 1 1 2 3 1 1 1 1 1   1 1 1 1 1 1 1 1 1 1
                                        1 1 1 1 1
 *** IN SYMMETRY 6 ORBITAL  1 SYMMETRY CONTAMINATION OF 0.627D-03 HAS BEEN REMOVED
 *** IN SYMMETRY 6 ORBITAL  2 SYMMETRY CONTAMINATION OF 0.216D-02 HAS BEEN REMOVED
 EXTRA SYMMETRY OF MOS IN SYMMETRY 6:   0 1 1 1 1 1 2 3 1 2   3 1 1 2 3 1 2 3 1 2   3 1 1 1 1 1 1 1 1 1   1 1 1
 *** IN SYMMETRY 7 ORBITAL  1 SYMMETRY CONTAMINATION OF 0.627D-03 HAS BEEN REMOVED
 *** IN SYMMETRY 7 ORBITAL  2 SYMMETRY CONTAMINATION OF 0.216D-02 HAS BEEN REMOVED
 EXTRA SYMMETRY OF MOS IN SYMMETRY 7:   0 1 1 1 1 1 2 3 1 2   3 1 1 2 3 1 2 3 1 2   3 1 1 1 1 1 1 1 1 1   1 1 1

 Wavefunction dump at record             4202.2

 Convergence thresholds  0.10E-01 (gradient)  0.10E-05 (energy)  0.10E-02 (step length)

 Weight factors for state symmetry  1:    0.20000
 Weight factors for state symmetry  2:    0.20000
 Weight factors for state symmetry  3:    0.20000
 Weight factors for state symmetry  4:    0.20000   0.20000

 Eigenvalues of redundancy matrix
   1-  3    0.000000    0.000000    1.000000

 Non-redundant active-active orbital rotations:
     1  2  3  4  5
  2   
  3  +   
  4         
  5            
  6               

 Number of orbital rotations:      346   (     0 Core/Active      0 Core/Virtual   1 Active/Active    345 Active/Virtual)
 Total number of variables:        353


 ITER. MIC  NCI  NEG     ENERGY(VAR)     ENERGY(PROJ)   ENERGY CHANGE     GRAD(0)  GRAD(ORB)   GRAD(CI)     STEP       TIME

   1   59   16    3   -3817.07894053   -3817.30986984   -0.23092931    0.13325262 0.00000000 0.00000000  0.10D+01      0.33
   2   18   20    0   -3817.26087944   -3817.28264142   -0.02176199    0.12477671 0.00000001 0.00000000  0.21D+00      0.55
   3   18   20    0   -3817.28350906   -3817.28360696   -0.00009790    0.00815235 0.00000000 0.00000000  0.15D-01      0.75
   4   16   20    0   -3817.28360726   -3817.28360726   -0.00000000    0.00003784 0.00000000 0.00000000  0.71D-04      0.95

 ** WVFN ****  CONVERGENCE REACHED, FINAL GRADIENT:  0.82D-09



 Results for state 1.7
 =====================

 !MCSCF STATE 1.7 Energy            -3817.283644347844
 Nuclear energy                         0.00000000
 Kinetic energy                      4207.15921204
 One electron energy                -5271.54330748
 Two electron energy                 1454.25966313
 Virial ratio                           1.90733045

 !MCSCF STATE 1.7 Dipole moment         0.00000000     0.00000000     0.00000000
 Dipole moment /Debye                   0.00000000     0.00000000     0.00000000



 Results for state 1.6
 =====================

 !MCSCF STATE 1.6 Energy            -3817.283644347845
 Nuclear energy                         0.00000000
 Kinetic energy                      4207.15921204
 One electron energy                -5271.54330748
 Two electron energy                 1454.25966313
 Virial ratio                           1.90733045

 !MCSCF STATE 1.6 Dipole moment         0.00000000     0.00000000     0.00000000
 Dipole moment /Debye                   0.00000000     0.00000000     0.00000000



 Results for state 1.4
 =====================

 !MCSCF STATE 1.4 Energy            -3817.283483655192
 Nuclear energy                         0.00000000
 Kinetic energy                      4207.16156482
 One electron energy                -5271.54431093
 Two electron energy                 1454.26082727
 Virial ratio                           1.90732990

 !MCSCF STATE 1.4 Dipole moment         0.00000000     0.00000000     0.00000000
 Dipole moment /Debye                   0.00000000     0.00000000     0.00000000



 Results for state 1.1
 =====================

 !MCSCF STATE 1.1 Energy            -3817.283780311029
 Nuclear energy                         0.00000000
 Kinetic energy                      4207.15043267
 One electron energy                -5271.53860400
 Two electron energy                 1454.25482369
 Virial ratio                           1.90733237

 !MCSCF STATE 1.1 Dipole moment         0.00000000     0.00000000     0.00000000
 Dipole moment /Debye                   0.00000000     0.00000000     0.00000000

 Results for state 2.1
 =====================

 !MCSCF STATE 2.1 Energy            -3817.283483655192
 Nuclear energy                         0.00000000
 Kinetic energy                      4207.16156482
 One electron energy                -5271.54431093
 Two electron energy                 1454.26082727
 Virial ratio                           1.90732990

 !MCSCF STATE 2.1 Dipole moment         0.00000000     0.00000000     0.00000000
 Dipole moment /Debye                   0.00000000     0.00000000     0.00000000

 State-averaged charge density matrix saved on record  4202.2 (density set 1)


 NATURAL ORBITALS (state averaged)
 =================================

   Orb     Occ        Energy       Coefficients

                                   1 1s      1 1s      1 1s      1 1s      1 1s      1 1s      1 1s      1 1s      1 1s      1 1s   
                                   1 1s      1 1s      1 1s      1 1s      1 1s      1 1s      1 1s      1 1s      1 1s      1 1s   
                                   1 1s      1 1s      1 1s      1 1s      1 1s      1 1s      1 1s      1 1s      1 1s      1 1s   
                                   1 1s      1 1s      1 3d0     1 3d2+    1 3d0     1 3d2+    1 3d0     1 3d2+    1 3d0     1 3d2+ 
                                   1 3d0     1 3d2+    1 3d0     1 3d2+    1 3d0     1 3d2+    1 3d0     1 3d2+    1 3d0     1 3d2+ 
                                   1 3d0     1 3d2+    1 3d0     1 3d2+    1 3d0     1 3d2+    1 3d0     1 3d2+    1 3d0     1 3d2+ 
                                   1 3d0     1 3d2+    1 3d0     1 3d2+    1 3d0     1 3d2+    1 3d0     1 3d2+    1 3d0     1 3d2+ 
                                   1 3d0     1 3d2+    1 3d0     1 3d2+    1 3d0     1 3d2+    1 3d0     1 3d2+    1 5g0     1 5g4+ 
                                   1 5g2+    1 5g0     1 5g4+    1 5g2+    1 5g0     1 5g4+    1 5g2+    1 5g0     1 5g4+    1 5g2+ 
                                   1 5g0     1 5g4+    1 5g2+ 

   7.1  1.00000    -0.084179     0.000001  0.000002  0.000004  0.000007  0.000013  0.000026  0.000053  0.000115  0.000257  0.000647
                                -0.000056  0.001647  0.003893  0.008846  0.009311  0.002868 -0.014439 -0.073670 -0.027047  0.019680
                                 0.202519  0.160097 -0.149309 -0.295059 -0.469731  0.115957  0.255077  0.730442  0.239116  0.019863
                                -0.005768  0.001720  0.000000  0.000000  0.000000  0.000000  0.000000  0.000000 -0.000000 -0.000000
                                 0.000000  0.000000  0.000000  0.000000  0.000000  0.000000  0.000000  0.000000  0.000000  0.000000
                                 0.000000  0.000000  0.000000  0.000000  0.000000  0.000000  0.000000  0.000000  0.000000  0.000000
                                 0.000000  0.000000  0.000000  0.000000  0.000000  0.000000 -0.000000 -0.000000  0.000000  0.000000
                                -0.000000 -0.000000  0.000000  0.000000 -0.000000 -0.000000  0.000000  0.000000  0.000000  0.000000
                                 0.000000  0.000000  0.000000  0.000000  0.000000  0.000000  0.000000  0.000000  0.000000  0.000000
                                 0.000000  0.000000  0.000000

   8.1  0.80000     0.014762    -0.000000 -0.000000 -0.000000 -0.000000 -0.000000 -0.000000 -0.000000 -0.000000 -0.000000 -0.000000
                                 0.000000 -0.000000 -0.000000 -0.000000 -0.000000 -0.000000  0.000000  0.000000  0.000000 -0.000000
                                -0.000000 -0.000000  0.000000  0.000000  0.000000 -0.000000  0.000000  0.000000  0.000000  0.000000
                                -0.000000  0.000000 -0.000024  0.000000 -0.000004  0.000000 -0.000275  0.000000  0.000180 -0.000000
                                -0.000524  0.000000 -0.001505  0.000000 -0.004922  0.000000 -0.013584  0.000000 -0.032564  0.000000
                                -0.058631  0.000000 -0.074936  0.000000 -0.060273  0.000000  0.025645  0.000000  0.160547 -0.000000
                                 0.261351 -0.000000  0.292976 -0.000000  0.257736 -0.000000  0.175868 -0.000000  0.077295 -0.000000
                                 0.014629 -0.000000  0.000506 -0.000000  0.000011 -0.000000 -0.000003  0.000000  0.000000  0.000000
                                 0.000000  0.000000  0.000000  0.000000  0.000000  0.000000  0.000000  0.000000  0.000000  0.000000
                                 0.000000  0.000000  0.000000

   9.1  0.80000     0.014486    -0.000000 -0.000000 -0.000000 -0.000000 -0.000000 -0.000000 -0.000000 -0.000000 -0.000000 -0.000000
                                 0.000000 -0.000000 -0.000000 -0.000000 -0.000000 -0.000000  0.000000  0.000000  0.000000 -0.000000
                                -0.000000 -0.000000  0.000000  0.000000  0.000000 -0.000000 -0.000000 -0.000000 -0.000000 -0.000000
                                 0.000000 -0.000000  0.000000 -0.000024  0.000000 -0.000004  0.000000 -0.000274 -0.000000  0.000180
                                 0.000000 -0.000522  0.000000 -0.001500  0.000000 -0.004906  0.000000 -0.013541  0.000000 -0.032461
                                 0.000000 -0.058444  0.000000 -0.074684  0.000000 -0.060035  0.000000  0.025797  0.000000  0.160639
                                 0.000000  0.261408  0.000000  0.293033  0.000000  0.257754 -0.000000  0.175768  0.000000  0.077152
                                -0.000000  0.014569  0.000000  0.000501 -0.000000  0.000011  0.000000 -0.000003  0.000000  0.000000
                                 0.000000  0.000000  0.000000  0.000000  0.000000  0.000000  0.000000  0.000000  0.000000  0.000000
                                 0.000000  0.000000  0.000000

                                   1 3d2-    1 3d2-    1 3d2-    1 3d2-    1 3d2-    1 3d2-    1 3d2-    1 3d2-    1 3d2-    1 3d2- 
                                   1 3d2-    1 3d2-    1 3d2-    1 3d2-    1 3d2-    1 3d2-    1 3d2-    1 3d2-    1 3d2-    1 3d2- 
                                   1 3d2-    1 3d2-    1 3d2-    1 5g2-    1 5g4-    1 5g2-    1 5g4-    1 5g2-    1 5g4-    1 5g2- 
                                   1 5g4-    1 5g2-    1 5g4- 

   2.4  0.80000     0.014486    -0.000024 -0.000004 -0.000274  0.000180 -0.000522 -0.001500 -0.004906 -0.013541 -0.032461 -0.058444
                                -0.074684 -0.060035  0.025797  0.160639  0.261408  0.293033  0.257754  0.175768  0.077152  0.014569
                                 0.000501  0.000011 -0.000003  0.000000  0.000000  0.000000  0.000000  0.000000  0.000000  0.000000
                                 0.000000  0.000000  0.000000

                                   1 3d1+    1 3d1+    1 3d1+    1 3d1+    1 3d1+    1 3d1+    1 3d1+    1 3d1+    1 3d1+    1 3d1+ 
                                   1 3d1+    1 3d1+    1 3d1+    1 3d1+    1 3d1+    1 3d1+    1 3d1+    1 3d1+    1 3d1+    1 3d1+ 
                                   1 3d1+    1 3d1+    1 3d1+    1 5g1+    1 5g3+    1 5g1+    1 5g3+    1 5g1+    1 5g3+    1 5g1+ 
                                   1 5g3+    1 5g1+    1 5g3+ 

   2.6  0.80000     0.014643    -0.000024 -0.000004 -0.000274  0.000180 -0.000522 -0.001501 -0.004910 -0.013550 -0.032484 -0.058485
                                -0.074738 -0.060081  0.025772  0.160623  0.261401  0.293005  0.257723  0.175800  0.077218  0.014599
                                 0.000503  0.000011 -0.000003  0.000000  0.000000  0.000000  0.000000  0.000000  0.000000  0.000000
                                 0.000000  0.000000  0.000000

                                   1 3d1-    1 3d1-    1 3d1-    1 3d1-    1 3d1-    1 3d1-    1 3d1-    1 3d1-    1 3d1-    1 3d1- 
                                   1 3d1-    1 3d1-    1 3d1-    1 3d1-    1 3d1-    1 3d1-    1 3d1-    1 3d1-    1 3d1-    1 3d1- 
                                   1 3d1-    1 3d1-    1 3d1-    1 5g1-    1 5g3-    1 5g1-    1 5g3-    1 5g1-    1 5g3-    1 5g1- 
                                   1 5g3-    1 5g1-    1 5g3- 

   2.7  0.80000     0.014643    -0.000024 -0.000004 -0.000274  0.000180 -0.000522 -0.001501 -0.004910 -0.013550 -0.032484 -0.058485
                                -0.074738 -0.060081  0.025772  0.160623  0.261401  0.293005  0.257723  0.175800  0.077218  0.014599
                                 0.000503  0.000011 -0.000003  0.000000  0.000000  0.000000  0.000000  0.000000  0.000000  0.000000
                                 0.000000  0.000000  0.000000
 

 EXTRA SYMMETRY OF MOS IN SYMMETRY 1:   0 0 0 0 0 0 1 2 3 1   2 3 1 2 3 1 2 3 1 3   2 4 6 5 2 3 1 4 6 5   2 3 1 2 3 4 6 5 1 3
                                        2 6 4 5 3 2 1 5 6 4   3 2 1 3 2 1 3 2 1 3   2 1 2 3 2 3 1 2 3 1   2 3 1 2 3 2 3 1 2 3
                                        1 2 3 1 1 1 1 1 1 1   1 1 1
 EXTRA SYMMETRY OF MOS IN SYMMETRY 2:   0 0 0 1 1 1 1 2 3 1   2 3 1 2 3 1 3 2 1 3   2 1 1 3 2 1 1 1 1 1   1 1 1 1 1 1 1 1 1 1
                                        1 1 1 1 1
 EXTRA SYMMETRY OF MOS IN SYMMETRY 3:   0 0 0 1 1 1 1 2 3 1   2 3 1 2 3 1 3 2 1 3   2 1 1 3 2 1 1 1 1 1   1 1 1 1 1 1 1 1 1 1
                                        1 1 1 1 1
 EXTRA SYMMETRY OF MOS IN SYMMETRY 4:   0 1 1 1 1 1 2 3 1 2   3 1 1 2 3 1 2 3 1 3   2 1 1 1 1 1 1 1 1 1   1 1 1
 EXTRA SYMMETRY OF MOS IN SYMMETRY 5:   0 0 0 1 1 1 1 2 3 1   2 3 1 2 3 1 3 2 1 3   2 1 1 3 2 1 1 1 1 1   1 1 1 1 1 1 1 1 1 1
                                        1 1 1 1 1
 EXTRA SYMMETRY OF MOS IN SYMMETRY 6:   0 1 1 1 1 1 2 3 1 2   3 1 1 2 3 1 3 2 1 3   2 1 1 1 1 1 1 1 1 1   1 1 1
 EXTRA SYMMETRY OF MOS IN SYMMETRY 7:   0 1 1 1 1 1 2 3 1 2   3 1 1 2 3 1 3 2 1 3   2 1 1 1 1 1 1 1 1 1   1 1 1

 Natural orbital dump (state averaged) at molpro section  4202.2    (Orbital set 2)


 CI vector for state symmetry 1
 ==============================

 /// / / 0          1.0000000

 TOTAL ENERGIES                     -3817.28364435

 CI vector for state symmetry 2
 ==============================

 /// / 0 /          1.0000000

 TOTAL ENERGIES                     -3817.28364435

 CI vector for state symmetry 3
 ==============================

 /// 0 / /          1.0000000

 TOTAL ENERGIES                     -3817.28348366

 CI vector for state symmetry 4
 ==============================

 /0/ / / /          1.0000000   0.0000000
 //0 / / /         -0.0000000   1.0000000

 TOTAL ENERGIES                     -3817.28378031 -3817.28348366



 **********************************************************************************************************************************
 DATASETS  * FILE   NREC   LENGTH (MB)   RECORD NAMES
              1      23       25.33       500      610      700      900      950      970     1000      129      960     1700   
                                          VAR    BASINP    GEOM    SYMINP    ZMAT    AOBASIS   BASIS     P2S    ABASIS    OPER   
                                         1101     1401     1411     1412     1650     1100     1400     1410     1200     1210   
                                          SR      EKINR    POTR     PVPR    MOLCAS      S      EKIN      POT      H0       H01  
                                         1080     1600     1380   
                                         AOSYM     SMH     JKOP   

              2       6        9.05       200      700     1000      520     3202     4202   
                                        OPTIONS   GEOM     BASIS   MCVARS     RHF     MCSCF   

 PROGRAMS   *        TOTAL     MULTI       POP       RHF       INT
 CPU TIMES  *       105.69      1.16      0.01      1.69    102.46
 REAL TIME  *       110.90 SEC
 DISK USED  *         3.52 GB      
 SF USED    *        26.13 MB      
 GA USED    *         0.00 MB       (max)       0.00 MB       (current)
 **********************************************************************************************************************************


 PROGRAM * MULTI (Direct Multiconfiguration SCF)       Authors: P.J. Knowles, H.-J. Werner (1984)     S.T. Elbert (1988)


 Number of closed-shell orbitals:  18 (   6   3   3   1   3   1   1   0 )
 Number of active  orbitals:        6 (   3   0   0   1   0   1   1   0 )
 Number of external orbitals:     309 (  84  42  42  31  42  31  31   6 )

 State symmetry 1

 Orbital occupancy restrictions for symmetry 7
  1      1       200000                          

 Number of electrons:     5    Spin symmetry=Sextet    Space symmetry=7
 Number of states:        1
 Number of CSFs:          1

 State symmetry 2

 Orbital occupancy restrictions for symmetry 6
  1      1       200000                          

 Number of electrons:     5    Spin symmetry=Sextet    Space symmetry=6
 Number of states:        1
 Number of CSFs:          1

 State symmetry 3

 Orbital occupancy restrictions for symmetry 4
  1      1       200000                          

 Number of electrons:     5    Spin symmetry=Sextet    Space symmetry=4
 Number of states:        1
 Number of CSFs:          1

 State symmetry 4

 Orbital occupancy restrictions for symmetry 1
  1      1       200000                          

 Number of electrons:     5    Spin symmetry=Sextet    Space symmetry=1
 Number of states:        2
 Number of CSFs:          2
 
 Maximum number of shells:             1
 Maximum number of spin couplings:     1

 Storage for configuration lists      46, coupling coefficients      5, address lists    266

 Molecular orbitals read from record     4202.2  Type=MCSCF/NATURAL (state averaged)

 EXTRA SYMMETRY OF MOS IN SYMMETRY 1:   1 1 1 3 2 1 1 2 3 1   2 3 1 2 3 1 2 3 1 3   2 4 6 5 2 3 1 4 6 5   2 3 1 2 3 4 6 5 1 3
                                        2 6 4 5 3 2 1 5 6 4   3 2 1 3 2 1 3 2 1 3   2 1 2 3 2 3 1 2 3 1   2 3 1 2 3 2 3 1 2 3
                                        1 2 3 1 1 1 1 1 1 1   1 1 1
 EXTRA SYMMETRY OF MOS IN SYMMETRY 2:   1 1 1 1 1 1 1 2 3 1   2 3 1 2 3 1 3 2 1 3   2 1 1 3 2 1 1 1 1 1   1 1 1 1 1 1 1 1 1 1
                                        1 1 1 1 1
 EXTRA SYMMETRY OF MOS IN SYMMETRY 3:   1 1 1 1 1 1 1 2 3 1   2 3 1 2 3 1 3 2 1 3   2 1 1 3 2 1 1 1 1 1   1 1 1 1 1 1 1 1 1 1
                                        1 1 1 1 1
 EXTRA SYMMETRY OF MOS IN SYMMETRY 4:   1 1 1 1 1 1 2 3 1 2   3 1 1 2 3 1 2 3 1 3   2 1 1 1 1 1 1 1 1 1   1 1 1
 EXTRA SYMMETRY OF MOS IN SYMMETRY 5:   1 1 1 1 1 1 1 2 3 1   2 3 1 2 3 1 3 2 1 3   2 1 1 3 2 1 1 1 1 1   1 1 1 1 1 1 1 1 1 1
                                        1 1 1 1 1
 EXTRA SYMMETRY OF MOS IN SYMMETRY 6:   1 1 1 1 1 1 2 3 1 2   3 1 1 2 3 1 3 2 1 3   2 1 1 1 1 1 1 1 1 1   1 1 1
 EXTRA SYMMETRY OF MOS IN SYMMETRY 7:   1 1 1 1 1 1 2 3 1 2   3 1 1 2 3 1 3 2 1 3   2 1 1 1 1 1 1 1 1 1   1 1 1

 Wavefunction dump at record             5202.2

 Convergence thresholds  0.10E-01 (gradient)  0.10E-05 (energy)  0.10E-02 (step length)

 Weight factors for state symmetry  1:    0.20000
 Weight factors for state symmetry  2:    0.20000
 Weight factors for state symmetry  3:    0.20000
 Weight factors for state symmetry  4:    0.20000   0.20000

 Eigenvalues of redundancy matrix
   1-  3    0.000000    0.000000    1.000000

 Non-redundant active-active orbital rotations:
     1  2  3  4  5
  2   
  3  +   
  4         
  5            
  6               

 Number of orbital rotations:     1342   (    21 Core/Active    975 Core/Virtual   1 Active/Active    345 Active/Virtual)
 Total number of variables:       1349


 ITER. MIC  NCI  NEG     ENERGY(VAR)     ENERGY(PROJ)   ENERGY CHANGE     GRAD(0)  GRAD(ORB)   GRAD(CI)     STEP       TIME

   1   21   28    0   -3817.28360726   -3817.28369092   -0.00008366    0.03393598 0.00000000 0.00000000  0.39D-02      1.18
   2   25   20    0   -3817.28369092   -3817.28369092   -0.00000000    0.00000705 0.00000000 0.00000000  0.92D-05      2.12

 ** WVFN ****  CONVERGENCE REACHED, FINAL GRADIENT:  0.13D-09



 Results for state 1.7
 =====================

 !MCSCF STATE 1.7 Energy            -3817.283690921060
 Nuclear energy                         0.00000000
 Kinetic energy                      4207.15414401
 One electron energy                -5271.54099621
 Two electron energy                 1454.25730529
 Virial ratio                           1.90733155

 !MCSCF STATE 1.7 Dipole moment         0.00000000     0.00000000     0.00000000
 Dipole moment /Debye                   0.00000000     0.00000000     0.00000000



 Results for state 1.6
 =====================

 !MCSCF STATE 1.6 Energy            -3817.283690921060
 Nuclear energy                         0.00000000
 Kinetic energy                      4207.15414401
 One electron energy                -5271.54099621
 Two electron energy                 1454.25730529
 Virial ratio                           1.90733155

 !MCSCF STATE 1.6 Dipole moment         0.00000000     0.00000000     0.00000000
 Dipole moment /Debye                   0.00000000     0.00000000     0.00000000



 Results for state 1.4
 =====================

 !MCSCF STATE 1.4 Energy            -3817.283690921060
 Nuclear energy                         0.00000000
 Kinetic energy                      4207.15414401
 One electron energy                -5271.54099621
 Two electron energy                 1454.25730529
 Virial ratio                           1.90733155

 !MCSCF STATE 1.4 Dipole moment         0.00000000     0.00000000     0.00000000
 Dipole moment /Debye                   0.00000000     0.00000000     0.00000000



 Results for state 1.1
 =====================

 !MCSCF STATE 1.1 Energy            -3817.283690921060
 Nuclear energy                         0.00000000
 Kinetic energy                      4207.15414401
 One electron energy                -5271.54099621
 Two electron energy                 1454.25730529
 Virial ratio                           1.90733155

 !MCSCF STATE 1.1 Dipole moment         0.00000000     0.00000000     0.00000000
 Dipole moment /Debye                   0.00000000     0.00000000     0.00000000

 Results for state 2.1
 =====================

 !MCSCF STATE 2.1 Energy            -3817.283690921060
 Nuclear energy                         0.00000000
 Kinetic energy                      4207.15414401
 One electron energy                -5271.54099621
 Two electron energy                 1454.25730529
 Virial ratio                           1.90733155

 !MCSCF STATE 2.1 Dipole moment         0.00000000     0.00000000     0.00000000
 Dipole moment /Debye                   0.00000000     0.00000000     0.00000000

 State-averaged charge density matrix saved on record  5202.2 (density set 1)


 NATURAL ORBITALS (state averaged)
 =================================

   Orb     Occ        Energy       Coefficients

                                   1 1s      1 1s      1 1s      1 1s      1 1s      1 1s      1 1s      1 1s      1 1s      1 1s   
                                   1 1s      1 1s      1 1s      1 1s      1 1s      1 1s      1 1s      1 1s      1 1s      1 1s   
                                   1 1s      1 1s      1 1s      1 1s      1 1s      1 1s      1 1s      1 1s      1 1s      1 1s   
                                   1 1s      1 1s      1 3d0     1 3d2+    1 3d0     1 3d2+    1 3d0     1 3d2+    1 3d0     1 3d2+ 
                                   1 3d0     1 3d2+    1 3d0     1 3d2+    1 3d0     1 3d2+    1 3d0     1 3d2+    1 3d0     1 3d2+ 
                                   1 3d0     1 3d2+    1 3d0     1 3d2+    1 3d0     1 3d2+    1 3d0     1 3d2+    1 3d0     1 3d2+ 
                                   1 3d0     1 3d2+    1 3d0     1 3d2+    1 3d0     1 3d2+    1 3d0     1 3d2+    1 3d0     1 3d2+ 
                                   1 3d0     1 3d2+    1 3d0     1 3d2+    1 3d0     1 3d2+    1 3d0     1 3d2+    1 5g0     1 5g4+ 
                                   1 5g2+    1 5g0     1 5g4+    1 5g2+    1 5g0     1 5g4+    1 5g2+    1 5g0     1 5g4+    1 5g2+ 
                                   1 5g0     1 5g4+    1 5g2+ 

   1.1  2.00000  -701.421174     0.000042  0.000115  0.000295  0.000468  0.000891  0.001786  0.003710  0.007904  0.017860  0.041501
                                 0.001175  0.099563  0.228267  0.385129  0.362539 -0.047555  0.073095 -0.011079  0.021798 -0.024321
                                 0.010864 -0.009505  0.010972 -0.006166  0.006630 -0.005850  0.001003 -0.000327  0.000179 -0.000086
                                 0.000035 -0.000010 -0.000000 -0.000000 -0.000000 -0.000000 -0.000000 -0.000000  0.000000  0.000000
                                -0.000000 -0.000000 -0.000000 -0.000000 -0.000000 -0.000000 -0.000000 -0.000000 -0.000000 -0.000000
                                -0.000000 -0.000000 -0.000000 -0.000000 -0.000000 -0.000000 -0.000000 -0.000000 -0.000000 -0.000000
                                -0.000000 -0.000000 -0.000000 -0.000000 -0.000000 -0.000000 -0.000000 -0.000000 -0.000000 -0.000000
                                 0.000000  0.000000 -0.000000 -0.000000  0.000000  0.000000 -0.000000 -0.000000  0.000000  0.000000
                                 0.000000  0.000000  0.000000  0.000000  0.000000  0.000000  0.000000  0.000000  0.000000  0.000000
                                 0.000000  0.000000  0.000000

   2.1  2.00000  -100.804798    -0.000014 -0.000038 -0.000098 -0.000156 -0.000294 -0.000598 -0.001228 -0.002688 -0.005960 -0.015076
                                 0.001570 -0.038171 -0.087732 -0.193968 -0.178873 -0.068017  0.232184  0.724294  0.273624 -0.031188
[...]
                                   1 2pz     1 2pz     1 2pz     1 4f0     1 4f2+    1 4f0     1 4f2+    1 4f0     1 4f2+    1 4f0  
                                   1 4f2+    1 4f0     1 4f2+    1 4f0     1 4f2+ 

   1.5  2.00000   -97.705584     0.000015  0.000056  0.000199  0.000055  0.000667  0.000582  0.000981  0.002016  0.007621  0.018582
                                 0.000714  0.050173  0.119019  0.238031 -0.002945  0.348915  0.291695  0.102995  0.012937 -0.005648
                                 0.010816 -0.009256  0.003949 -0.002597  0.002493 -0.001027  0.000199 -0.000071  0.000024 -0.000007
                                 0.000004 -0.000002  0.000001  0.000000  0.000000  0.000000  0.000000  0.000000  0.000000  0.000000
                                 0.000000  0.000000  0.000000  0.000000  0.000000

   2.5  2.00000   -21.858119    -0.000006 -0.000024 -0.000086 -0.000024 -0.000290 -0.000257 -0.000421 -0.000891 -0.003346 -0.008322
                                -0.000238 -0.022748 -0.055462 -0.116534  0.002817 -0.181337 -0.122921  0.161002  0.464332 -0.006470
                                 0.442024 -0.037547  0.128214 -0.019511  0.023283 -0.009727  0.001924 -0.000689  0.000233 -0.000067
                                 0.000038 -0.000019  0.000006  0.000000  0.000000  0.000000  0.000000  0.000000  0.000000  0.000000
                                 0.000000  0.000000  0.000000  0.000000  0.000000

                                   1 3d1+    1 3d1+    1 3d1+    1 3d1+    1 3d1+    1 3d1+    1 3d1+    1 3d1+    1 3d1+    1 3d1+ 
                                   1 3d1+    1 3d1+    1 3d1+    1 3d1+    1 3d1+    1 3d1+    1 3d1+    1 3d1+    1 3d1+    1 3d1+ 
                                   1 3d1+    1 3d1+    1 3d1+    1 5g1+    1 5g3+    1 5g1+    1 5g3+    1 5g1+    1 5g3+    1 5g1+ 
                                   1 5g3+    1 5g1+    1 5g3+ 

   1.6  2.00000   -15.831522     0.000103  0.000018  0.001152 -0.000749  0.002195  0.006316  0.020570  0.056454  0.133765  0.242241
                                 0.320065  0.294440  0.149399  0.025597  0.000552 -0.000086  0.000092 -0.000071  0.000047 -0.000026
                                 0.000011 -0.000003  0.000001  0.000000  0.000000  0.000000  0.000000  0.000000  0.000000  0.000000
                                 0.000000  0.000000  0.000000

                                   1 3d1-    1 3d1-    1 3d1-    1 3d1-    1 3d1-    1 3d1-    1 3d1-    1 3d1-    1 3d1-    1 3d1- 
                                   1 3d1-    1 3d1-    1 3d1-    1 3d1-    1 3d1-    1 3d1-    1 3d1-    1 3d1-    1 3d1-    1 3d1- 
                                   1 3d1-    1 3d1-    1 3d1-    1 5g1-    1 5g3-    1 5g1-    1 5g3-    1 5g1-    1 5g3-    1 5g1- 
                                   1 5g3-    1 5g1-    1 5g3- 

   1.7  2.00000   -15.831522     0.000103  0.000018  0.001152 -0.000749  0.002195  0.006316  0.020570  0.056454  0.133765  0.242241
                                 0.320065  0.294440  0.149399  0.025597  0.000552 -0.000086  0.000092 -0.000071  0.000047 -0.000026
                                 0.000011 -0.000003  0.000001  0.000000  0.000000  0.000000  0.000000  0.000000  0.000000  0.000000
                                 0.000000  0.000000  0.000000

 Total charge:  11.000000000000
 
 *** IN SYMMETRY 1 ORBITAL  4 SYMMETRY CONTAMINATION OF 0.999D-02 HAS BEEN REMOVED
 *** IN SYMMETRY 1 ORBITAL  5 SYMMETRY CONTAMINATION OF 0.999D-02 HAS BEEN REMOVED

 EXTRA SYMMETRY OF MOS IN SYMMETRY 1:   1 1 1 3 2 1 3 2 1 3   2 1 4 5 6 2 3 1 5 6   4 2 3 1 5 6 4 2 3 1   6 5 4 2 3 1 2 3 1 2
                                        3 1 2 3 3 2 6 5 4 1   3 2 1 2 3 1 2 3 1 3   2 1 2 3 3 2 1 3 2 1   3 2 1 3 2 3 2 1 3 2
                                        1 3 2 1 1 1 1 1 1 1   1 1 1
 EXTRA SYMMETRY OF MOS IN SYMMETRY 2:   1 1 1 2 3 1 2 3 1 1   3 2 1 2 3 1 1 1 3 2   1 1 3 2 1 1 1 1 1 1   1 1 1 1 1 1 1 1 1 1
                                        1 1 1 1 1
 EXTRA SYMMETRY OF MOS IN SYMMETRY 3:   1 1 1 3 2 1 2 3 1 1   2 3 1 3 2 1 1 1 3 2   1 1 3 2 1 1 1 1 1 1   1 1 1 1 1 1 1 1 1 1
                                        1 1 1 1 1
 EXTRA SYMMETRY OF MOS IN SYMMETRY 4:   1 1 1 2 3 1 3 2 1 3   2 1 2 3 1 1 1 1 1 2   3 1 1 1 1 1 1 1 1 1   1 1 1
 EXTRA SYMMETRY OF MOS IN SYMMETRY 5:   1 1 1 3 2 1 3 2 1 1   3 2 1 2 3 1 1 1 3 2   1 1 3 2 1 1 1 1 1 1   1 1 1 1 1 1 1 1 1 1
                                        1 1 1 1 1
 EXTRA SYMMETRY OF MOS IN SYMMETRY 6:   1 1 1 2 3 1 2 3 1 2   3 1 2 3 1 1 1 1 1 3   2 1 1 1 1 1 1 1 1 1   1 1 1
 EXTRA SYMMETRY OF MOS IN SYMMETRY 7:   1 1 1 3 2 1 2 3 1 2   3 1 3 2 1 1 1 1 1 3   2 1 1 1 1 1 1 1 1 1   1 1 1

 Natural orbital dump at molpro section  5202.2    (Orbital set 2)


 CI vector
 =========

              1.0000000

 TOTAL ENERGIES                     -3779.74134330



 **********************************************************************************************************************************
 DATASETS  * FILE   NREC   LENGTH (MB)   RECORD NAMES
              1      23       78.18       500      610      700      900      950      970     1000      129      960     1700   
                                          VAR    BASINP    GEOM    SYMINP    ZMAT    AOBASIS   BASIS     P2S    ABASIS    OPER   
                                         1101     1401     1411     1412     1650     1100     1400     1410     1200     1210   
                                          SR      EKINR    POTR     PVPR    MOLCAS      S      EKIN      POT      H0       H01  
                                         1080     1600     1380   
                                         AOSYM     SMH     JKOP   

              2      26       68.23       200      700     1000      520     3202     4202     5202     2101     2103     2107   
                                        OPTIONS   GEOM     BASIS   MCVARS     RHF      RHF     MCSCF     RHF      RHF      RHF  
                                         2109     5202(1)  2111     4202(1)  2113     2115     2117     2119     2121     2123   
                                          RHF     MCSCF     RHF      RHF      RHF      RHF      RHF      RHF      RHF      RHF  
                                         2124     2125     2127     2129     2131     2133   
                                          RHF      RHF      RHF      RHF      RHF      RHF  

 PROGRAMS   *        TOTAL     MULTI       POP       RHF  RCCSD(T)       RHF     MULTI       POP       RHF  RCCSD(T)       RHF
 CPU TIMES  *       344.96      0.87      0.01      0.96      1.67      0.13      2.60      0.00      1.00      2.78      0.07
 REAL TIME  *       492.55 SEC
 DISK USED  *         5.47 GB      
 SF USED    *       984.49 MB      
 GA USED    *         0.00 MB       (max)       0.00 MB       (current)
 **********************************************************************************************************************************


 PROGRAM * RHF-SCF (CLOSED SHELL)       Authors: W. Meyer, H.-J. Werner


 NUMBER OF ELECTRONS:      15+   15-    SPACE SYMMETRY=1    SPIN SYMMETRY: Singlet 
 CONVERGENCE THRESHOLDS:    1.00E-05 (Density)    1.00E-07 (Energy)
 MAX. NUMBER OF ITERATIONS:        0
 INTERPOLATION TYPE:            DIIS
 INTERPOLATION STEPS:              2 (START)      1 (STEP)
 LEVEL SHIFTS:                  0.00 (CLOSED)  0.00 (OPEN) 

 Number of closed-shell orbitals:   15 (   6   2   2   1   2   1   1   0 )


 Molecular orbitals read from record     5202.2  Type=MCSCF/NATURAL (state 1.1)

 Molecular orbital dump at record        2135.2

 ITERATION    DDIFF          GRAD             ENERGY        2-EL.EN.            DIPOLE MOMENTS         DIIS   ORB.
    1      0.000D+00      0.000D+00     -3779.74134330   2397.083300    0.00000    0.00000    0.00000    0    start

 Final occupancy:   6   2   2   1   2   1   1   0

 !RHF STATE 1.1 Energy              -3779.741343296062
 Nuclear energy                         0.00000000
 One-electron energy                -4978.28299308
 Two-electron energy                 1198.54164978
 Virial quotient                       -0.90652763
 !RHF STATE 1.1 Dipole moment           0.00000000     0.00000000     0.00000000
 Dipole moment /Debye                   0.00000000     0.00000000     0.00000000

 Orbital energies:

         1.1          2.1          3.1          4.1          5.1          6.1          7.1          8.1
   -709.491874  -108.700471   -25.592002   -15.831522   -15.831522    -8.966778    -5.570329    -5.570329

         1.2          2.2          3.2          4.2
    -97.705584   -21.858119    -7.259053    -3.985692

         1.3          2.3          3.3          4.3
    -97.705584   -21.858119    -7.259053    -3.985692

         1.4          2.4          3.4
    -15.831522    -5.570329    -3.212748

         1.5          2.5          3.5          4.5
    -97.705584   -21.858119    -7.259053    -3.985692

         1.6          2.6          3.6
    -15.831522    -5.570329    -3.212748

         1.7          2.7          3.7
    -15.831522    -5.570329    -3.212748

         1.8          2.8
     -3.985692    -2.509971

 HOMO      6.1    -8.966778 =    -243.9985eV
 LUMO      3.2    -7.259053 =    -197.5289eV
 LUMO-HOMO         1.707725 =      46.4696eV


 **********************************************************************************************************************************
 DATASETS  * FILE   NREC   LENGTH (MB)   RECORD NAMES
              1      23       78.18       500      610      700      900      950      970     1000      129      960     1700   
                                          VAR    BASINP    GEOM    SYMINP    ZMAT    AOBASIS   BASIS     P2S    ABASIS    OPER   
                                         1101     1401     1411     1412     1650     1100     1400     1410     1200     1210   
                                          SR      EKINR    POTR     PVPR    MOLCAS      S      EKIN      POT      H0       H01  
                                         1080     1600     1380   
                                         AOSYM     SMH     JKOP   

              2      27       71.31       200      700     1000      520     3202     4202     5202     2101     2103     2107   
                                        OPTIONS   GEOM     BASIS   MCVARS     RHF      RHF     MCSCF     RHF      RHF      RHF  
                                         2109     5202(1)  2111     4202(1)  2113     2115     2117     2119     2121     2123   
                                          RHF     MCSCF     RHF      RHF      RHF      RHF      RHF      RHF      RHF      RHF  
                                         2124     2125     2127     2129     2131     2133     2135   
                                          RHF      RHF      RHF      RHF      RHF      RHF      RHF  

 PROGRAMS   *        TOTAL       RHF     MULTI       POP       RHF  RCCSD(T)       RHF     MULTI       POP       RHF  RCCSD(T)
 CPU TIMES  *       345.05      0.09      0.87      0.01      0.96      1.67      0.13      2.60      0.00      1.00      2.78
 REAL TIME  *       492.71 SEC
 DISK USED  *         5.47 GB      
 SF USED    *       984.49 MB      
 GA USED    *         0.00 MB       (max)       0.00 MB       (current)
 **********************************************************************************************************************************
 SETTING SCF(17)        =     -3779.74134330  AU                              
 SETTING _CC_NORM_MAX   =         2.00000000                                  


 PROGRAM * CCSD (Restricted open-shell coupled cluster)     Authors: C. Hampel, H.-J. Werner, 1991, M. Deegan, P.J. Knowles, 1992


 Convergence thresholds:  THRVAR = 1.00D-08  THRDEN = 1.00D-06

 CCSD(T)     terms to be evaluated (factor= 1.000)


 Number of core orbitals:          14 (   5   2   2   1   2   1   1   0 )
 Number of closed-shell orbitals:   1 (   1   0   0   0   0   0   0   0 )
 Number of external orbitals:     318 (  87  43  43  32  43  32  32   6 )

 Memory could be reduced to 31.99 Mwords without degradation in triples

 Number of N-1 electron functions:               2
 Number of N-2 electron functions:               1
 Number of singly external CSFs:               174
 Number of doubly external CSFs:             16224
 Total number of CSFs:                       16398

 Molecular orbitals read from record     2135.2  Type=RHF/CANONICAL (state 1.1)

 Integral transformation finished. Total CPU:   0.22 sec, npass=  1  Memory used:   2.44 MW

 Starting RMP2 calculation

 Wavefunction is spin-projected

 ITER.      SQ.NORM     CORR.ENERGY   TOTAL ENERGY   ENERGY CHANGE        DEN1      VAR(S)    VAR(P)  DIIS     TIME
   1      1.01070695    -0.04400285 -3779.78534614    -0.04400285    -0.00009928  0.15D-27  0.27D-04  1  1     0.29
   2      1.01076602    -0.04410747 -3779.78545077    -0.00010463    -0.00000001  0.20D-30  0.10D-08  2  2     0.29
   3      1.01076623    -0.04410774 -3779.78545103    -0.00000027    -0.00000000  0.11D-34  0.31D-13  3  3     0.29

 Norm of t1 vector:      0.00000000      S-energy:    -0.00000000      T1 diagnostic:  0.00000000
 Norm of t2 vector:      0.10376046      P-energy:    -0.04410774
                                         Alpha-Beta:  -0.04410774
                                         Alpha-Alpha:  0.00000000
                                         Beta-Beta:    0.00000000

 Spin contamination <S**2-Sz**2-Sz>     0.00000000
  Reference energy                  -3779.741343296055
  RHF-RMP2 correlation energy          -0.044107736409
 !RHF-RMP2 energy                   -3779.785451032464
 (NB above energy spin projected)

 Starting RCCSD calculation

 ITER.      SQ.NORM     CORR.ENERGY   TOTAL ENERGY   ENERGY CHANGE        DEN1      VAR(S)    VAR(P)  DIIS     TIME
   1      1.01554733    -0.05083388 -3779.79217718    -0.05083388    -0.00303554  0.25D-05  0.79D-03  1  1     0.35
   2      1.01923877    -0.05516766 -3779.79651096    -0.00433378    -0.00003677  0.53D-08  0.59D-05  2  2     0.42
   3      1.01951353    -0.05542215 -3779.79676545    -0.00025449    -0.00000025  0.13D-08  0.29D-07  3  3     0.49
   4      1.01952009    -0.05542639 -3779.79676968    -0.00000423    -0.00000000  0.11D-11  0.15D-09  4  4     0.56
   5      1.01952062    -0.05542692 -3779.79677022    -0.00000054    -0.00000000  0.35D-13  0.43D-12  5  5     0.64

 Norm of t1 vector:      0.00228444      S-energy:     0.00000000      T1 diagnostic:  0.00114222
                                                                       D1 diagnostic:  0.00161534
 Norm of t2 vector:      0.13969752      P-energy:    -0.05542692
                                         Alpha-Beta:  -0.05542692
                                         Alpha-Alpha:  0.00000000
                                         Beta-Beta:    0.00000000

 Doubles amplitudes (print threshold =  0.500E-01):

         I         J         SYM. A    SYM. B    A         B      T(IJ, AB) [Alpha-Beta]

         1         1         2         2         1         1     -0.07823230
         1         1         3         3         1         1     -0.07823230
         1         1         5         5         1         1     -0.07823230

 Spin contamination <S**2-Sz**2-Sz>     0.00000000

 Memory could be reduced to 31.64 Mwords without degradation in triples
 

  Correlated core orbitals:             6.1
  Orbital energies:                    -8.9668
 
  RCCSD core-core energy               -0.055426922420
 

 RESULTS
 =======

  Reference energy                  -3779.741343296055
  RCCSD singles energy                  0.000000000000
  RCCSD pair energy                    -0.055426922420
  RCCSD correlation energy             -0.055426922420
  Triples (T) contribution              0.000000000000
  Total correlation energy             -0.055426922420
 
  RHF-RCCSD energy                  -3779.796770218475
  RHF-RCCSD[T] energy               -3779.796770218475
  RHF-RCCSD-T energy                -3779.796770218475
 !RHF-RCCSD(T) energy               -3779.796770218475

 Program statistics:

 Available memory in ccsd:               999999882
 Min. memory needed in ccsd:                478717
 Max. memory used in ccsd:                  478717
 Max. memory used in cckext:                713832 ( 5 integral passes)
 Max. memory used in cckint:               2442166 ( 1 integral passes)



 **********************************************************************************************************************************
 DATASETS  * FILE   NREC   LENGTH (MB)   RECORD NAMES
              1      23       78.18       500      610      700      900      950      970     1000      129      960     1700   
                                          VAR    BASINP    GEOM    SYMINP    ZMAT    AOBASIS   BASIS     P2S    ABASIS    OPER   
                                         1101     1401     1411     1412     1650     1100     1400     1410     1200     1210   
                                          SR      EKINR    POTR     PVPR    MOLCAS      S      EKIN      POT      H0       H01  
                                         1080     1600     1380   
                                         AOSYM     SMH     JKOP   

              2      27       71.31       200      700     1000      520     3202     4202     5202     2101     2103     2107   
                                        OPTIONS   GEOM     BASIS   MCVARS     RHF      RHF     MCSCF     RHF      RHF      RHF  
                                         2109     5202(1)  2111     4202(1)  2113     2115     2117     2119     2121     2123   
                                          RHF     MCSCF     RHF      RHF      RHF      RHF      RHF      RHF      RHF      RHF  
                                         2124     2125     2127     2129     2131     2133     2135   
                                          RHF      RHF      RHF      RHF      RHF      RHF      RHF  

 PROGRAMS   *        TOTAL  RCCSD(T)       RHF     MULTI       POP       RHF  RCCSD(T)       RHF     MULTI       POP       RHF
 CPU TIMES  *       346.02      0.97      0.09      0.87      0.01      0.96      1.67      0.13      2.60      0.00      1.00
 REAL TIME  *       494.00 SEC
 DISK USED  *         5.47 GB      
 SF USED    *       984.49 MB      
 GA USED    *         0.00 MB       (max)       0.00 MB       (current)
 **********************************************************************************************************************************
 SETTING CCSD(17)       =     -3779.79677022  AU                              
 Output type csv         
                                                                                                                                                                                                                                                                

         SCF,CCSD
   -3817.283691,   -3817.683157
   -3817.224533,   -3817.632359
   -3817.263162,   -3817.713475
   -3817.063758,   -3817.434329
   -3817.060225,   -3817.425188
   -3816.582515,   -3816.918198
   -3815.692440,   -3815.998497
   -3814.343553,   -3814.623193
   -3813.760286,   -3814.034144
   -3813.356441,   -3813.644698
   -3812.529461,   -3812.777992
   -3808.792450,   -3809.008272
   -3804.444166,   -3804.618477
   -3799.464375,   -3799.588349
   -3793.576770,   -3793.680817
   -3787.008579,   -3787.089556
   -3779.741343,   -3779.796770
                                                  

 RCCSD(T)/USERDEF energy=  -3779.796770218475

        RCCSD(T)        RHF-SCF         MULTI           RHF-SCF         RCCSD(T)        RHF-SCF         MULTI           RHF-SCF 
  -3779.79677022  -3779.74134330  -3779.74134330  -3779.74134330  -3787.08955567  -3787.00857911  -3787.00857911  -3787.00915118
 **********************************************************************************************************************************
 Molpro calculation terminated
 Variable memory released
