<?xml version="1.0"?>
<molpro xmlns="http://www.molpro.net/schema/molpro-output"
  xmlns:xsd="http://www.w3.org/1999/XMLSchema"
  xmlns:cml="http://www.xml-cml.org/schema"
  xmlns:stm="http://www.xml-cml.org/schema"
  xmlns:xhtml="http://www.w3.org/1999/xhtml">
 <!--

 Nodes     nprocs
 nid02190    11
 Number of processes for MPI-2 version of Molpro:   nprocs(total)=   12   nprocs(compute)=   11   nprocs(helper)=    1

 Using customized tuning parameters: mindgm=7; mindgv=16; mindgc=1; mindgr=1; noblas=0; minvec=7
 default implementation of scratch files=sf

 --><job>
  <!--

 Variables initialized (889), CPU time= 0.01 sec
 Commands  initialized (702), CPU time= 0.02 sec, 572 directives.
 Default parameters read. Elapsed time= 0.13 sec

 Checking input...
 Passed
1


                                         ***  PROGRAM SYSTEM MOLPRO  ***
                                       Copyright, TTI GmbH Stuttgart, 2015
                                    Version 2015.1 linked Dec 29 2018 15:55:43


 **********************************************************************************************************************************
 LABEL *   Calculation for GdH3 atom, singlet and triplet
  64 bit mpp version                                                                     DATE: 27-Dec-22          TIME: 13:26:35
 **********************************************************************************************************************************

 SHA1:             19cd028119e0e09f93f0674bd8af7968d9b3eff6
 **********************************************************************************************************************************
  -->
  <!--

 THRESHOLDS:

 ZERO    =  1.00D-12  ONEINT  =  1.00D-12  TWOINT  =  1.00D-15  PREFAC  =  1.00D-14  LOCALI  =  1.00D-09  EORDER  =  1.00D-04
 ENERGY  =  0.00D+00  ETEST   =  0.00D+00  EDENS   =  0.00D+00  THRDEDEF=  1.00D-06  GRADIENT=  1.00D-02  STEP    =  1.00D-03
 ORBITAL =  1.00D-05  CIVEC   =  1.00D-05  COEFF   =  1.00D-04  PRINTCI =  5.00D-02  PUNCHCI =  9.90D+01  OPTGRAD =  3.00D-04
 OPTENERG=  1.00D-06  OPTSTEP =  3.00D-04  THRGRAD =  1.00D-10  COMPRESS=  1.00D-11  VARMIN  =  1.00D-07  VARMAX  =  1.00D-03
 THRDOUB =  0.00D+00  THRDIV  =  1.00D-05  THRRED  =  1.00D-07  THRPSP  =  1.00D+00  THRDC   =  1.00D-10  THRCS   =  1.00D-10
 THRNRM  =  1.00D-08  THREQ   =  0.00D+00  THRDE   =  1.00D+00  THRREF  =  1.00D-05  SPARFAC =  1.00D+00  THRDLP  =  1.00D-07
 THRDIA  =  1.00D-10  THRDLS  =  1.00D-07  THRGPS  =  0.00D+00  THRKEX  =  0.00D+00  THRDIS  =  2.00D-01  THRVAR  =  1.00D-10
 THRLOC  =  1.00D-06  THRGAP  =  1.00D-06  THRLOCT = -1.00D+00  THRGAPT = -1.00D+00  THRORB  =  1.00D-06  THRMLTP =  0.00D+00
 THRCPQCI=  1.00D-10  KEXTA   =  0.00D+00  THRCOARS=  0.00D+00  SYMTOL  =  1.00D-06  GRADTOL =  1.00D-06  THROVL  =  1.00D-08
 THRORTH =  1.00D-08  GRID    =  1.00D-06  GRIDMAX =  1.00D-03  DTMAX   =  0.00D+00  THROCCDE=  1.00D-01  THROCCDE=  1.00D-01



 THRESHOLDS:

 ZERO    =  1.00D-12  ONEINT  =  1.00D-12  TWOINT  =  1.00D-15  PREFAC  =  1.00D-14  LOCALI  =  1.00D-09  EORDER  =  1.00D-04
 ENERGY  =  0.00D+00  ETEST   =  0.00D+00  EDENS   =  0.00D+00  THRDEDEF=  1.00D-06  GRADIENT=  1.00D-02  STEP    =  1.00D-03
 ORBITAL =  1.00D-05  CIVEC   =  1.00D-05  COEFF   =  1.00D-04  PRINTCI =  5.00D-02  PUNCHCI =  9.90D+01  OPTGRAD =  3.00D-04
 OPTENERG=  1.00D-06  OPTSTEP =  3.00D-04  THRGRAD =  1.00D-10  COMPRESS=  1.00D-11  VARMIN  =  1.00D-07  VARMAX  =  1.00D-03
 THRDOUB =  0.00D+00  THRDIV  =  1.00D-05  THRRED  =  1.00D-07  THRPSP  =  1.00D+00  THRDC   =  1.00D-10  THRCS   =  1.00D-10
 THRNRM  =  1.00D-08  THREQ   =  0.00D+00  THRDE   =  1.00D+00  THRREF  =  1.00D-05  SPARFAC =  1.00D+00  THRDLP  =  1.00D-07
 THRDIA  =  1.00D-10  THRDLS  =  1.00D-07  THRGPS  =  0.00D+00  THRKEX  =  0.00D+00  THRDIS  =  2.00D-01  THRVAR  =  1.00D-10
 THRLOC  =  1.00D-06  THRGAP  =  1.00D-06  THRLOCT = -1.00D+00  THRGAPT = -1.00D+00  THRORB  =  1.00D-06  THRMLTP =  0.00D+00
 THRCPQCI=  1.00D-10  KEXTA   =  0.00D+00  THRCOARS=  0.00D+00  SYMTOL  =  1.00D-06  GRADTOL =  1.00D-06  THROVL  =  1.00D-15
 THRORTH =  1.00D-08  GRID    =  1.00D-06  GRIDMAX =  1.00D-03  DTMAX   =  0.00D+00  THROCCDE=  1.00D-01  THROCCDE=  1.00D-01



 Variable memory set to 1000000000 words,  buffer space   230000 words

 SETTING BASIS          =    USERDEF
 SETTING GD_CCSD        =      -108.94859710
 SETTING H_CCSD         =        -0.49982987
 SETTING NE             =        19.00000000
 SETTING SYMM           =         4.00000000
 SETTING SS             =         9.00000000
 SETTING A1             =         7.00000000
 SETTING B1             =         3.00000000
 SETTING B2             =         3.00000000
 SETTING A2             =         1.00000000
 ZUNIT=ANG


Geometry recognized as XYZ

  --><jobstep command="RHF-SCF" commandset="SCFPRO">
   <!--


 Recomputing integrals since basis changed


 Using spherical harmonics



 PROGRAM * SEWARD (Integral evaluation for generally contracted gaussian basis sets)     Author: Roland Lindh, 1990

 Geometry written to block  1 of record 700


 Point group  C2v


   --><cml:molecule>
    <cml:symmetry pointGroup="C2v"/>
    <cml:atomArray>
     <cml:atom id="a1" elementType="Gd" x3="0.0" y3="0.0" z3="0.0"/>
     <cml:atom id="a2" elementType="H" x3="0.0" y3="0.0" z3="2.2"/>
    </cml:atomArray>
    <cml:bondArray>
     <cml:bond atomRefs2="a1 a2"/>
    </cml:bondArray>
   </cml:molecule><!--

 ATOMIC COORDINATES

 NR  ATOM    CHARGE       X              Y              Z

   1  GD     18.00    0.000000000    0.000000000    0.000000000
   2  H       1.00    0.000000000    0.000000000    4.157397474

 Bond lengths in Bohr (Angstrom)

 1-2  4.157397474
     ( 2.200000000)

 NUCLEAR CHARGE:                   19
 NUMBER OF PRIMITIVE AOS:         619
 NUMBER OF SYMMETRY AOS:          469
 NUMBER OF CONTRACTIONS:          469   ( 183A1  + 112B1  + 112B2  +  62A2  )
 NUMBER OF CORE ORBITALS:           0   (   0A1  +   0B1  +   0B2  +   0A2  )
 NUMBER OF VALENCE ORBITALS:       18   (   8A1  +   4B1  +   4B2  +   2A2  )


 NUCLEAR REPULSION ENERGY    4.32963173

 EXTRA SYMMETRY OF AOS IN SYMMETRY 1:   1 1 1 1 1 1 1 1 1 1   1 1 1 1 1 1 1 1 1 1   1 1 1 1 1 1 1 1 1 1   1 1 1 1 1 1 1 1 1 1
                                        1 1 1 1 1 1 1 1 1 1   1 1 1 1 1 1 1 1 1 1   1 1 1 2 1 2 1 2 1 2   1 2 1 2 1 2 1 2 1 2
                                        1 2 1 2 1 2 1 2 1 2   1 2 1 2 1 2 1 2 1 2   1 2 1 2 1 2 1 2 1 2   1 2 1 2 1 2 1 2 1 2
                                        1 2 1 2 1 2 1 2 1 2   1 2 1 2 1 3 2 1 3 2   1 3 2 1 3 2 1 3 2 1   3 2 1 3 2 1 3 2 1 3
                                        2 2 3 1 2 3 1 2 3 1   1 1 1 1 1 1 1 1 1 1   2 1 2
 EXTRA SYMMETRY OF AOS IN SYMMETRY 2:   1 1 1 1 1 1 1 1 1 1   1 1 1 1 1 1 1 1 1 1   1 1 1 1 1 1 1 1 1 1   1 1 1 1 1 1 1 1 1 1
                                        1 1 1 1 1 1 1 1 1 1   1 1 1 2 1 2 1 2 1 2   1 2 1 2 1 2 1 2 1 2   1 2 1 2 1 2 1 2 1 2
                                        1 2 1 2 1 2 1 2 1 2   1 2 1 2 1 2 1 2 1 2   3 1 2 3 1 2 3 1 1 1   1 1
 EXTRA SYMMETRY OF AOS IN SYMMETRY 3:   1 1 1 1 1 1 1 1 1 1   1 1 1 1 1 1 1 1 1 1   1 1 1 1 1 1 1 1 1 1   1 1 1 1 1 1 1 1 1 1
                                        1 1 1 1 1 1 1 1 1 1   1 1 1 2 1 2 1 2 1 2   1 2 1 2 1 2 1 2 1 2   1 2 1 2 1 2 1 2 1 2
                                        1 2 1 2 1 2 1 2 1 2   1 2 1 2 1 2 1 2 1 2   3 1 2 3 1 2 3 1 1 1   1 1
 EXTRA SYMMETRY OF AOS IN SYMMETRY 4:   1 1 1 1 1 1 1 1 1 1   1 1 1 1 1 1 1 1 1 1   1 1 1 1 1 1 1 1 1 1   1 1 1 1 1 1 1 2 1 2
                                        1 2 1 2 1 2 1 2 1 2   1 2 1 2 2 1 2 1 2 1   1 1

 Eigenvalues of metric

         1 0.115E-06 0.306E-06 0.612E-06 0.723E-06 0.727E-06 0.741E-06 0.134E-05 0.432E-05
         2 0.616E-06 0.727E-06 0.439E-05 0.139E-04 0.238E-04 0.448E-04 0.885E-04 0.148E-03
         3 0.616E-06 0.727E-06 0.439E-05 0.139E-04 0.238E-04 0.448E-04 0.885E-04 0.148E-03
         4 0.727E-06 0.238E-04 0.149E-03 0.540E-03 0.826E-03 0.926E-03 0.420E-02 0.882E-02


 Contracted 2-electron integrals neglected if value below      1.0D-15
 AO integral compression algorithm  1   Integral accuracy      1.0D-15

     5609.619 MB (compressed) written to integral file ( 48.1%)

     Node minimum: 318.243 MB, node maximum: 741.343 MB


 NUMBER OF SORTED TWO-ELECTRON INTEGRALS:  140147600.     BUFFER LENGTH:  32768
 NUMBER OF SEGMENTS:   5  SEGMENT LENGTH:   31993308      RECORD LENGTH: 524288

 Memory used in sort:      32.55 MW

 SORT1 READ  1457666564. AND WROTE    54871678. INTEGRALS IN    160 RECORDS. CPU TIME:    23.46 SEC, REAL TIME:    32.52 SEC
 SORT2 READ   605165096. AND WROTE  1542818159. INTEGRALS IN  21351 RECORDS. CPU TIME:     1.98 SEC, REAL TIME:     3.00 SEC

 Node minimum:   140147600.  Node maximum:   140434714. integrals

 OPERATOR DM      FOR CENTER  0  COORDINATES:    0.000000    0.000000    0.000000


 **********************************************************************************************************************************
 DATASETS  * FILE   NREC   LENGTH (MB)   RECORD NAMES
              1      19       22.57       500      610      700      900      950      970     1000      129      960     1100
                                          VAR    BASINP    GEOM    SYMINP    ZMAT    AOBASIS   BASIS     P2S    ABASIS      S
                                         1400     1410     1420     1200     1210     1080     1600     1650     1700
                                           T        V       ECP      H0       H01     AOSYM     SMH    MOLCAS    OPER

 PROGRAMS   *        TOTAL       INT
 CPU TIMES  *       112.51    112.11
 REAL TIME  *       124.01 SEC
 DISK USED  *        12.83 GB
 GA USED    *         0.00 MB       (max)       0.00 MB       (current)
 **********************************************************************************************************************************


 PROGRAM * RHF-SCF (OPEN SHELL)       Authors: W. Meyer, H.-J. Werner


 NUMBER OF ELECTRONS:      14+    5-    SPACE SYMMETRY=4    SPIN SYMMETRY: Decet
 CONVERGENCE THRESHOLDS:    1.00E-05 (Density)    1.00E-07 (Energy)
 MAX. NUMBER OF ITERATIONS:      200
 INTERPOLATION TYPE:            DIIS
 INTERPOLATION STEPS:              2 (START)      1 (STEP)
 LEVEL SHIFTS:                 -0.60 (CLOSED) -0.30 (OPEN)

 Number of closed-shell orbitals:    5 (   3   1   1   0 )
 Number of open-shell orbitals:      9 (   4   2   2   1 )


 Guess basis ATOMIC-GUESS,GD=ECP46_GUESS not found. No density guess!


 Molecular orbital dump at record        2100.2

 ITERATION    DDIFF          GRAD             ENERGY        2-EL.EN.            DIPOLE MOMENTS         DIIS   ORB.
    1      0.000D+00      0.000D+00       -75.32030252    337.438487    0.00000    0.00000    3.84464    0    start
    2      0.000D+00      0.168D+00       -23.85849538     17.649848    0.00000    0.00000  -71.28145    0    diag,B
    3      0.767D+01      0.450D-01       -76.46356685    335.008002    0.00000    0.00000    4.45602    1    diag,B
    4      0.767D+01      0.166D+00       -80.47764726    326.437840    0.00000    0.00000    4.41953    2    diag,B
    5      0.641D-01      0.150D+00       -85.35638167    314.788704    0.00000    0.00000    4.36535    3    diag,B
    6      0.852D-01      0.132D+00       -85.82686081    313.604280    0.00000    0.00000    4.34382    4    diag,B
    7      0.277D-01      0.130D+00       -86.21199972    312.573850    0.00000    0.00000    4.32072    5    diag,B
    8      0.279D-01      0.129D+00       -86.34729025    312.226118    0.00000    0.00000    4.31874    6    diag,B
    9      0.101D-01      0.128D+00       -86.74177063    311.141567    0.00000    0.00000    4.47551    7    diag,B
   10      0.869D-02      0.126D+00       -86.73335752    311.156630    0.00000    0.00000    4.49185    8    orth
   11      0.529D-02      0.127D+00       -87.75561863    308.411293    0.00000    0.00000    4.39303    9    diag,B
   12      0.227D-01      0.122D+00       -87.77485299    308.340210    0.00000    0.00000    4.39987    9    diag,B
   13      0.195D-01      0.122D+00       -88.96679229    304.976875    0.00000    0.00000    4.37216    9    diag,B
   14      0.496D-01      0.118D+00       -88.69574511    305.759387    0.00000    0.00000    4.35321    9    diag,B
   15      0.608D-02      0.119D+00       -88.48811972    306.372712    0.00000    0.00000    4.40146    9    diag,B
   16      0.374D-01      0.119D+00       -88.64804426    305.909649    0.00000    0.00000    4.37281    9    diag,B
   17      0.137D-01      0.119D+00       -88.44287556    306.474203    0.00000    0.00000    4.41034    9    diag,B
   18      0.148D-01      0.120D+00       -88.46155869    306.429501    0.00000    0.00000    4.37528    9    diag,B
   19      0.222D-02      0.120D+00       -87.59667604    308.837540    0.00000    0.00000    4.42348    9    diag,B
   20      0.284D-01      0.123D+00       -88.98450901    304.909691    0.00000    0.00000    4.45803    9    orth
   21      0.534D-01      0.118D+00       -87.56016075    308.876998    0.00000    0.00000    4.56535    9    diag,B
   22      0.515D-01      0.123D+00       -88.54537647    306.142972    0.00000    0.00000    4.51376    9    diag,B
   23      0.365D-01      0.120D+00       -88.35769545    306.691060    0.00000    0.00000    4.48958    9    diag,B
   24      0.476D-02      0.120D+00       -88.91992570    305.075777    0.00000    0.00000    4.48189    9    diag,B
   25      0.130D-01      0.117D+00       -87.14712642    310.089349    0.00000    0.00000    4.33369    9    diag,B
   26      0.418D-01      0.125D+00       -88.24744576    307.084210    0.00000    0.00000    4.24306    9    diag,B
   27      0.216D-01      0.121D+00       -89.45569342    303.580920    0.00000    0.00000    4.37863    9    diag,B
   28      0.324D-01      0.115D+00       -88.10563550    307.416015    0.00000    0.00000    4.42924    9    diag,B
   29      0.329D-01      0.121D+00       -89.22747119    304.249135    0.00000    0.00000    4.36798    9    diag,B
   30      0.339D-01      0.117D+00       -89.44370099    303.635547    0.00000    0.00000    4.29888    9    orth
   31      0.740D-02      0.116D+00       -87.93124895    307.928448    0.00000    0.00000    4.36809    9    diag,B
   32      0.278D-01      0.122D+00       -87.62377904    308.741154    0.00000    0.00000    4.34988    9    diag,B
   33      0.584D-02      0.124D+00       -89.64343881    303.004741    0.00000    0.00000    4.44095    9    diag,B
   34      0.268D-01      0.115D+00       -88.84733829    305.321059    0.00000    0.00000    4.46090    9    diag,B
   35      0.301D-01      0.118D+00       -88.22401400    307.125871    0.00000    0.00000    4.34191    9    diag,B
   36      0.106D-01      0.121D+00       -87.60414363    308.809650    0.00000    0.00000    4.35730    9    diag,B
   37      0.186D-01      0.123D+00       -89.12627677    304.550364    0.00000    0.00000    4.24289    9    diag,B
   38      0.555D-01      0.117D+00       -87.30225914    309.664716    0.00000    0.00000    4.35099    9    diag,B
   39      0.557D-01      0.125D+00       -89.02341245    304.861595    0.00000    0.00000    4.27362    9    diag,B
   40      0.361D-01      0.117D+00       -88.72090244    305.730228    0.00000    0.00000    4.19567    9    orth
   41      0.110D-01      0.118D+00       -85.17911003    315.272812    0.00000    0.00000    4.35075    9    diag,B
   42      0.106D+00      0.133D+00       -88.73905185    305.666318    0.00000    0.00000    4.31684    9    diag,B
   43      0.118D+00      0.119D+00       -89.15308152    304.484234    0.00000    0.00000    4.29266    9    diag,B
   44      0.619D-02      0.117D+00       -88.92886908    305.154653    0.00000    0.00000    4.25488    9    diag,B
   45      0.372D-01      0.117D+00       -84.94463835    315.855747    0.00000    0.00000    4.33926    9    diag,B
   46      0.822D-01      0.133D+00       -88.57332638    306.148255    0.00000    0.00000    4.31952    9    diag,B
   47      0.100D+00      0.119D+00       -89.76167635    302.695894    0.00000    0.00000    4.22801    9    diag,B
   48      0.391D-01      0.114D+00       -89.75902512    302.708076    0.00000    0.00000    4.23793    9    diag,B
   49      0.196D-02      0.114D+00       -89.47641840    303.504340    0.00000    0.00000    4.30580    9    diag,B
   50      0.811D-02      0.116D+00       -89.57093574    303.212819    0.00000    0.00000    4.32052    9    orth
   51      0.252D-02      0.115D+00       -86.92306214    310.625566    0.00000    0.00000    4.49605    9    diag,B
   52      0.131D+00      0.126D+00       -88.52847870    306.194033    0.00000    0.00000    4.56872    9    diag,B
   53      0.659D-01      0.119D+00       -89.29716069    304.015005    0.00000    0.00000    4.46256    9    diag,B
   54      0.441D-01      0.116D+00       -89.16392234    304.317374    0.00000    0.00000    4.45228    9    diag,B
   55      0.177D-01      0.117D+00       -87.93237637    307.843794    0.00000    0.00000    4.56295    9    diag,B
   56      0.590D-01      0.121D+00       -87.10795974    310.171335    0.00000    0.00000    4.43951    9    diag,B
   57      0.132D-01      0.125D+00       -89.42028111    303.670940    0.00000    0.00000    4.43042    9    diag,B
   58      0.753D-01      0.116D+00       -89.33003653    303.891782    0.00000    0.00000    4.47433    9    diag,B
   59      0.284D-01      0.116D+00       -89.52169115    303.372373    0.00000    0.00000    4.39424    9    fixocc
     Orbital  1.2 strongly deviates from fixed occupation: 1.88648  (now: 2.00)
     Orbital  2.2 strongly deviates from fixed occupation: 1.10544  (now: 1.00)
     Orbital  1.3 strongly deviates from fixed occupation: 1.86975  (now: 2.00)
     Orbital  2.3 strongly deviates from fixed occupation: 1.12508  (now: 1.00)
     Note:  Use {hf,nitord=N} to fix occupations at iteration N
            Use {gthresh,occdev=1.0} to suppress deviation warnings
   60      0.906D-02      0.115D+00       -86.10962645    312.793957    0.00000    0.00000    4.56370    9    orth
   61      0.103D+00      0.129D+00       -89.45791657    303.552712    0.00000    0.00000    4.44152    9    diag,B
   62      0.123D+00      0.116D+00       -87.90931978    308.016011    0.00000    0.00000    4.16660    9    diag,B
   63      0.495D-01      0.122D+00       -88.06958149    307.515299    0.00000    0.00000    4.53207    9    diag,B
     Orbital  1.2 strongly deviates from fixed occupation: 1.60409  (now: 2.00)
     Orbital  2.2 strongly deviates from fixed occupation: 1.39517  (now: 1.00)
   64      0.231D-01      0.121D+00       -89.11725326    304.494933    0.00000    0.00000    4.48526    9    diag,B
     Orbital  1.2 strongly deviates from fixed occupation: 1.76207  (now: 2.00)
     Orbital  2.2 strongly deviates from fixed occupation: 1.23567  (now: 1.00)
   65      0.548D-01      0.117D+00       -86.77448284    311.028937    0.00000    0.00000    4.24092    9    diag,B
     Orbital  1.2 strongly deviates from fixed occupation: 1.87963  (now: 2.00)
     Orbital  2.2 strongly deviates from fixed occupation: 1.11897  (now: 1.00)
     Orbital  1.3 strongly deviates from fixed occupation: 1.88189  (now: 2.00)
     Orbital  2.3 strongly deviates from fixed occupation: 1.11706  (now: 1.00)
   66      0.755D-01      0.126D+00       -85.05754764    315.494710    0.00000    0.00000    4.45062    9    diag,B
   67      0.661D-01      0.133D+00       -85.13246030    315.347906    0.00000    0.00000    4.26388    9    diag,B
   68      0.134D-01      0.133D+00       -85.03908087    315.572386    0.00000    0.00000    4.36505    9    diag,B
   69      0.118D-01      0.133D+00       -85.06432766    315.513524    0.00000    0.00000    4.33897    9    diag,B
   70      0.299D-02      0.133D+00       -85.06021403    315.522868    0.00000    0.00000    4.34533    9    orth
   71      0.988D-03      0.133D+00       -85.06067159    315.521286    0.00000    0.00000    4.34753    9    diag,B
   72      0.329D-03      0.133D+00       -85.06442872    315.510585    0.00000    0.00000    4.35277    9    diag,B
   73      0.688D-03      0.133D+00       -85.07086197    315.494527    0.00000    0.00000    4.35100    9    diag,B
   74      0.220D-03      0.133D+00       -85.09021025    315.449417    0.00000    0.00000    4.32861    9    diag,B
   75      0.223D-02      0.133D+00       -85.05650083    315.532666    0.00000    0.00000    4.33979    9    diag,B
   76      0.974D-03      0.133D+00       -85.09410153    315.440022    0.00000    0.00000    4.32757    9    diag,B
   77      0.136D-02      0.133D+00       -85.09951427    315.426646    0.00000    0.00000    4.32532    9    diag,B
   78      0.632D-03      0.133D+00       -85.05846748    315.528546    0.00000    0.00000    4.33677    9    diag,B
   79      0.174D-02      0.133D+00       -85.10731615    315.407038    0.00000    0.00000    4.32349    9    diag,B
   80      0.224D-02      0.133D+00       -85.11133593    315.397017    0.00000    0.00000    4.32204    9    orth
   81      0.340D-03      0.133D+00       -85.06866401    315.503321    0.00000    0.00000    4.33144    9    diag,B
   82      0.165D-02      0.133D+00       -85.11246019    315.393449    0.00000    0.00000    4.32529    9    diag,B
   83      0.128D-02      0.133D+00       -85.10993030    315.399100    0.00000    0.00000    4.32927    9    diag,B
   84      0.581D-03      0.133D+00       -85.04706327    315.555798    0.00000    0.00000    4.34851    9    diag,B
   85      0.317D-02      0.133D+00       -85.10272299    315.419297    0.00000    0.00000    4.32000    9    diag,B
   86      0.435D-02      0.133D+00       -85.07634887    315.484682    0.00000    0.00000    4.32892    9    diag,B
   87      0.145D-02      0.133D+00       -85.10477640    315.413808    0.00000    0.00000    4.32232    9    diag,B
   88      0.115D-02      0.133D+00       -85.11181496    315.395243    0.00000    0.00000    4.32514    9    diag,B
   89      0.337D-03      0.133D+00       -85.08656408    315.455446    0.00000    0.00000    4.34813    9    diag,B
   90      0.302D-02      0.133D+00       -85.04906124    315.551429    0.00000    0.00000    4.34229    9    orth
   91      0.989D-03      0.133D+00       -85.10936262    315.398659    0.00000    0.00000    4.33916    9    diag,B
   92      0.180D-02      0.133D+00       -85.11819394    315.377870    0.00000    0.00000    4.32960    9    diag,B
   93      0.130D-02      0.133D+00       -85.04470806    315.562223    0.00000    0.00000    4.34365    9    diag,B
   94      0.318D-02      0.133D+00       -85.11467300    315.388270    0.00000    0.00000    4.32275    9    diag,B
   95      0.389D-02      0.133D+00       -85.10474837    315.413883    0.00000    0.00000    4.32132    9    diag,B
   96      0.271D-03      0.133D+00       -85.09766070    315.428222    0.00000    0.00000    4.34184    9    diag,B
   97      0.276D-02      0.133D+00       -85.05318037    315.539913    0.00000    0.00000    4.35156    9    diag,B
   98      0.197D-02      0.133D+00       -85.10321600    315.417724    0.00000    0.00000    4.32170    9    diag,B
   99      0.441D-02      0.133D+00       -85.06776601    315.505835    0.00000    0.00000    4.33222    9    diag,B
  100      0.192D-02      0.133D+00       -85.10122567    315.422466    0.00000    0.00000    4.32447    9    orth
  101      0.154D-02      0.133D+00       -85.10673546    315.408186    0.00000    0.00000    4.32542    9    diag,B
  102      0.174D-03      0.133D+00       -85.10171361    315.417645    0.00000    0.00000    4.34244    9    diag,B
  103      0.198D-02      0.133D+00       -85.04909440    315.549251    0.00000    0.00000    4.35549    9    diag,B
  104      0.258D-02      0.133D+00       -85.10207262    315.420862    0.00000    0.00000    4.32023    9    diag,B
  105      0.490D-02      0.133D+00       -85.06571354    315.510784    0.00000    0.00000    4.33395    9    diag,B
  106      0.230D-02      0.133D+00       -85.09486701    315.438661    0.00000    0.00000    4.32431    9    diag,B
  107      0.165D-02      0.133D+00       -85.09840872    315.429610    0.00000    0.00000    4.32429    9    diag,B
  108      0.153D-03      0.133D+00       -85.09641901    315.432651    0.00000    0.00000    4.33403    9    diag,B
  109      0.113D-02      0.133D+00       -85.05658930    315.531233    0.00000    0.00000    4.34845    9    diag,B
  110      0.244D-02      0.133D+00       -85.09804942    315.431228    0.00000    0.00000    4.31982    9    orth
  111      0.385D-02      0.133D+00       -85.06759734    315.506075    0.00000    0.00000    4.33395    9    diag,B
  112      0.217D-02      0.133D+00       -85.08960012    315.451940    0.00000    0.00000    4.32471    9    diag,B
  113      0.145D-02      0.133D+00       -85.09025326    315.450170    0.00000    0.00000    4.32517    9    diag,B
  114      0.981D-04      0.133D+00       -85.06751523    315.505444    0.00000    0.00000    4.33814    9    diag,B
  115      0.181D-02      0.133D+00       -85.07939077    315.477318    0.00000    0.00000    4.32773    9    diag,B
  116      0.146D-02      0.133D+00       -85.06735440    315.506351    0.00000    0.00000    4.33601    9    diag,B
  117      0.114D-02      0.133D+00       -85.07332550    315.491956    0.00000    0.00000    4.33195    9    diag,B
  118      0.570D-03      0.133D+00       -85.07237401    315.494245    0.00000    0.00000    4.33262    9    diag,B
  119      0.876D-04      0.133D+00       -85.07394935    315.490452    0.00000    0.00000    4.33159    9    diag,B
  120      0.129D-03      0.133D+00       -85.07678314    315.483573    0.00000    0.00000    4.33002    9    orth
  121      0.213D-03      0.133D+00       -85.07694067    315.483096    0.00000    0.00000    4.33048    9    diag,B
  122      0.167D-03      0.133D+00       -85.06890620    315.502530    0.00000    0.00000    4.33548    9    diag,B
  123      0.672D-03      0.133D+00       -85.07668390    315.483831    0.00000    0.00000    4.32981    9    diag,B
  124      0.815D-03      0.133D+00       -85.06973256    315.500637    0.00000    0.00000    4.33431    9    diag,B
  125      0.613D-03      0.133D+00       -85.07514889    315.487524    0.00000    0.00000    4.33090    9    diag,B
  126      0.467D-03      0.133D+00       -85.07532102    315.487092    0.00000    0.00000    4.33084    9    diag,B
  127      0.246D-04      0.133D+00       -85.06916675    315.501997    0.00000    0.00000    4.33475    9    diag,B
  128      0.539D-03      0.133D+00       -85.07408316    315.490096    0.00000    0.00000    4.33157    9    diag,B
  129      0.439D-03      0.133D+00       -85.07280087    315.493201    0.00000    0.00000    4.33239    9    diag,B
  130      0.112D-03      0.133D+00       -85.07483499    315.488274    0.00000    0.00000    4.33112    9    orth
  131      0.171D-03      0.133D+00       -85.07719566    315.482541    0.00000    0.00000    4.32976    9    diag,B
  132      0.188D-03      0.133D+00       -85.08184024    315.471210    0.00000    0.00000    4.32733    9    diag,B
  133      0.347D-03      0.133D+00       -85.08852526    315.454785    0.00000    0.00000    4.32438    9    diag,B
  134      0.456D-03      0.133D+00       -85.09569033    315.436899    0.00000    0.00000    4.32258    9    diag,B
  135      0.447D-03      0.133D+00       -85.08515892    315.462173    0.00000    0.00000    4.33075    9    diag,B
  136      0.107D-02      0.133D+00       -85.05851902    315.527977    0.00000    0.00000    4.34005    9    diag,B
  137      0.176D-02      0.133D+00       -85.09481764    315.438751    0.00000    0.00000    4.32420    9    diag,B
  138      0.259D-02      0.133D+00       -85.09435738    315.440273    0.00000    0.00000    4.32217    9    diag,B
  139      0.338D-03      0.133D+00       -85.06415668    315.513620    0.00000    0.00000    4.34124    9    diag,B
  140      0.266D-02      0.133D+00       -85.06716134    315.507075    0.00000    0.00000    4.33448    9    orth
  141      0.971D-03      0.133D+00       -85.06817426    315.503782    0.00000    0.00000    4.33927    9    diag,B
  142      0.754D-03      0.133D+00       -85.07030855    315.498406    0.00000    0.00000    4.33884    9    diag,B
  143      0.157D-03      0.133D+00       -85.08844003    315.454089    0.00000    0.00000    4.32769    9    diag,B
  144      0.172D-02      0.133D+00       -85.07278492    315.493526    0.00000    0.00000    4.33019    9    diag,B
  145      0.125D-02      0.133D+00       -85.07990054    315.474982    0.00000    0.00000    4.33282    9    diag,B
  146      0.848D-03      0.133D+00       -85.07313058    315.491448    0.00000    0.00000    4.33717    9    diag,B
  147      0.635D-03      0.133D+00       -85.06983990    315.500693    0.00000    0.00000    4.33214    9    diag,B
  148      0.885D-03      0.133D+00       -85.07056248    315.497759    0.00000    0.00000    4.33837    9    diag,B
  149      0.912D-03      0.133D+00       -85.06880520    315.502068    0.00000    0.00000    4.33925    9    diag,B
  150      0.150D-03      0.133D+00       -85.08409865    315.465769    0.00000    0.00000    4.32522    9    orth
  151      0.175D-02      0.133D+00       -85.06014070    315.523674    0.00000    0.00000    4.34135    9    diag,B
  152      0.226D-02      0.133D+00       -85.07280056    315.493257    0.00000    0.00000    4.33203    9    diag,B
  153      0.124D-02      0.133D+00       -85.06649008    315.508401    0.00000    0.00000    4.33695    9    diag,B
  154      0.656D-03      0.133D+00       -85.06589163    315.509820    0.00000    0.00000    4.33750    9    diag,B
  155      0.686D-04      0.133D+00       -85.06260654    315.517542    0.00000    0.00000    4.34088    9    diag,B
  156      0.425D-03      0.133D+00       -85.06158048    315.519829    0.00000    0.00000    4.34272    9    diag,B
  157      0.271D-03      0.133D+00       -85.06666175    315.507354    0.00000    0.00000    4.34062    9    diag,B
  158      0.389D-03      0.133D+00       -85.07630402    315.484721    0.00000    0.00000    4.33020    9    diag,B
  159      0.137D-02      0.133D+00       -85.05935667    315.525229    0.00000    0.00000    4.34400    9    diag,B
  160      0.179D-02      0.133D+00       -85.06461928    315.512927    0.00000    0.00000    4.33801    9    orth
  161      0.808D-03      0.133D+00       -85.06318208    315.515878    0.00000    0.00000    4.34230    9    diag,B
  162      0.693D-03      0.133D+00       -85.06899153    315.501875    0.00000    0.00000    4.33819    9    diag,B
  163      0.564D-03      0.133D+00       -85.06939643    315.501627    0.00000    0.00000    4.33335    9    diag,B
  164      0.829D-03      0.133D+00       -85.06930070    315.501076    0.00000    0.00000    4.33823    9    diag,B
  165      0.815D-03      0.133D+00       -85.06944648    315.500675    0.00000    0.00000    4.33833    9    diag,B
  166      0.179D-04      0.133D+00       -85.07466520    315.487254    0.00000    0.00000    4.33700    9    diag,B
  167      0.543D-03      0.133D+00       -85.07454081    315.488590    0.00000    0.00000    4.33095    9    diag,B
  168      0.801D-03      0.133D+00       -85.06883181    315.501485    0.00000    0.00000    4.34284    9    diag,B
  169      0.162D-02      0.133D+00       -85.06434138    315.512432    0.00000    0.00000    4.34697    9    diag,B
  170      0.707D-03      0.133D+00       -85.06455329    315.513534    0.00000    0.00000    4.33667    9    orth
  171      0.143D-02      0.133D+00       -85.06869867    315.501998    0.00000    0.00000    4.34147    9    diag,B
  172      0.109D-02      0.133D+00       -85.07078956    315.497690    0.00000    0.00000    4.33513    9    diag,B
  173      0.811D-03      0.133D+00       -85.06469634    315.511114    0.00000    0.00000    4.34882    9    diag,B
  174      0.176D-02      0.133D+00       -85.06178607    315.518082    0.00000    0.00000    4.35156    9    diag,B
  175      0.598D-03      0.133D+00       -85.06652633    315.509034    0.00000    0.00000    4.33215    9    diag,B
  176      0.238D-02      0.133D+00       -85.06388086    315.512390    0.00000    0.00000    4.35303    9    diag,B
  177      0.251D-02      0.133D+00       -85.06484539    315.509983    0.00000    0.00000    4.35222    9    diag,B
  178      0.245D-03      0.133D+00       -85.06650165    315.509296    0.00000    0.00000    4.33106    9    diag,B
  179      0.254D-02      0.133D+00       -85.06512416    315.509365    0.00000    0.00000    4.35125    9    diag,B
  180      0.242D-02      0.133D+00       -85.06534362    315.508981    0.00000    0.00000    4.34998    9    orth
  181      0.177D-03      0.133D+00       -85.06614964    315.508358    0.00000    0.00000    4.34378    9    diag,B
  182      0.128D-02      0.133D+00       -85.06756812    315.506295    0.00000    0.00000    4.33229    9    diag,B
  183      0.165D-02      0.133D+00       -85.06849748    315.502415    0.00000    0.00000    4.34358    9    diag,B
  184      0.147D-02      0.133D+00       -85.06922768    315.500217    0.00000    0.00000    4.34501    9    diag,B
  185      0.123D-03      0.133D+00       -85.07169638    315.492150    0.00000    0.00000    4.34939    9    diag,B
  186      0.716D-03      0.133D+00       -85.06517621    315.510549    0.00000    0.00000    4.33656    9    diag,B
  187      0.127D-02      0.133D+00       -85.07719683    315.478806    0.00000    0.00000    4.35054    9    diag,B
  188      0.166D-02      0.133D+00       -85.08252098    315.466233    0.00000    0.00000    4.34657    9    diag,B
  189      0.575D-03      0.133D+00       -85.05987086    315.525461    0.00000    0.00000    4.33255    9    diag,B
  190      0.155D-02      0.133D+00       -85.08997941    315.446827    0.00000    0.00000    4.34810    9    orth
  191      0.158D-02      0.133D+00       -85.09452325    315.434789    0.00000    0.00000    4.34968    9    diag,B
  192      0.148D-03      0.133D+00       -85.11253275    315.387183    0.00000    0.00000    4.35451    9    diag,B
  193      0.127D-02      0.133D+00       -85.06476617    315.511993    0.00000    0.00000    4.33612    9    diag,B
  194      0.167D-02      0.133D+00       -85.10439490    315.408169    0.00000    0.00000    4.35429    9    diag,B
  195      0.205D-02      0.133D+00       -85.08132056    315.469623    0.00000    0.00000    4.34344    9    diag,B
  196      0.118D-02      0.133D+00       -85.08378491    315.462036    0.00000    0.00000    4.34888    9    diag,B
  197      0.203D-02      0.133D+00       -85.06196780    315.520322    0.00000    0.00000    4.33269    9    diag,B
  198      0.183D-02      0.133D+00       -85.08648727    315.454938    0.00000    0.00000    4.35144    9    diag,B
  199      0.197D-02      0.133D+00       -85.14081020    315.302188    0.00000    0.00000    4.35978    9    orth
     Orbital  1.1 strongly deviates from fixed occupation: 1.54620  (now: 2.00)
     Orbital  2.1 strongly deviates from fixed occupation: 0.81596  (now: 2.00)
     Orbital  3.1 strongly deviates from fixed occupation: 0.69722  (now: 2.00)
     Orbital  4.1 strongly deviates from fixed occupation: 0.28691  (now: 1.00)
     Orbital  5.1 strongly deviates from fixed occupation: 0.63172  (now: 1.00)
     Orbital  6.1 strongly deviates from fixed occupation: 0.54885  (now: 1.00)
     Orbital  7.1 strongly deviates from fixed occupation: 0.30406  (now: 1.00)
     Orbital  1.2 strongly deviates from fixed occupation: 0.69529  (now: 2.00)
     Orbital  2.2 strongly deviates from fixed occupation: 0.49995  (now: 1.00)
     Orbital  3.2 strongly deviates from fixed occupation: 0.52419  (now: 1.00)
     Orbital  1.3 strongly deviates from fixed occupation: 0.80440  (now: 2.00)
     Orbital  2.3 strongly deviates from fixed occupation: 0.38979  (now: 1.00)
     Orbital  3.3 strongly deviates from fixed occupation: 0.54953  (now: 1.00)
     Orbital  1.4 strongly deviates from fixed occupation: 0.43119  (now: 1.00)
  200      0.334D-02      0.132D+00       -67.34778984    162.317327    0.00000    0.00000    2.90281    0    orth

 Final alpha occupancy:   7   3   3   1
 Final beta  occupancy:   3   1   1   0

 !RHF STATE 1.4 Energy                -67.347789836980
   --><property name="Energy" method="RHF" principal="true" stateSymmetry="4" stateNumber="1"
     value="-67.3477898369796"/><!--
 Nuclear energy                         4.32963173
 One-electron energy                 -152.83608505
 Two-electron energy                   81.15866347
 Virial quotient                       -0.51450758
 !RHF STATE 1.4 Dipole moment           0.00000000     0.00000000     2.90280874
 Dipole moment /Debye                   0.00000000     0.00000000     7.37772063
   --><property name="Dipole moment" method="RHF" principal="true" stateSymmetry="4"
     stateNumber="1" value="0.0 0.0 2.90280873613515"/><!--

 ELECTRON ORBITALS
 =================


   Orb  Occ    Energy  Couls-En    Coefficients

                                   1 1s      1 1s      1 1s      1 1s      1 1s      1 1s      1 1s      1 1s      1 1s      1 1s
                                   1 1s      1 1s      1 1s      1 1s      1 1s      1 1s      1 1s      1 1s      1 1s      1 1s
                                   1 1s      1 1s      1 1s      1 1s      1 1s      1 1s      1 1s      1 1s      1 1s      1 1s
                                   1 1s      1 1s      1 2pz     1 2pz     1 2pz     1 2pz     1 2pz     1 2pz     1 2pz     1 2pz
                                   1 2pz     1 2pz     1 2pz     1 2pz     1 2pz     1 2pz     1 2pz     1 2pz     1 2pz     1 2pz
                                   1 2pz     1 2pz     1 2pz     1 2pz     1 2pz     1 2pz     1 2pz     1 2pz     1 2pz     1 2pz
                                   1 2pz     1 2pz     1 3d0     1 3d2+    1 3d0     1 3d2+    1 3d0     1 3d2+    1 3d0     1 3d2+
                                   1 3d0     1 3d2+    1 3d0     1 3d2+    1 3d0     1 3d2+    1 3d0     1 3d2+    1 3d0     1 3d2+
                                   1 3d0     1 3d2+    1 3d0     1 3d2+    1 3d0     1 3d2+    1 3d0     1 3d2+    1 3d0     1 3d2+
                                   1 3d0     1 3d2+    1 3d0     1 3d2+    1 3d0     1 3d2+    1 3d0     1 3d2+    1 3d0     1 3d2+
                                   1 3d0     1 3d2+    1 3d0     1 3d2+    1 3d0     1 3d2+    1 4f0     1 4f2+    1 4f0     1 4f2+
                                   1 4f0     1 4f2+    1 4f0     1 4f2+    1 4f0     1 4f2+    1 4f0     1 4f2+    1 4f0     1 4f2+
                                   1 4f0     1 4f2+    1 4f0     1 4f2+    1 4f0     1 4f2+    1 4f0     1 4f2+    1 4f0     1 4f2+
                                   1 4f0     1 4f2+    1 4f0     1 4f2+    1 5g0     1 5g4+    1 5g2+    1 5g0     1 5g4+    1 5g2+
                                   1 5g0     1 5g4+    1 5g2+    1 5g0     1 5g4+    1 5g2+    1 5g0     1 5g4+    1 5g2+    1 5g0
                                   1 5g4+    1 5g2+    1 5g0     1 5g4+    1 5g2+    1 5g0     1 5g4+    1 5g2+    1 5g0     1 5g4+
                                   1 5g2+    1 6h2+    1 6h4+    1 6h0     1 6h2+    1 6h4+    1 6h0     1 6h2+    1 6h4+    1 6h0
                                   2 1s      2 1s      2 1s      2 1s      2 1s      2 1s      2 2pz     2 2pz     2 2pz     2 3d0
                                   2 3d2+    2 3d0     2 3d2+

   1.1   2    -0.1017  -10.4206 -0.000000  0.000000 -0.000002  0.000035  0.000153  0.000476  0.001008  0.002240 -0.000868  0.000655
                                 0.031037  0.428463 -0.076985 -0.163879  0.272832  0.693907  0.102320  0.067594  0.016430 -0.000061
                                -0.000276 -0.000815 -0.002314 -0.067171 -0.526467 -0.077878  0.256185 -0.094539 -0.036125 -0.002261
                                 0.002701 -0.001489  0.000000 -0.000000  0.000000 -0.000000  0.000000 -0.000000  0.000000 -0.000000
                                 0.000002 -0.000018 -0.000170  0.000074  0.014013 -0.010946  0.036284  0.042573  0.020728  0.008734
                                -0.004177  0.000069  0.000188 -0.008349 -0.009281 -0.000875  0.000217  0.001739  0.004676 -0.007555
                                 0.000562 -0.000483  0.000000 -0.000000 -0.000000  0.000000  0.000001 -0.000000 -0.000007  0.000001
                                 0.000136 -0.000020  0.001181 -0.000276 -0.001831  0.000715  0.000879  0.001082  0.005826 -0.000993
                                 0.013480 -0.002549 -0.000321  0.000056 -0.002217  0.000560  0.002976 -0.000971 -0.004568 -0.001380
                                -0.002835 -0.003028  0.005412 -0.000833  0.001381 -0.000081  0.000409 -0.000003 -0.000458 -0.000008
                                -0.001215  0.000005  0.000512 -0.000003 -0.000112  0.000001 -0.000000 -0.000000  0.000000  0.000000
                                 0.000001 -0.000002  0.000136 -0.000088  0.000564 -0.000296  0.000795 -0.000524  0.000840 -0.001058
                                -0.000099  0.000032 -0.000563  0.000203  0.003866 -0.000278 -0.000256 -0.000163  0.001398  0.000080
                                -0.000597 -0.000043 -0.000043  0.000014  0.000001  0.000016 -0.000039  0.000130  0.000214 -0.000213
                                -0.000227 -0.000167  0.000008  0.000875  0.000694  0.000286  0.001248  0.000997  0.000108  0.001258
                                -0.000306 -0.000009 -0.001046  0.000056 -0.000021  0.000859 -0.000069  0.000007 -0.000021  0.000026
                                -0.000003 -0.000001 -0.000003  0.000002  0.000019 -0.000017 -0.000022  0.000025  0.000009  0.000172
                                 0.000525  0.005669  0.022210  0.051394  0.018284  0.008709 -0.001805 -0.010586 -0.006182  0.001077
                                -0.000003  0.002136 -0.000021

   2.1   2     3.4860   -5.4173  0.000000 -0.000001  0.000007 -0.000134 -0.000589 -0.001828 -0.003864 -0.008597  0.003447 -0.012167
                                 0.127291  0.578612  1.159331 -2.551101 -8.644845  3.587142  9.814716  5.217162  1.678733  0.000235
                                 0.001059  0.003125  0.008875 -0.198408 -0.996882  9.156777 -6.605312 -9.311512 -2.625356 -0.072078
                                 0.024559 -0.005209  0.000000 -0.000000  0.000000 -0.000001  0.000001 -0.000001  0.000003 -0.000007
                                 0.000030 -0.000274 -0.002960 -0.003933 -0.030405 -0.045038  0.006802  0.725575 -1.519418  1.363936
                                -0.118654  0.001101  0.004186  0.023219  0.043765  0.031038 -0.199747  0.066249  0.230216 -0.187138
                                -0.016754  0.002871 -0.000007 -0.000018  0.000034  0.000093 -0.000145 -0.000391  0.000772  0.002086
                                -0.014338 -0.038723 -0.131808 -0.355466  0.279613  0.750571 -0.114937 -0.305809 -0.374338 -1.020829
                                -0.070748 -0.754338  0.034314  0.092640  0.252939  0.681567 -0.385243 -1.035978  0.264862  0.713925
                                 0.310643  0.883540 -0.591915  0.917292  0.693773 -0.834163  0.097512  0.541606 -0.015764 -0.301293
                                -0.000295  0.104570 -0.001012 -0.043228  0.000375  0.012142  0.000021  0.000126 -0.000163 -0.000966
                                 0.001610  0.009341  0.008238  0.038751 -0.037145 -0.245761 -0.010763 -0.084754  0.301169  1.605265
                                 0.035519  0.211929  0.082675  0.497170 -0.519962 -1.844123  0.301688  1.241655  0.047439 -0.823640
                                 0.016968  0.411096 -0.007669 -0.131090  0.000432 -0.000005  0.000430 -0.001637  0.000008 -0.000911
                                 0.005092 -0.000060  0.004274 -0.014608 -0.000055 -0.007478  0.050252 -0.000371  0.041737 -0.159559
                                 0.000546  0.000369  0.038205 -0.000351 -0.000603  0.068846  0.000164 -0.002820  0.000166 -0.000050
                                 0.001493 -0.000189 -0.000468 -0.000047 -0.000727 -0.000835 -0.000520  0.000424 -0.002117 -0.000336
                                -0.000783  0.005521 -0.117765  0.288776 -0.895191  0.031653  0.012357 -0.284103  0.092781 -0.032419
                                -0.027542  0.191245  0.004248

   3.1   2     3.6103   -4.1219 -0.000001  0.000004 -0.000019  0.000342  0.001499  0.004657  0.009843  0.021906 -0.008789  0.031041
                                -0.324952 -1.481475 -3.028538  6.867041 24.939504-11.514496-22.710651 -8.868238 -0.632546 -0.000598
                                -0.002697 -0.007961 -0.022611  0.506825  2.564396-25.830759 20.330763 14.983883  2.954883  0.104191
                                -0.034661  0.007274  0.000001 -0.000004  0.000017 -0.000050  0.000067 -0.000087  0.000189 -0.000541
                                 0.002217 -0.020381 -0.223113 -0.310499 -2.115299 -2.646924 -8.813376 -8.100448 10.459225 -9.228582
                                 2.639929  0.082329  0.321123  1.656493  2.600163  3.355089  9.800497 -1.028300 -3.311250  3.020546
                                 0.262497 -0.045469  0.000056 -0.000001 -0.000290  0.000008  0.001219 -0.000032 -0.006506  0.000171
                                 0.120838 -0.003160  1.110733 -0.028901 -2.355995  0.060755  0.967936 -0.024300  3.190307 -0.083671
                                 1.337763 -0.053396 -0.289177  0.007551 -2.131536  0.055362  3.246396 -0.083998 -2.238011  0.057721
                                -2.720046  0.066679  1.633314  0.069202 -2.467653 -0.065152 -1.263079  0.042796  0.659500 -0.023807
                                -0.029768  0.008205  0.042489 -0.003371 -0.013502  0.000947 -0.000117  0.000024  0.000901 -0.000183
                                -0.008718  0.001703 -0.035983  0.003812  0.233512 -0.057510  0.090963 -0.028583 -1.690370  0.311368
                                -0.198257  0.041368 -0.471150  0.100601  2.667629 -0.345788 -1.644639  0.229968 -0.194720 -0.152639
                                -0.042847  0.076262  0.062376 -0.024346 -0.001380  0.000046  0.000137  0.004982 -0.000172 -0.000360
                                -0.016489  0.000485  0.001519  0.048007 -0.000892 -0.002578 -0.188453  0.003916  0.012909  0.607721
                                -0.006808 -0.008581 -0.084870  0.004894  0.006192 -0.426218 -0.002417 -0.003922  0.052662  0.000764
                                 0.001315  0.000164  0.000098 -0.000049  0.000456 -0.000180  0.001130  0.001581 -0.000341 -0.003570
                                 0.003030 -0.024641  0.465615 -1.194807  4.766988 -1.125382 -0.072509  1.274383 -0.675099  0.173640
                                -0.006850 -0.873998  0.001673

   4.1   +     2.9160   -1.5084  0.000008 -0.000050  0.000265 -0.004868 -0.021349 -0.066309 -0.140109 -0.311612  0.124870 -0.439987
                                 4.591003 20.674777 40.492922-85.544336********** 93.040718406.539758264.014389102.369960  0.008517
                                 0.038399  0.113342  0.321718 -7.145356-35.402588288.477839****************************** -4.056432
                                 1.393740 -0.296662  0.000003 -0.000011  0.000042 -0.000128  0.000172 -0.000225  0.000487 -0.001392
                                 0.005704 -0.052415 -0.573406 -0.797293 -5.432166 -6.772600-20.661328-10.894389  6.747785 -7.989988
                                 2.383818  0.211674  0.824961  4.253101  6.672034  8.343479 20.815904 -1.221177 -2.094184  4.095852
                                 0.314797 -0.055412  0.000002 -0.000001 -0.000008  0.000007  0.000034 -0.000031 -0.000181  0.000168
                                 0.003308 -0.003162  0.029605 -0.029563 -0.060744  0.062938  0.023118 -0.026832  0.083802 -0.083368
                                 0.422165 -0.078988 -0.007856  0.007611 -0.056192  0.056929  0.084288 -0.086809 -0.050358  0.062047
                                -0.110389  0.081741 -1.979034  0.092299  0.484228 -0.081105 -2.576338  0.051540  2.009890 -0.028555
                                 0.098439  0.009948  0.060265 -0.004130 -0.020972  0.001159 -0.000007 -0.000003  0.000057  0.000027
                                -0.000700 -0.000267 -0.010556 -0.001583 -0.013479  0.005112 -0.029430  0.000054 -0.042889 -0.043937
                                -0.008358 -0.005647 -0.009710 -0.012655 -0.341130  0.055974 -0.420230 -0.039151 -0.472086  0.026087
                                 0.427374 -0.013019  0.042996  0.004146  0.003593 -0.000065 -0.000043 -0.014689  0.000225  0.000156
                                 0.041885 -0.000609 -0.000931 -0.118903  0.002283  0.001015  0.333756 -0.005109 -0.004221 -1.070123
                                 0.009928  0.007875  0.711432 -0.007753 -0.006262 -0.591188  0.003938  0.003220  0.273275 -0.001249
                                -0.001049  0.000031  0.000041 -0.000041  0.000149 -0.000039  0.000275  0.000359  0.000106 -0.000620
                                -0.001948  0.014598 -0.286199  0.286781  5.716505 -4.274103  0.028189 -0.877871 -2.384806 -0.050491
                                 0.000659  0.704366  0.000045

   5.1   +     5.0083   -2.6173 -0.000000  0.000001 -0.000008  0.000144  0.000634  0.001969  0.004163  0.009272 -0.003726  0.013399
                                -0.143919 -0.696376 -1.355006  2.958212  8.315445 -2.220149 -1.756787 -0.096603  2.025925 -0.000253
                                -0.001140 -0.003366 -0.009568  0.226308  1.201769 -9.517996  2.998166 -0.841406 -0.899327  0.019609
                                -0.006729  0.001437  0.000001 -0.000002  0.000009 -0.000028  0.000038 -0.000050  0.000108 -0.000309
                                 0.001267 -0.011668 -0.128260 -0.180026 -1.275200 -1.611642 -5.347801 -2.589566  2.389882 -2.270255
                                 0.228980  0.047213  0.185078  0.988910  1.602436  2.127319  5.052865 -0.178773 -0.043180  0.785057
                                 0.042147 -0.007144  0.000005  0.000004 -0.000025 -0.000021  0.000105  0.000086 -0.000563 -0.000461
                                 0.010444  0.008579  0.095663  0.079047 -0.199026 -0.167253  0.077582  0.067894  0.230750  0.245529
                                -0.098802  0.092866 -0.024979 -0.020551 -0.183090 -0.151893  0.276559  0.231263 -0.178851 -0.168539
                                -0.111496 -0.163930  0.603574 -0.101071 -0.836938  0.090942 -0.335798 -0.058545  0.336967  0.032392
                                 0.119654 -0.011132 -0.016091  0.004562  0.002982 -0.001285 -0.000035 -0.000103  0.000253  0.000745
                                -0.000831 -0.002257  0.077893  0.238435  0.354065  1.070082  0.364450  1.103056 -0.594244 -1.571711
                                -0.098610 -0.294690 -0.326407 -0.977498  0.638296  1.345374 -0.416563 -0.822714 -0.074027  0.543615
                                 0.066255 -0.274312  0.032407  0.088339  0.003622 -0.001229  0.012624 -0.013228  0.004654 -0.046646
                                 0.041195 -0.014191  0.144538 -0.106341  0.038566 -0.380409  0.352383 -0.122237  1.242571 -0.279600
                                 0.108434 -1.108064  0.235762 -0.064150  0.655561 -0.243590  0.030386 -0.308822  0.084458 -0.009635
                                 0.097738 -0.000142 -0.000526 -0.000356 -0.001633 -0.001021 -0.000356  0.007318 -0.000480 -0.001783
                                 0.000107  0.003926  0.050816 -0.219052  1.558305 -1.327033 -0.080603  0.239023 -0.431233 -0.008570
                                -0.003453 -0.087562 -0.001436

   6.1   +     5.1230   -1.7236  0.000003 -0.000020  0.000108 -0.001980 -0.008684 -0.026979 -0.057039 -0.127004  0.051014 -0.182672
                                 1.951486  9.296008 17.800611-37.244632-96.533065 21.381697 49.546351 28.372151  6.131829  0.003464
                                 0.015620  0.046126  0.131072 -3.062883-15.953964113.390921-31.775512-47.859035-14.126399 -0.516940
                                 0.179034 -0.038300 -0.000008  0.000030 -0.000120  0.000362 -0.000486  0.000634 -0.001376  0.003936
                                -0.016144  0.148658  1.633673  2.294888 16.205175 20.273227 61.972503 23.517877-16.106876 13.416088
                                -6.093673 -0.601473 -2.357763-12.576772-20.212358-25.953058-55.504909  2.207654  6.692012 -6.543060
                                -0.569786  0.099626  0.000001  0.000001 -0.000006 -0.000007  0.000025  0.000030 -0.000137 -0.000163
                                 0.002700  0.003006  0.028121  0.027354 -0.078091 -0.057383  0.050421  0.023843  0.299821  0.083867
                                 0.882425  0.030259 -0.006663 -0.007174 -0.057433 -0.052350  0.098614  0.079410 -0.146230 -0.059998
                                -0.503211 -0.054538 -2.206267 -0.033136  3.183541  0.029394  0.903156 -0.019726 -0.845277  0.011017
                                -0.251338 -0.003807  0.028789  0.001565 -0.004685 -0.000441  0.000087 -0.000035 -0.000626  0.000252
                                 0.001718 -0.000751 -0.209845  0.081057 -0.934977  0.364205 -0.979864  0.377079  1.512552 -0.507357
                                 0.253886 -0.100402  0.852424 -0.333649 -1.540603  0.429543  1.177541 -0.262871  0.415395  0.172648
                                -0.248638 -0.087214 -0.046680  0.028122 -0.004356 -0.000122  0.001527  0.015587  0.000440 -0.005386
                                -0.048772 -0.001415  0.017393  0.120616  0.003346 -0.043381 -0.374083 -0.011266  0.146813  0.338642
                                 0.010145 -0.130842 -0.375441 -0.006026  0.076596  0.611715  0.002861 -0.037137 -0.200202 -0.000909
                                 0.011598  0.000180 -0.000054  0.000296  0.000822 -0.000945  0.000079  0.000626  0.000186  0.002052
                                 0.000317 -0.013723 -0.012075  0.407160 -5.614049  3.020104  0.156283 -0.452945  1.606160 -0.177127
                                -0.004269  0.244949  0.003267

   7.1   +     5.2220    0.0614  0.000000 -0.000002  0.000011 -0.000199 -0.000871 -0.002705 -0.005719 -0.012729  0.005108 -0.018216
                                 0.193430  0.914234  1.814358 -4.205356-14.774425  6.673779 25.523548 14.378483 14.921997  0.000347
                                 0.001566  0.004625  0.013138 -0.302881 -1.577724 15.576588-15.047817-23.925569-13.619987 -0.219490
                                 0.076703 -0.016451  0.000007 -0.000026  0.000105 -0.000315  0.000423 -0.000553  0.001199 -0.003430
                                 0.014068 -0.129549 -1.423795 -2.000630-14.139381-17.681098-53.287789-17.253420  7.447300 -2.298546
                                 5.425843  0.524178  2.055030 10.971210 17.636572 22.554713 46.718214 -2.137029 -5.596516  7.002328
                                 0.537025 -0.092863  0.000001  0.000000 -0.000005 -0.000002  0.000019  0.000007 -0.000100 -0.000040
                                 0.001707  0.000733  0.012431  0.006739 -0.005268 -0.013856 -0.020696  0.005649 -0.255193  0.021434
                                 0.003585  0.006942 -0.003880 -0.001756 -0.020057 -0.012883  0.017627  0.019337  0.095049 -0.014795
                                 0.377322 -0.013393 -1.610683 -0.007390  3.087216  0.006429 -1.012395 -0.004403  1.137307  0.002477
                                 0.544186 -0.000863 -0.085725  0.000357  0.017449 -0.000101  0.000086 -0.000007 -0.000622  0.000049
                                 0.002244 -0.000177 -0.180176  0.013872 -0.838411  0.064914 -0.868695  0.068318  1.495923 -0.086425
                                 0.238872 -0.018799  0.788567 -0.061458 -1.785370  0.072480  1.536281 -0.044417 -0.449800  0.028994
                                 0.437525 -0.014660  0.059882  0.004733  0.014627 -0.000012 -0.000210 -0.056182  0.000066  0.000873
                                 0.171611 -0.000217 -0.002492 -0.477558  0.000969  0.007632  1.603749 -0.001418 -0.020216 -1.843735
                                 0.000914  0.017157  1.208684 -0.000519 -0.010239 -0.397336  0.000245  0.004454  0.184597 -0.000078
                                -0.001465  0.000193  0.000028  0.001522  0.000450 -0.000033 -0.004661 -0.000529 -0.000040  0.031571
                                -0.001440  0.047332 -0.143221  0.145968 -3.263551 -5.400809 -0.450171 -0.127081  1.148261  0.340196
                                -0.001237  0.134787  0.001181

   8.1   0    -0.2765   -5.2182  0.000000 -0.000000  0.000001 -0.000010 -0.000044 -0.000138 -0.000293 -0.000655  0.000258 -0.000331
                                -0.005787 -0.103094  0.023338  0.029260 -0.096091 -0.117748 -0.225634 -0.366542 -0.420993  0.000018
                                 0.000080  0.000237  0.000675  0.013526  0.131386  0.019612 -0.031105  0.287567  0.432556  0.006309
                                -0.004021  0.001607  0.000000 -0.000000  0.000000 -0.000000  0.000000 -0.000000  0.000000 -0.000001
                                 0.000005 -0.000045 -0.000450 -0.000193  0.016581 -0.018714  0.020816  0.054692 -0.009135 -0.045299
                                -0.089461  0.000176  0.000566 -0.009617 -0.008231  0.003633  0.032233  0.024549  0.085746 -0.111031
                                -0.006442  0.001430 -0.000000  0.000000  0.000000 -0.000000 -0.000002  0.000000  0.000009 -0.000000
                                -0.000174  0.000003 -0.001627  0.000051  0.004964 -0.000128 -0.004048 -0.000327 -0.000292  0.000299
                                 0.017855  0.000844  0.000417 -0.000009  0.003190 -0.000110 -0.005679  0.000191  0.001488  0.000437
                                 0.018645  0.001116 -0.014009  0.000231 -0.015104  0.000095 -0.040051 -0.000029  0.014153  0.000018
                                -0.021172 -0.000009  0.004589  0.000005 -0.001163 -0.000001 -0.000000 -0.000000  0.000001  0.000000
                                -0.000002 -0.000006  0.000339 -0.000145  0.001638 -0.000299  0.002273 -0.000443  0.005447 -0.000296
                                -0.000381 -0.000029 -0.001650  0.000041 -0.004225 -0.000040 -0.008286 -0.000152 -0.013014  0.000038
                                 0.001603 -0.000048 -0.003601  0.000017  0.000003 -0.000005  0.000007 -0.000021 -0.000042  0.000039
                                 0.000022  0.000038 -0.000034 -0.000008 -0.000271 -0.000116  0.000033 -0.000347 -0.000091 -0.001385
                                -0.000001 -0.000073 -0.002200 -0.000032 -0.000038 -0.001659  0.000015 -0.000017 -0.002005 -0.000007
                                -0.000010 -0.000000 -0.000002 -0.000008  0.000026 -0.000020  0.000021  0.000030  0.000052  0.000086
                                 0.004085  0.044968  0.192110  0.469613  0.521896  0.148774  0.002856  0.018783  0.010502 -0.000569
                                -0.000004  0.003219 -0.000089

   9.1   0    -0.0159   -2.0910 -0.000000  0.000000 -0.000000  0.000003  0.000014  0.000045  0.000095  0.000211 -0.000084  0.000219
                                -0.001089  0.004810 -0.018814  0.029649  0.114390 -0.031702 -1.016945 -1.475693 -5.409116 -0.000006
                                -0.000026 -0.000077 -0.000218  0.001099 -0.002313 -0.116939  0.190767  2.252382  3.070180  0.315707
                                 0.277950  0.062750 -0.000000  0.000000 -0.000000  0.000001 -0.000001  0.000001 -0.000002  0.000006
                                -0.000025  0.000228  0.002438  0.002902  0.000004  0.042258  0.038611 -0.013260 -0.101923  0.264416
                                 0.137322 -0.000913 -0.003412 -0.003731 -0.012753 -0.029482 -0.095317  0.352974 -0.926226 -0.924041
                                 0.238244  0.093692  0.000000 -0.000000 -0.000000  0.000000  0.000001 -0.000000 -0.000004  0.000000
                                 0.000079 -0.000000  0.000749 -0.000005 -0.002428  0.000003  0.001982  0.000077 -0.000060 -0.000069
                                -0.011031 -0.000256 -0.000189  0.000001 -0.001486  0.000012  0.002724 -0.000015 -0.000497 -0.000076
                                -0.008433 -0.000277 -0.001514 -0.000124  0.070134 -0.000078  0.194946 -0.000111 -0.419661 -0.000190
                                -0.205326 -0.000259  0.239330 -0.000145  0.028011 -0.000051  0.000000  0.000000 -0.000001 -0.000000
                                 0.000009  0.000007 -0.000159  0.000163 -0.001168  0.000348 -0.001702  0.000524 -0.004122  0.000443
                                 0.000371  0.000028  0.001449 -0.000065  0.000466  0.000065  0.016380  0.000222  0.067335 -0.000169
                                -0.125226 -0.000025  0.061774 -0.000266  0.000001  0.000001 -0.000001 -0.000009  0.000007 -0.000005
                                 0.000028 -0.000007  0.000009 -0.000111  0.000084  0.000036  0.000059  0.000097  0.000042 -0.000183
                                -0.000007  0.000047  0.002859 -0.000011  0.000013  0.008976 -0.000018  0.000032  0.002053 -0.000014
                                -0.000140  0.000000  0.000001  0.000004 -0.000028  0.000021 -0.000001 -0.000041 -0.000050 -0.000148
                                -0.000707 -0.007649 -0.036386 -0.093760 -0.478545  3.218111  0.001985  0.018168  0.261477  0.000265
                                 0.000003 -0.004816  0.000001

                                   1 2px     1 2px     1 2px     1 2px     1 2px     1 2px     1 2px     1 2px     1 2px     1 2px
                                   1 2px     1 2px     1 2px     1 2px     1 2px     1 2px     1 2px     1 2px     1 2px     1 2px
                                   1 2px     1 2px     1 2px     1 2px     1 2px     1 2px     1 2px     1 2px     1 2px     1 2px
                                   1 3d1+    1 3d1+    1 3d1+    1 3d1+    1 3d1+    1 3d1+    1 3d1+    1 3d1+    1 3d1+    1 3d1+
                                   1 3d1+    1 3d1+    1 3d1+    1 3d1+    1 3d1+    1 3d1+    1 3d1+    1 3d1+    1 3d1+    1 3d1+
                                   1 3d1+    1 3d1+    1 4f1+    1 4f3+    1 4f1+    1 4f3+    1 4f1+    1 4f3+    1 4f1+    1 4f3+
                                   1 4f1+    1 4f3+    1 4f1+    1 4f3+    1 4f1+    1 4f3+    1 4f1+    1 4f3+    1 4f1+    1 4f3+
                                   1 4f1+    1 4f3+    1 4f1+    1 4f3+    1 4f1+    1 4f3+    1 4f1+    1 4f3+    1 4f1+    1 4f3+
                                   1 5g1+    1 5g3+    1 5g1+    1 5g3+    1 5g1+    1 5g3+    1 5g1+    1 5g3+    1 5g1+    1 5g3+
                                   1 5g1+    1 5g3+    1 5g1+    1 5g3+    1 5g1+    1 5g3+    1 5g1+    1 5g3+    1 6h1+    1 6h3+
                                   1 6h5+    1 6h1+    1 6h3+    1 6h5+    1 6h1+    1 6h3+    1 6h5+    2 2px     2 2px     2 2px
                                   2 3d1+    2 3d1+

   1.2   2     3.4965   -5.2016  0.000000 -0.000001  0.000003 -0.000009  0.000011 -0.000015  0.000032 -0.000093  0.000380 -0.003496
                                -0.038263 -0.053094 -0.365811 -0.451919 -1.366278 -0.482774  0.319962 -0.480499  0.329075  0.014122
                                 0.055013  0.285839  0.448621  0.566257  1.245578 -0.145276 -0.497589  0.375845  0.038572 -0.006806
                                -0.000028  0.000146 -0.000613  0.003274 -0.060773 -0.557810  1.177455 -0.478054 -1.578503 -1.027819
                                 0.145386  1.069524 -1.625499  1.110476  1.331895  1.160149 -1.324489  0.746479 -0.479096  0.171963
                                -0.071719  0.020200  0.000125 -0.000021 -0.000963  0.000160  0.009211 -0.001536  0.032863 -0.005555
                                -0.263262  0.042536 -0.102696  0.016935  1.634738 -0.268867  0.213996 -0.034319  0.507170 -0.081511
                                -1.875849  0.312573  1.050905 -0.210644 -0.816303  0.139550  0.365851 -0.069627 -0.116773  0.022196
                                 0.000266 -0.000038 -0.000142  0.000042  0.002389 -0.000371 -0.001787  0.000341  0.032348 -0.003839
                                 0.074860 -0.001449 -0.187681  0.001585  0.051035 -0.000521 -0.041027  0.000078 -0.000014 -0.000180
                                 0.000013 -0.000654 -0.000571  0.000165  0.002705 -0.001665  0.000317 -0.010829  0.069078  0.341057
                                 0.101968 -0.261904

   2.2   +     5.0527   -3.0947 -0.000005  0.000018 -0.000073  0.000219 -0.000294  0.000385 -0.000834  0.002385 -0.009782  0.090058
                                 0.989155  1.388319  9.774671 12.138562 35.952762 12.298621 -7.076072  4.824467 -4.689271 -0.364295
                                -1.427147 -7.591249-12.134024-15.314892-31.522200  1.500268  5.545168 -3.979067 -0.393763  0.069181
                                 0.000011 -0.000058  0.000245 -0.001310  0.024396  0.224957 -0.475928  0.192568  0.652378  0.153128
                                -0.058444 -0.432292  0.658065 -0.472098 -0.389360 -0.110963  0.127251 -0.118217  0.062980 -0.021838
                                 0.009042 -0.002553 -0.000109 -0.000040  0.000791  0.000290 -0.002442 -0.000936  0.250351  0.090527
                                 1.128441  0.409324  1.168901  0.425009 -1.625640 -0.587246 -0.311199 -0.111859 -1.033821 -0.374171
                                 1.396601  0.499889 -0.816205 -0.305497  0.518548  0.201639 -0.267502 -0.101782  0.086476  0.032802
                                 0.006378  0.001783 -0.022899 -0.006446  0.072173  0.020312 -0.183945 -0.052499  0.611792  0.173907
                                -0.538344 -0.155151  0.356372  0.091422 -0.182694 -0.043038  0.052493  0.013583 -0.000240 -0.000423
                                -0.000361 -0.000685 -0.001257 -0.000818  0.001217  0.000485  0.000093  0.003767 -0.032268  0.025132
                                 0.062238  0.021286

   3.2   +     5.0770   -1.9076  0.000008 -0.000031  0.000127 -0.000384  0.000515 -0.000673  0.001459 -0.004174  0.017119 -0.157605
                                -1.731146 -2.429832-17.122651-21.280210-63.006621-21.666127 12.511175 -8.405395  8.108269  0.637544
                                 2.497710 13.295528 21.270550 26.822640 55.294709 -2.592476 -9.581826  6.875479  0.680450 -0.119553
                                -0.000004  0.000023 -0.000098  0.000523 -0.009768 -0.090708  0.193226 -0.077104 -0.227633 -0.059687
                                 0.023440  0.174722 -0.266722  0.179531  0.125936  0.075719  0.023923 -0.016656  0.018547 -0.006735
                                 0.002743 -0.000769 -0.000059  0.000076  0.000424 -0.000550 -0.001294  0.001649  0.134911 -0.177103
                                 0.607620 -0.794620  0.628952 -0.822549 -0.885391  1.131144 -0.168401  0.218102 -0.557816  0.725985
                                 0.762752 -0.961693 -0.394986  0.587379  0.273819 -0.387686 -0.134664  0.195711  0.043762 -0.063079
                                 0.004072 -0.003341 -0.014747  0.012043  0.046297 -0.037974 -0.119634  0.097691  0.395039 -0.323990
                                -0.358526  0.288682  0.261933 -0.169958 -0.122723  0.079986  0.039443 -0.025243 -0.000004  0.000018
                                 0.000489  0.000350 -0.000511  0.001822  0.000099 -0.001267 -0.000439  0.010113 -0.043199 -0.054760
                                -0.020285  0.081330

   4.2   0     0.0017   -1.3564 -0.000000  0.000000 -0.000000  0.000000 -0.000000  0.000001 -0.000001  0.000004 -0.000016  0.000145
                                 0.001600  0.002465  0.027718  0.008059  0.066194  0.067624 -0.034763  0.106103 -0.401833 -0.000587
                                -0.002341 -0.019633 -0.025489 -0.019976 -0.032997  1.316750  1.018456 -1.341951 -0.920844  1.098830
                                -0.000000  0.000001 -0.000005  0.000025 -0.000462 -0.004196  0.008769 -0.003451 -0.009791 -0.007521
                                 0.001102  0.008010 -0.012115  0.007112  0.008495  0.027496 -0.054219  0.034010 -0.040731  0.236748
                                -0.096060  0.501511 -0.000000 -0.000000  0.000001  0.000001 -0.000006 -0.000004  0.000103  0.000054
                                 0.000578  0.000472  0.000158  0.000573 -0.002659  0.001167 -0.000251 -0.000172 -0.000549 -0.000636
                                 0.005067 -0.000101 -0.014882  0.000267  0.004812 -0.000369 -0.001527  0.000163  0.153159 -0.000406
                                 0.000029  0.000000 -0.000112  0.000001  0.000308 -0.000001 -0.000746  0.000000  0.001864 -0.000013
                                -0.004188 -0.000007  0.010361 -0.000041 -0.029059  0.000002  0.043928 -0.000139 -0.000001 -0.000000
                                -0.000001 -0.000009  0.000012 -0.000003  0.000086  0.000004  0.000072  0.001598  0.011043  0.098683
                                 0.000211  0.001349

   5.2   0     0.0093   -1.3962 -0.000000  0.000000 -0.000001  0.000002 -0.000002  0.000003 -0.000007  0.000020 -0.000081  0.000739
                                 0.008015  0.010671  0.055595  0.100162  0.212718  0.117401 -0.259516  0.405673 -1.188648 -0.002976
                                -0.011424 -0.046741 -0.076533 -0.099758 -0.259442  4.443935  3.309253 -4.902388 -4.124625  2.382668
                                -0.000000  0.000001 -0.000003  0.000017 -0.000320 -0.002885  0.005713 -0.002053 -0.006968 -0.008274
                                 0.000762  0.005475 -0.008096  0.005325  0.004599  0.013319 -0.027196  0.138614 -0.201806  0.024010
                                -0.446937  0.155928  0.000000  0.000000 -0.000001 -0.000001  0.000003  0.000006 -0.000075 -0.000077
                                -0.000311 -0.000673  0.000166 -0.000816  0.002892 -0.001659  0.000141  0.000246  0.000205  0.000906
                                -0.004777  0.000133  0.013243 -0.000367  0.007865  0.000455 -0.028899 -0.000132 -0.156800  0.000333
                                -0.000035 -0.000000  0.000136 -0.000001 -0.000373  0.000001  0.000901  0.000000 -0.002271  0.000018
                                 0.005098  0.000012 -0.012993  0.000050  0.036268  0.000008 -0.055118  0.000165  0.000001  0.000000
                                 0.000001  0.000014 -0.000017  0.000004 -0.000124 -0.000005 -0.000102 -0.002140 -0.014843 -0.130899
                                -0.000242 -0.002035

                                   1 2py     1 2py     1 2py     1 2py     1 2py     1 2py     1 2py     1 2py     1 2py     1 2py
                                   1 2py     1 2py     1 2py     1 2py     1 2py     1 2py     1 2py     1 2py     1 2py     1 2py
                                   1 2py     1 2py     1 2py     1 2py     1 2py     1 2py     1 2py     1 2py     1 2py     1 2py
                                   1 3d1-    1 3d1-    1 3d1-    1 3d1-    1 3d1-    1 3d1-    1 3d1-    1 3d1-    1 3d1-    1 3d1-
                                   1 3d1-    1 3d1-    1 3d1-    1 3d1-    1 3d1-    1 3d1-    1 3d1-    1 3d1-    1 3d1-    1 3d1-
                                   1 3d1-    1 3d1-    1 4f1-    1 4f3-    1 4f1-    1 4f3-    1 4f1-    1 4f3-    1 4f1-    1 4f3-
                                   1 4f1-    1 4f3-    1 4f1-    1 4f3-    1 4f1-    1 4f3-    1 4f1-    1 4f3-    1 4f1-    1 4f3-
                                   1 4f1-    1 4f3-    1 4f1-    1 4f3-    1 4f1-    1 4f3-    1 4f1-    1 4f3-    1 4f1-    1 4f3-
                                   1 5g1-    1 5g3-    1 5g1-    1 5g3-    1 5g1-    1 5g3-    1 5g1-    1 5g3-    1 5g1-    1 5g3-
                                   1 5g1-    1 5g3-    1 5g1-    1 5g3-    1 5g1-    1 5g3-    1 5g1-    1 5g3-    1 6h1-    1 6h3-
                                   1 6h5-    1 6h1-    1 6h3-    1 6h5-    1 6h1-    1 6h3-    1 6h5-    2 2py     2 2py     2 2py
                                   2 3d1-    2 3d1-

   1.3   2     3.4977   -5.3824  0.000000 -0.000001  0.000003 -0.000010  0.000013 -0.000017  0.000037 -0.000107  0.000438 -0.004024
                                -0.044037 -0.061111 -0.414614 -0.527229 -1.681564 -1.062711  0.760740 -0.392070  0.484690  0.016254
                                 0.063333  0.325141  0.513153  0.655253  1.783881 -0.127544 -0.502569  0.346887  0.032914 -0.005724
                                 0.000018 -0.000092  0.000388 -0.002069  0.038405  0.352483 -0.743858  0.301897  0.996352  0.650390
                                -0.091874 -0.675801  1.026990 -0.701418 -0.839973 -0.735469  0.851983 -0.478141  0.308528 -0.110802
                                 0.046205 -0.013013 -0.000085  0.000096  0.000650 -0.000735 -0.006236  0.007124 -0.023292  0.030093
                                 0.174216 -0.185164  0.067029 -0.062056 -1.092379  1.222965 -0.143565  0.161093 -0.340039  0.377145
                                 1.252522 -1.410752 -0.700029  0.949374  0.543960 -0.628809 -0.243855  0.313724  0.077852 -0.100011
                                -0.000201  0.000238  0.000182 -0.000487 -0.001843  0.002386  0.001901 -0.003916 -0.023367  0.022980
                                -0.045297 -0.005380  0.123170  0.001885 -0.033062 -0.002183  0.026965  0.001085  0.000270  0.000161
                                -0.000281  0.000931  0.000133 -0.000907 -0.000709  0.001134 -0.002316  0.007578 -0.047835 -0.227911
                                -0.066790  0.176324

   2.3   +     3.1703   -5.5400  0.000001 -0.000003  0.000012 -0.000037  0.000050 -0.000065  0.000142 -0.000405  0.001659 -0.015247
                                -0.166806 -0.231829 -1.588915 -1.996207 -6.177875 -3.140145  2.203931 -1.801773  1.672062  0.061580
                                 0.239906  1.242531  1.964998  2.476480  6.137455 -0.563377 -2.062774  1.491857  0.147639 -0.025879
                                -0.000023  0.000118 -0.000497  0.002650 -0.049190 -0.451566  0.953526 -0.387343 -1.279254 -0.833225
                                 0.117683  0.865885 -1.316210  0.899221  1.081899  0.940847 -1.054641  0.598758 -0.381391  0.136775
                                -0.057049  0.016069  0.000093  0.000082 -0.000713 -0.000630  0.006806  0.006056  0.023779  0.023652
                                -0.197103 -0.165186 -0.073131 -0.053443  1.236306  1.082433  0.160426  0.140489  0.378748  0.328326
                                -1.427536 -1.261486  0.806019  0.851868 -0.624468 -0.564494  0.280127  0.281599 -0.089362 -0.089750
                                 0.000147  0.000182  0.000108 -0.000321  0.001172  0.001768  0.000244 -0.002800  0.020104  0.017789
                                 0.067281  0.000322 -0.148061 -0.002058  0.041842 -0.000123 -0.032142  0.000400 -0.000424 -0.000153
                                -0.000388 -0.001419 -0.000486 -0.000917  0.000175 -0.001529 -0.002425 -0.007244  0.049278  0.256504
                                 0.077146 -0.194770

   3.3   +     5.0341   -2.0882 -0.000006  0.000023 -0.000094  0.000284 -0.000381  0.000498 -0.001080  0.003090 -0.012673  0.116674
                                 1.281664  1.798813 12.672621 15.749796 46.820838 16.250599 -9.405125  6.268424 -6.026366 -0.471991
                                -1.849174 -9.840602-15.745540-19.857814-41.229123  1.927053  7.121347 -5.110368 -0.505807  0.088869
                                 0.000001 -0.000003  0.000012 -0.000067  0.001288  0.012559 -0.028650  0.010948  0.009908  0.003118
                                -0.003128 -0.024687  0.038854 -0.019167  0.003792 -0.019146 -0.113796  0.096450 -0.060794  0.021200
                                -0.008714  0.002447  0.000081 -0.000057 -0.000588  0.000410  0.001851 -0.001137 -0.184280  0.136897
                                -0.832525  0.607675 -0.861787  0.626006  1.223728 -0.875633  0.230751 -0.165416  0.763999 -0.551244
                                -1.052143  0.747101  0.543310 -0.456783 -0.365956  0.301436  0.186030 -0.152113 -0.060652  0.049007
                                -0.009537  0.004561  0.035112 -0.016821 -0.109180  0.052309  0.286772 -0.137854 -0.943451  0.447805
                                 0.858083 -0.398269 -0.577868  0.235048  0.273482 -0.110960 -0.082721  0.035097  0.000377  0.000214
                                -0.000284  0.001683  0.000426 -0.001394 -0.003207  0.002727  0.000597 -0.035803  0.080914  0.044269
                                 0.050437 -0.113533

   4.3   0     0.0009   -1.8426 -0.000000  0.000000 -0.000000  0.000000 -0.000000  0.000000 -0.000001  0.000002 -0.000007  0.000063
                                 0.000733  0.001588  0.035858 -0.011725  0.064903  0.093343  0.004237  0.095104 -0.319176 -0.000260
                                -0.001153 -0.023284 -0.027045 -0.008740  0.009487  1.048981  0.826505 -1.020733 -0.650144  0.894082
                                -0.000000  0.000001 -0.000004  0.000021 -0.000388 -0.003535  0.007535 -0.003060 -0.008087 -0.004413
                                 0.000926  0.006762 -0.010313  0.005747  0.007771  0.026139 -0.045135  0.011441  0.001538  0.225498
                                -0.037344  0.426597 -0.000000  0.000000  0.000001 -0.000000 -0.000014 -0.000011 -0.000264 -0.000669
                                -0.000591 -0.002307 -0.001772 -0.003442 -0.004877 -0.004404 -0.000129  0.000324  0.000169  0.001679
                                 0.005793 -0.000067 -0.014782 -0.001522  0.000864  0.000673  0.012356 -0.000777  0.156901  0.000001
                                 0.000032 -0.000001 -0.000128 -0.000002  0.000342 -0.000006 -0.000835 -0.000012  0.002077 -0.000043
                                -0.004582 -0.000025  0.012093 -0.000074 -0.033044 -0.000011  0.049982 -0.000152  0.000001 -0.000001
                                 0.000000  0.000041  0.000067 -0.000009  0.000276  0.000137  0.000167  0.002171  0.015650  0.125493
                                 0.000145  0.001207

   5.3   0     0.0080   -1.8977 -0.000000  0.000000 -0.000001  0.000002 -0.000002  0.000003 -0.000006  0.000018 -0.000075  0.000688
                                 0.007429  0.009488  0.030972  0.106040  0.165615  0.052659 -0.256161  0.326319 -1.032103 -0.002766
                                -0.010519 -0.030668 -0.056829 -0.092971 -0.261370  3.790227  2.811757 -4.226034 -3.574035  2.226536
                                -0.000000  0.000001 -0.000005  0.000028 -0.000519 -0.004690  0.009291 -0.003335 -0.011422 -0.014158
                                 0.001238  0.008902 -0.013166  0.008725  0.007458  0.021438 -0.052849  0.173651 -0.265766  0.098748
                                -0.531449  0.409705  0.000000 -0.000000 -0.000000  0.000000  0.000010  0.000014  0.000446  0.000867
                                 0.001490  0.002986  0.002851  0.004457  0.005078  0.005709 -0.000136 -0.000419 -0.001030 -0.002170
                                -0.004080  0.000087  0.007780  0.002012  0.016452 -0.000946 -0.052737  0.001136 -0.107221 -0.000263
                                -0.000030  0.000001  0.000122  0.000002 -0.000323  0.000007  0.000786  0.000015 -0.001981  0.000052
                                 0.004307  0.000036 -0.012203  0.000086  0.032649  0.000031 -0.049449  0.000153 -0.000001  0.000001
                                -0.000001 -0.000052 -0.000087  0.000012 -0.000361 -0.000178 -0.000216 -0.002503 -0.018143 -0.139798
                                -0.000059 -0.001477

                                   1 3d2-    1 3d2-    1 3d2-    1 3d2-    1 3d2-    1 3d2-    1 3d2-    1 3d2-    1 3d2-    1 3d2-
                                   1 3d2-    1 3d2-    1 3d2-    1 3d2-    1 3d2-    1 3d2-    1 3d2-    1 3d2-    1 3d2-    1 3d2-
                                   1 3d2-    1 3d2-    1 4f2-    1 4f2-    1 4f2-    1 4f2-    1 4f2-    1 4f2-    1 4f2-    1 4f2-
                                   1 4f2-    1 4f2-    1 4f2-    1 4f2-    1 4f2-    1 4f2-    1 5g2-    1 5g4-    1 5g2-    1 5g4-
                                   1 5g2-    1 5g4-    1 5g2-    1 5g4-    1 5g2-    1 5g4-    1 5g2-    1 5g4-    1 5g2-    1 5g4-
                                   1 5g2-    1 5g4-    1 5g2-    1 5g4-    1 6h4-    1 6h2-    1 6h4-    1 6h2-    1 6h4-    1 6h2-
                                   2 3d2-    2 3d2-

   1.4   +     5.0638   -3.6849  0.000005 -0.000025  0.000107 -0.000569  0.010597  0.097552 -0.206204  0.084237  0.305312  0.108394
                                -0.025378 -0.187387  0.285175 -0.211728 -0.196345 -0.118122  0.105143 -0.069888  0.038943 -0.013435
                                 0.005519 -0.001556 -0.000123  0.000892 -0.002757  0.283079  1.275297  1.324604 -1.811054 -0.349846
                                -1.165890  1.539942 -0.942844  0.620121 -0.313138  0.100928  0.007724 -0.000316 -0.027986  0.001188
                                 0.087975 -0.003646 -0.227276  0.009916  0.752686 -0.030982 -0.670659  0.027305  0.394615 -0.016120
                                -0.188798  0.007634  0.059325 -0.002421 -0.000477 -0.000223 -0.001333 -0.001194 -0.000009  0.003714
                                -0.012828  0.008567

   2.4   0     0.0118   -0.8228 -0.000001  0.000004 -0.000018  0.000096 -0.001770 -0.016056  0.032994 -0.012641 -0.038014 -0.034723
                                 0.004222  0.030594 -0.045945  0.028070  0.030395  0.096019 -0.189512  0.358541 -0.495169  0.682381
                                -1.165873  1.635299 -0.000000  0.000001 -0.000008  0.000095  0.000686  0.000522 -0.001213 -0.000292
                                -0.000777  0.003260 -0.009905  0.024946 -0.049384  0.089358  0.000005 -0.000000 -0.000021  0.000000
                                 0.000057 -0.000000 -0.000140  0.000001  0.000328 -0.000003 -0.000750  0.000005  0.001638 -0.000014
                                -0.003778  0.000023  0.007809 -0.000057 -0.000000 -0.000000  0.000000  0.000000 -0.000000 -0.000001
                                -0.000019  0.000657

   3.4   0     0.0328   -1.1876 -0.000002  0.000009 -0.000038  0.000200 -0.003697 -0.033526  0.068880 -0.026393 -0.079636 -0.073176
                                 0.008817  0.063884 -0.095930  0.058777  0.063635  0.201416 -0.396176  0.767178 -1.073784  1.578734
                                -2.886306  1.446271  0.000000 -0.000003  0.000024 -0.000301 -0.002152 -0.001644  0.003804  0.000914
                                 0.002433 -0.010359  0.032328 -0.082586  0.167308 -0.379506 -0.000027  0.000000  0.000104 -0.000001
                                -0.000286  0.000002  0.000706 -0.000003 -0.001660  0.000012  0.003797 -0.000019 -0.008272  0.000061
                                 0.019052 -0.000086 -0.041198  0.000246  0.000000  0.000000 -0.000000 -0.000001  0.000000  0.000004
                                 0.000140 -0.003367

 HOMO      7.1     5.222038 =     142.0989eV
 LUMO      8.1    -0.276469 =      -7.5231eV
 LUMO-HOMO        -5.498507 =    -149.6220eV

 No convergence



 **********************************************************************************************************************************
 DATASETS  * FILE   NREC   LENGTH (MB)   RECORD NAMES
              1      19       22.63       500      610      700      900      950      970     1000      129      960     1100
                                          VAR    BASINP    GEOM    SYMINP    ZMAT    AOBASIS   BASIS     P2S    ABASIS      S
                                         1400     1410     1420     1200     1210     1080     1600     1650     1700
                                           T        V       ECP      H0       H01     AOSYM     SMH    MOLCAS    OPER

              2       4        4.60       700     1000      520     2100
                                         GEOM     BASIS   MCVARS     RHF

 PROGRAMS   *        TOTAL       RHF       INT
 CPU TIMES  *       243.43    130.91    112.11
 REAL TIME  *       263.75 SEC
 DISK USED  *        13.23 GB
 SF USED    *         0.25 MB
 GA USED    *         0.00 MB       (max)       0.00 MB       (current)
 **********************************************************************************************************************************
   -->
   <time start="13:26:36" end="13:30:59" cpu="243.43" system="19.81" real="263.75"/>
   <storage units="megabyte" memory="8001.84" sf="0.25" df="400.41" eaf="12830.09" ga="0.0"/>
  </jobstep><!--
 SETTING SCF            =       -67.34778984  AU
 SETTING _CC_NORM_MAX   =         2.00000000
  --><jobstep command="RCCSD(T)" commandset="CCSD">
   <!--


 PROGRAM * CCSD (Restricted open-shell coupled cluster)     Authors: C. Hampel, H.-J. Werner, 1991, M. Deegan, P.J. Knowles, 1992


 Convergence thresholds:  THRVAR = 1.00D-08  THRDEN = 1.00D-06

 CCSD(T)     terms to be evaluated (factor= 1.000)


 Number of closed-shell orbitals:   5 (   3   1   1   0 )
 Number of active  orbitals:        9 (   4   2   2   1 )
 Number of external orbitals:     455 ( 176 109 109  61 )

 Memory could be reduced to 526.37 Mwords without degradation in triples

 Number of N-1 electron functions:              19
 Number of N-2 electron functions:             171
 Number of singly external CSFs:              2750
 Number of doubly external CSFs:           6649251
 Total number of CSFs:                     6652001

 Molecular orbitals read from record     2100.2  Type=RHF/CANONICAL (state 1.4)

 ?Error: RHF not converged. This error exit can be avoided using the IGNORE_ERROR option on the ORBITAL directive
   --><error/><!--
  --></jobstep><!--
  -->
  <input>
  <!--
 --></job><!--
--></molpro>
