<?xml version="1.0"?>
<molpro xmlns="http://www.molpro.net/schema/molpro-output"
  xmlns:xsd="http://www.w3.org/1999/XMLSchema"
  xmlns:cml="http://www.xml-cml.org/schema"
  xmlns:stm="http://www.xml-cml.org/schema"
  xmlns:xhtml="http://www.w3.org/1999/xhtml">
 <!--

 Nodes     nprocs
 nid02248    11
 Number of processes for MPI-2 version of Molpro:   nprocs(total)=   12   nprocs(compute)=   11   nprocs(helper)=    1

 Using customized tuning parameters: mindgm=7; mindgv=16; mindgc=1; mindgr=1; noblas=0; minvec=7
 default implementation of scratch files=sf

 --><job>
  <!--

 Variables initialized (889), CPU time= 0.03 sec
 Commands  initialized (702), CPU time= 0.01 sec, 572 directives.
 Default parameters read. Elapsed time= 0.16 sec

 Checking input...
 Passed
1


                                         ***  PROGRAM SYSTEM MOLPRO  ***
                                       Copyright, TTI GmbH Stuttgart, 2015
                                    Version 2015.1 linked Dec 29 2018 15:55:43


 **********************************************************************************************************************************
 LABEL *   Calculation for Y atom, singlet and triplet
  64 bit mpp version                                                                     DATE: 28-Sep-22          TIME: 16:45:01
 **********************************************************************************************************************************

 SHA1:             19cd028119e0e09f93f0674bd8af7968d9b3eff6
 **********************************************************************************************************************************
  -->
  <!--

 THRESHOLDS:

 ZERO    =  1.00D-12  ONEINT  =  1.00D-12  TWOINT  =  1.00D-15  PREFAC  =  1.00D-14  LOCALI  =  1.00D-09  EORDER  =  1.00D-04
 ENERGY  =  0.00D+00  ETEST   =  0.00D+00  EDENS   =  0.00D+00  THRDEDEF=  1.00D-06  GRADIENT=  1.00D-02  STEP    =  1.00D-03
 ORBITAL =  1.00D-05  CIVEC   =  1.00D-05  COEFF   =  1.00D-04  PRINTCI =  5.00D-02  PUNCHCI =  9.90D+01  OPTGRAD =  3.00D-04
 OPTENERG=  1.00D-06  OPTSTEP =  3.00D-04  THRGRAD =  1.00D-10  COMPRESS=  1.00D-11  VARMIN  =  1.00D-07  VARMAX  =  1.00D-03
 THRDOUB =  0.00D+00  THRDIV  =  1.00D-05  THRRED  =  1.00D-07  THRPSP  =  1.00D+00  THRDC   =  1.00D-10  THRCS   =  1.00D-10
 THRNRM  =  1.00D-08  THREQ   =  0.00D+00  THRDE   =  1.00D+00  THRREF  =  1.00D-05  SPARFAC =  1.00D+00  THRDLP  =  1.00D-07
 THRDIA  =  1.00D-10  THRDLS  =  1.00D-07  THRGPS  =  0.00D+00  THRKEX  =  0.00D+00  THRDIS  =  2.00D-01  THRVAR  =  1.00D-10
 THRLOC  =  1.00D-06  THRGAP  =  1.00D-06  THRLOCT = -1.00D+00  THRGAPT = -1.00D+00  THRORB  =  1.00D-06  THRMLTP =  0.00D+00
 THRCPQCI=  1.00D-10  KEXTA   =  0.00D+00  THRCOARS=  0.00D+00  SYMTOL  =  1.00D-06  GRADTOL =  1.00D-06  THROVL  =  1.00D-08
 THRORTH =  1.00D-08  GRID    =  1.00D-06  GRIDMAX =  1.00D-03  DTMAX   =  0.00D+00  THROCCDE=  1.00D-01  THROCCDE=  1.00D-01



 THRESHOLDS:

 ZERO    =  1.00D-12  ONEINT  =  1.00D-12  TWOINT  =  1.00D-15  PREFAC  =  1.00D-14  LOCALI  =  1.00D-09  EORDER  =  1.00D-04
 ENERGY  =  0.00D+00  ETEST   =  0.00D+00  EDENS   =  0.00D+00  THRDEDEF=  1.00D-06  GRADIENT=  1.00D-02  STEP    =  1.00D-03
 ORBITAL =  1.00D-05  CIVEC   =  1.00D-05  COEFF   =  1.00D-04  PRINTCI =  5.00D-02  PUNCHCI =  9.90D+01  OPTGRAD =  3.00D-04
 OPTENERG=  1.00D-06  OPTSTEP =  3.00D-04  THRGRAD =  1.00D-10  COMPRESS=  1.00D-11  VARMIN  =  1.00D-07  VARMAX  =  1.00D-03
 THRDOUB =  0.00D+00  THRDIV  =  1.00D-05  THRRED  =  1.00D-07  THRPSP  =  1.00D+00  THRDC   =  1.00D-10  THRCS   =  1.00D-10
 THRNRM  =  1.00D-08  THREQ   =  0.00D+00  THRDE   =  1.00D+00  THRREF  =  1.00D-05  SPARFAC =  1.00D+00  THRDLP  =  1.00D-07
 THRDIA  =  1.00D-10  THRDLS  =  1.00D-07  THRGPS  =  0.00D+00  THRKEX  =  0.00D+00  THRDIS  =  2.00D-01  THRVAR  =  1.00D-10
 THRLOC  =  1.00D-06  THRGAP  =  1.00D-06  THRLOCT = -1.00D+00  THRGAPT = -1.00D+00  THRORB  =  1.00D-06  THRMLTP =  0.00D+00
 THRCPQCI=  1.00D-10  KEXTA   =  0.00D+00  THRCOARS=  0.00D+00  SYMTOL  =  1.00D-06  GRADTOL =  1.00D-06  THROVL  =  1.00D-15
 THRORTH =  1.00D-08  GRID    =  1.00D-06  GRIDMAX =  1.00D-03  DTMAX   =  0.00D+00  THROCCDE=  1.00D-01  THROCCDE=  1.00D-01



 Variable memory set to 1000000000 words,  buffer space   230000 words

 SETTING BASIS          =    USERDEF
 SETTING ZR_CCSD        =       -46.74018292
 SETTING O_CCSD         =       -15.86622096
 SETTING NE             =        18.00000000
 SETTING SYMM           =         1.00000000
 SETTING SS             =     0.00000000D+00
 SETTING A1             =         5.00000000
 SETTING B1             =         2.00000000
 SETTING B2             =         2.00000000
 SETTING A2             =     0.00000000D+00

Geometry recognized as XYZ

  --><jobstep command="RHF-SCF" commandset="SCFPRO">
   <!--


 Recomputing integrals since basis changed


 Using spherical harmonics



 PROGRAM * SEWARD (Integral evaluation for generally contracted gaussian basis sets)     Author: Roland Lindh, 1990

 Geometry written to block  1 of record 700


 Point group  C2v


   --><cml:molecule>
    <cml:symmetry pointGroup="C2v"/>
    <cml:atomArray>
     <cml:atom id="a1" elementType="Zr" x3="0.0" y3="0.0" z3="0.0"/>
     <cml:atom id="a2" elementType="O" x3="0.0" y3="0.0" z3="2.6"/>
    </cml:atomArray>
    <cml:bondArray>
     <cml:bond atomRefs2="a1 a2"/>
    </cml:bondArray>
   </cml:molecule><!--

 ATOMIC COORDINATES

 NR  ATOM    CHARGE       X              Y              Z

   1  ZR     12.00    0.000000000    0.000000000    0.000000000
   2  O       6.00    0.000000000    0.000000000    4.913287924

 Bond lengths in Bohr (Angstrom)

 1-2  4.913287924
     ( 2.600000000)

 NUCLEAR CHARGE:                   18
 NUMBER OF PRIMITIVE AOS:         401
 NUMBER OF SYMMETRY AOS:          341
 NUMBER OF CONTRACTIONS:          341   ( 149A1  +  78B1  +  78B2  +  36A2  )
 NUMBER OF CORE ORBITALS:           4   (   2A1  +   1B1  +   1B2  +   0A2  )
 NUMBER OF VALENCE ORBITALS:       10   (   5A1  +   2B1  +   2B2  +   1A2  )


 NUCLEAR REPULSION ENERGY   14.65413815

 EXTRA SYMMETRY OF AOS IN SYMMETRY 1:   1 1 1 1 1 1 1 1 1 1   1 1 1 1 1 1 1 1 1 1   1 1 1 1 1 1 1 1 1 1   1 1 1 1 1 1 1 1 1 1
                                        1 1 1 1 1 1 1 1 1 1   1 1 1 1 1 1 1 1 1 1   2 1 2 1 2 1 2 1 2 1   2 1 2 1 2 1 2 1 2 1
                                        2 1 2 1 2 1 2 1 2 1   2 1 2 1 2 1 2 1 2 1   2 1 2 1 2 1 2 1 3 2   1 3 2 1 3 2 1 1 1 1
                                        1 1 1 1 1 1 1 1 1 1   1 1 1 1 1 1 1 1 2 1   2 1 2 1 2 1 2 1 2
 EXTRA SYMMETRY OF AOS IN SYMMETRY 2:   1 1 1 1 1 1 1 1 1 1   1 1 1 1 1 1 1 1 1 1   1 1 1 1 1 1 1 1 1 1   1 1 1 1 1 1 1 1 1 1
                                        1 1 1 1 1 1 1 1 1 2   1 2 1 2 1 2 1 2 1 2   1 2 1 1 1 1 1 1 1 1   1 1 1 1 1 2 1 2
 EXTRA SYMMETRY OF AOS IN SYMMETRY 3:   1 1 1 1 1 1 1 1 1 1   1 1 1 1 1 1 1 1 1 1   1 1 1 1 1 1 1 1 1 1   1 1 1 1 1 1 1 1 1 1
                                        1 1 1 1 1 1 1 1 1 2   1 2 1 2 1 2 1 2 1 2   1 2 1 1 1 1 1 1 1 1   1 1 1 1 1 2 1 2
 EXTRA SYMMETRY OF AOS IN SYMMETRY 4:   1 1 1 1 1 1 1 1 1 1   1 1 1 1 1 1 1 1 1 1   1 1 1 1 1 2 1 2 1 2   1 1 1 1 1 1

 Eigenvalues of metric

         1 0.120E-07 0.917E-07 0.978E-07 0.116E-06 0.524E-06 0.103E-05 0.319E-05 0.774E-05
         2 0.122E-07 0.972E-07 0.117E-06 0.104E-05 0.810E-05 0.108E-04 0.362E-04 0.404E-04
         3 0.122E-07 0.972E-07 0.117E-06 0.104E-05 0.810E-05 0.108E-04 0.362E-04 0.404E-04
         4 0.978E-07 0.108E-04 0.404E-04 0.435E-03 0.213E-02 0.598E-02 0.165E-01 0.366E-01


 Contracted 2-electron integrals neglected if value below      1.0D-15
 AO integral compression algorithm  1   Integral accuracy      1.0D-15

     1712.849 MB (compressed) written to integral file ( 40.3%)

     Node minimum: 74.711 MB, node maximum: 335.282 MB


 NUMBER OF SORTED TWO-ELECTRON INTEGRALS:   39937228.     BUFFER LENGTH:  32768
 NUMBER OF SEGMENTS:   2  SEGMENT LENGTH:   31987780      RECORD LENGTH: 524288

 Memory used in sort:      32.54 MW

 SORT1 READ   530794036. AND WROTE    16587204. INTEGRALS IN     48 RECORDS. CPU TIME:     7.38 SEC, REAL TIME:     9.11 SEC
 SORT2 READ   183134715. AND WROTE   439765440. INTEGRALS IN   4389 RECORDS. CPU TIME:     0.86 SEC, REAL TIME:     1.30 SEC

 Node minimum:    39935592.  Node maximum:    40095769. integrals

 OPERATOR DM      FOR CENTER  0  COORDINATES:    0.000000    0.000000    0.000000


 **********************************************************************************************************************************
 DATASETS  * FILE   NREC   LENGTH (MB)   RECORD NAMES
              1      19       21.44       500      610      700      900      950      970     1000      129      960     1100
                                          VAR    BASINP    GEOM    SYMINP    ZMAT    AOBASIS   BASIS     P2S    ABASIS      S
                                         1400     1410     1420     1200     1210     1080     1600     1650     1700
                                           T        V       ECP      H0       H01     AOSYM     SMH    MOLCAS    OPER

 PROGRAMS   *        TOTAL       INT
 CPU TIMES  *        62.07     61.76
 REAL TIME  *        65.59 SEC
 DISK USED  *         3.96 GB
 GA USED    *         0.00 MB       (max)       0.00 MB       (current)
 **********************************************************************************************************************************


 PROGRAM * RHF-SCF (CLOSED SHELL)       Authors: W. Meyer, H.-J. Werner


 NUMBER OF ELECTRONS:       9+    9-    SPACE SYMMETRY=1    SPIN SYMMETRY: Singlet
 CONVERGENCE THRESHOLDS:    1.00E-05 (Density)    1.00E-07 (Energy)
 MAX. NUMBER OF ITERATIONS:      200
 INTERPOLATION TYPE:            DIIS
 INTERPOLATION STEPS:              2 (START)      1 (STEP)
 LEVEL SHIFTS:                  0.00 (CLOSED)  0.00 (OPEN)

 Number of closed-shell orbitals:    9 (   5   2   2   0 )


 Orbital guess generated from atomic densities. Full valence occupancy:    7   3   3   1

 Molecular orbital dump at record        2100.2

 ITERATION    DDIFF          GRAD             ENERGY        2-EL.EN.            DIPOLE MOMENTS         DIIS   ORB.
    1      0.000D+00      0.000D+00       -61.20224245    111.889805    0.00000    0.00000   -8.43190    0    start
    2      0.000D+00      0.202D-01       -52.66169181    133.446460    0.00000    0.00000   23.46426    1    diag
    3      0.438D+00      0.589D-01       -61.75807458    111.594908    0.00000    0.00000   -6.40195    2    diag
    4      0.433D+00      0.822D-02       -61.88906630    112.332158    0.00000    0.00000   -4.06991    3    diag
    5      0.364D-01      0.113D-02       -61.89243890    112.476809    0.00000    0.00000   -3.63741    4    diag
    6      0.169D-01      0.152D-02       -61.89597033    112.594923    0.00000    0.00000   -3.81135    5    diag
    7      0.461D-02      0.791D-03       -61.90173224    112.811816    0.00000    0.00000   -3.95511    6    diag
    8      0.149D-01      0.628D-03       -61.90189361    112.816648    0.00000    0.00000   -3.95573    7    diag
    9      0.427D-03      0.629D-03       -61.89309570    112.572576    0.00000    0.00000   -3.76851    8    diag
   10      0.226D-01      0.742D-03       -61.86838748    112.272374    0.00000    0.00000   -2.66591    9    orth
   11      0.389D-01      0.313D-02       -61.88545902    112.471532    0.00000    0.00000   -3.43702    9    diag
   12      0.246D-01      0.162D-02       -61.88250642    112.509474    0.00000    0.00000   -3.35082    9    diag
   13      0.302D-02      0.212D-02       -61.87358749    112.609209    0.00000    0.00000   -3.06636    9    diag
   14      0.591D-02      0.338D-02       -61.83145430    112.308642    0.00000    0.00000   -1.63055    9    diag
   15      0.394D-01      0.592D-02       -61.88559537    112.641918    0.00000    0.00000   -3.50358    9    diag
   16      0.495D-01      0.203D-02       -61.88064697    112.660398    0.00000    0.00000   -3.34506    9    diag
   17      0.473D-02      0.262D-02       -61.88116450    112.742543    0.00000    0.00000   -3.36207    9    diag
   18      0.822D-02      0.294D-02       -61.88245844    112.418452    0.00000    0.00000   -3.28724    9    diag
   19      0.198D-01      0.183D-02       -61.88021170    112.567954    0.00000    0.00000   -3.22056    9    fixocc
   20      0.119D-01      0.286D-02       -61.87978237    112.440763    0.00000    0.00000   -3.16353    9    orth
   21      0.891D-02      0.252D-02       -61.87605378    112.496620    0.00000    0.00000   -3.12594    9    diag
   22      0.808D-02      0.258D-02       -61.85521774    112.277157    0.00000    0.00000   -2.26478    9    diag
   23      0.252D-01      0.396D-02       -61.88462500    112.743965    0.00000    0.00000   -3.54467    9    diag
   24      0.438D-01      0.216D-02       -61.88934781    112.829427    0.00000    0.00000   -3.69278    9    diag
   25      0.119D-01      0.202D-02       -61.88212835    112.602360    0.00000    0.00000   -3.30439    9    diag
   26      0.135D-01      0.266D-02       -61.84645065    112.474596    0.00000    0.00000   -2.26472    9    diag
   27      0.308D-01      0.529D-02       -61.89216763    112.687740    0.00000    0.00000   -3.66865    9    diag
   28      0.435D-01      0.153D-02       -61.88767703    112.627304    0.00000    0.00000   -3.48047    9    diag
   29      0.634D-02      0.207D-02       -61.86965593    112.520773    0.00000    0.00000   -2.89003    9    diag
   30      0.207D-01      0.369D-02       -61.82951156    112.480843    0.00000    0.00000   -1.84441    9    orth
   31      0.237D-01      0.640D-02       -61.88523730    112.536591    0.00000    0.00000   -3.50146    9    diag
   32      0.332D-01      0.158D-02       -61.83483008    112.307129    0.00000    0.00000   -1.76995    9    diag
   33      0.438D-01      0.542D-02       -61.86178233    112.368643    0.00000    0.00000   -2.60878    9    diag
   34      0.145D-01      0.338D-02       -61.71686763    112.590766    0.00000    0.00000    0.23043    9    diag
   35      0.490D-01      0.107D-01       -61.82117322    112.340255    0.00000    0.00000   -1.43791    9    diag
   36      0.303D-01      0.641D-02       -61.88709750    112.606750    0.00000    0.00000   -3.50312    9    diag
   37      0.566D-01      0.192D-02       -61.88546039    112.544014    0.00000    0.00000   -3.58187    9    diag
   38      0.118D-01      0.130D-02       -61.78521963    112.395142    0.00000    0.00000   -0.80987    9    diag
   39      0.559D-01      0.825D-02       -61.84218127    112.341282    0.00000    0.00000   -1.99089    9    diag
   40      0.197D-01      0.509D-02       -61.83980741    112.350874    0.00000    0.00000   -1.93661    9    orth
   41      0.853D-03      0.529D-02       -61.88948366    112.747597    0.00000    0.00000   -3.78823    9    diag
   42      0.506D-01      0.142D-02       -61.85833542    112.592265    0.00000    0.00000   -2.65828    9    diag
   43      0.283D-01      0.448D-02       -61.84122983    112.574860    0.00000    0.00000   -2.21813    9    diag
   44      0.825D-02      0.570D-02       -61.85430834    112.607742    0.00000    0.00000   -2.56915    9    diag
   45      0.968D-02      0.498D-02       -61.84754689    112.570970    0.00000    0.00000   -2.36071    9    diag
   46      0.615D-02      0.535D-02       -61.83984352    112.557354    0.00000    0.00000   -2.16291    9    diag
   47      0.407D-02      0.584D-02       -61.84588283    112.589905    0.00000    0.00000   -2.34391    9    diag
   48      0.504D-02      0.552D-02       -61.84162406    112.563341    0.00000    0.00000   -2.21109    9    diag
   49      0.384D-02      0.574D-02       -61.84273765    112.563245    0.00000    0.00000   -2.23706    9    diag
   50      0.495D-03      0.566D-02       -61.85028056    112.579274    0.00000    0.00000   -2.43610    9    orth
   51      0.471D-02      0.518D-02       -61.84748674    112.567361    0.00000    0.00000   -2.35568    9    diag
   52      0.341D-02      0.535D-02       -61.84778015    112.567182    0.00000    0.00000   -2.36277    9    diag
   53      0.718D-03      0.533D-02       -61.84830814    112.567822    0.00000    0.00000   -2.37632    9    diag
   54      0.292D-03      0.529D-02       -61.84866785    112.572099    0.00000    0.00000   -2.39008    9    diag
   55      0.105D-02      0.528D-02       -61.84821039    112.567768    0.00000    0.00000   -2.37383    9    diag
   56      0.137D-02      0.530D-02       -61.84813751    112.567666    0.00000    0.00000   -2.37193    9    diag
   57      0.459D-04      0.530D-02       -61.84811770    112.569292    0.00000    0.00000   -2.37323    9    diag
   58      0.105D-02      0.531D-02       -61.84824318    112.567728    0.00000    0.00000   -2.37462    9    diag
   59      0.867D-03      0.529D-02       -61.84829064    112.567840    0.00000    0.00000   -2.37591    9    diag
   60      0.556D-04      0.529D-02       -61.84823211    112.567916    0.00000    0.00000   -2.37452    9    orth
   61      0.366D-03      0.530D-02       -61.84824278    112.567775    0.00000    0.00000   -2.37466    9    diag
   62      0.242D-03      0.530D-02       -61.84824320    112.567764    0.00000    0.00000   -2.37466    9    diag
   63      0.347D-04      0.529D-02       -61.84824299    112.567764    0.00000    0.00000   -2.37466    9    diag
   64      0.125D-04      0.529D-02       -61.84824459    112.567764    0.00000    0.00000   -2.37470    9    diag
   65      0.512D-05      0.529D-02       -61.84825159    112.567789    0.00000    0.00000   -2.37488    9    diag
   66      0.114D-03      0.529D-02       -61.84824377    112.567769    0.00000    0.00000   -2.37468    9    diag
   67      0.122D-03      0.529D-02       -61.84824387    112.567769    0.00000    0.00000   -2.37469    9    diag
   68      0.105D-06      0.529D-02       -61.84824594    112.567766    0.00000    0.00000   -2.37472    9    diag
   69      0.673D-04      0.529D-02       -61.84824528    112.567768    0.00000    0.00000   -2.37472    9    diag
   70      0.589D-04      0.529D-02       -61.84824512    112.567767    0.00000    0.00000   -2.37471    9    orth
   71      0.483D-05      0.529D-02       -61.84824595    112.567767    0.00000    0.00000   -2.37473    9    diag
   72      0.147D-04      0.529D-02       -61.84824582    112.567771    0.00000    0.00000   -2.37474    9    diag
   73      0.308D-04      0.529D-02       -61.84824612    112.567769    0.00000    0.00000   -2.37474    9    diag
   74      0.165D-04      0.529D-02       -61.84824636    112.567770    0.00000    0.00000   -2.37475    9    diag
   75      0.335D-05      0.529D-02       -61.84824603    112.567766    0.00000    0.00000   -2.37473    9    diag
   76      0.367D-04      0.529D-02       -61.84824542    112.567767    0.00000    0.00000   -2.37472    9    diag
   77      0.290D-04      0.529D-02       -61.84824514    112.567768    0.00000    0.00000   -2.37471    9    diag
   78      0.107D-04      0.529D-02       -61.84824559    112.567769    0.00000    0.00000   -2.37473    9    diag
   79      0.194D-05      0.529D-02       -61.84824715    112.567785    0.00000    0.00000   -2.37477    9    diag
   80      0.123D-03      0.529D-02       -61.84824420    112.567766    0.00000    0.00000   -2.37469    9    orth
   81      0.112D-03      0.529D-02       -61.84824414    112.567766    0.00000    0.00000   -2.37469    9    diag
   82      0.207D-05      0.529D-02       -61.84824465    112.567768    0.00000    0.00000   -2.37470    9    diag
   83      0.161D-04      0.529D-02       -61.84824508    112.567765    0.00000    0.00000   -2.37471    9    diag
   84      0.281D-04      0.529D-02       -61.84824631    112.567767    0.00000    0.00000   -2.37474    9    diag
   85      0.446D-04      0.529D-02       -61.84824417    112.567769    0.00000    0.00000   -2.37469    9    diag
   86      0.655D-04      0.529D-02       -61.84824504    112.567770    0.00000    0.00000   -2.37471    9    diag
   87      0.584D-05      0.529D-02       -61.84824696    112.567778    0.00000    0.00000   -2.37476    9    diag
   88      0.109D-03      0.529D-02       -61.84824419    112.567766    0.00000    0.00000   -2.37469    9    diag
   89      0.112D-03      0.529D-02       -61.84824451    112.567766    0.00000    0.00000   -2.37470    9    diag
   90      0.106D-04      0.529D-02       -61.84824527    112.567768    0.00000    0.00000   -2.37472    9    orth
   91      0.129D-04      0.529D-02       -61.84824528    112.567765    0.00000    0.00000   -2.37471    9    diag
   92      0.271D-04      0.529D-02       -61.84824615    112.567767    0.00000    0.00000   -2.37473    9    diag
   93      0.256D-04      0.529D-02       -61.84824400    112.567770    0.00000    0.00000   -2.37469    9    diag
   94      0.624D-04      0.529D-02       -61.84824561    112.567772    0.00000    0.00000   -2.37473    9    diag
   95      0.149D-05      0.529D-02       -61.84827937    112.568365    0.00000    0.00000   -2.37624    9    diag
   96      0.433D-03      0.529D-02       -61.84824854    112.567768    0.00000    0.00000   -2.37479    9    diag
   97      0.461D-03      0.529D-02       -61.84824720    112.567769    0.00000    0.00000   -2.37476    9    diag
   98      0.215D-04      0.529D-02       -61.84824636    112.567775    0.00000    0.00000   -2.37475    9    diag
   99      0.495D-04      0.529D-02       -61.84824671    112.567773    0.00000    0.00000   -2.37476    9    diag
  100      0.924D-05      0.529D-02       -61.84824927    112.567796    0.00000    0.00000   -2.37485    9    orth
  101      0.596D-04      0.529D-02       -61.84824602    112.567767    0.00000    0.00000   -2.37473    9    diag
  102      0.943D-04      0.529D-02       -61.84824598    112.567767    0.00000    0.00000   -2.37473    9    diag
  103      0.281D-04      0.529D-02       -61.84824513    112.567768    0.00000    0.00000   -2.37471    9    diag
  104      0.233D-04      0.529D-02       -61.84824669    112.567774    0.00000    0.00000   -2.37475    9    diag
  105      0.242D-04      0.529D-02       -61.84824445    112.567770    0.00000    0.00000   -2.37470    9    diag
  106      0.897D-04      0.529D-02       -61.84824561    112.567767    0.00000    0.00000   -2.37472    9    diag
  107      0.444D-04      0.529D-02       -61.84824554    112.567768    0.00000    0.00000   -2.37472    9    diag
  108      0.275D-04      0.529D-02       -61.84824509    112.567766    0.00000    0.00000   -2.37471    9    diag
  109      0.904D-05      0.529D-02       -61.84824460    112.567777    0.00000    0.00000   -2.37471    9    diag
  110      0.596D-04      0.529D-02       -61.84824707    112.567770    0.00000    0.00000   -2.37476    9    orth
  111      0.482D-04      0.529D-02       -61.84824597    112.567773    0.00000    0.00000   -2.37474    9    diag
  112      0.808D-04      0.529D-02       -61.84824544    112.567768    0.00000    0.00000   -2.37472    9    diag
  113      0.455D-04      0.529D-02       -61.84824547    112.567767    0.00000    0.00000   -2.37472    9    diag
  114      0.355D-04      0.529D-02       -61.84824541    112.567768    0.00000    0.00000   -2.37472    9    diag
  115      0.379D-04      0.529D-02       -61.84824545    112.567766    0.00000    0.00000   -2.37472    9    diag
  116      0.563D-04      0.529D-02       -61.84824596    112.567767    0.00000    0.00000   -2.37473    9    diag
  117      0.362D-04      0.529D-02       -61.84824560    112.567767    0.00000    0.00000   -2.37472    9    diag
  118      0.250D-04      0.529D-02       -61.84824558    112.567767    0.00000    0.00000   -2.37472    9    diag
  119      0.115D-05      0.529D-02       -61.84824581    112.567767    0.00000    0.00000   -2.37472    9    diag
  120      0.136D-04      0.529D-02       -61.84824539    112.567767    0.00000    0.00000   -2.37472    9    orth
  121      0.238D-04      0.529D-02       -61.84824529    112.567767    0.00000    0.00000   -2.37472    9    diag
  122      0.612D-05      0.529D-02       -61.84824509    112.567768    0.00000    0.00000   -2.37471    9    diag
  123      0.163D-04      0.529D-02       -61.84824499    112.567769    0.00000    0.00000   -2.37471    9    diag
  124      0.284D-04      0.529D-02       -61.84824619    112.567769    0.00000    0.00000   -2.37473    9    diag
  125      0.555D-04      0.529D-02       -61.84824493    112.567767    0.00000    0.00000   -2.37471    9    diag
  126      0.747D-04      0.529D-02       -61.84824544    112.567767    0.00000    0.00000   -2.37472    9    diag
  127      0.249D-04      0.529D-02       -61.84824509    112.567768    0.00000    0.00000   -2.37471    9    diag
  128      0.296D-04      0.529D-02       -61.84824497    112.567768    0.00000    0.00000   -2.37471    9    diag
  129      0.199D-04      0.529D-02       -61.84824615    112.567769    0.00000    0.00000   -2.37473    9    diag
  130      0.613D-04      0.529D-02       -61.84824492    112.567767    0.00000    0.00000   -2.37471    9    orth
  131      0.741D-04      0.529D-02       -61.84824537    112.567767    0.00000    0.00000   -2.37472    9    diag
  132      0.205D-04      0.529D-02       -61.84824511    112.567768    0.00000    0.00000   -2.37471    9    diag
  133      0.270D-04      0.529D-02       -61.84824501    112.567768    0.00000    0.00000   -2.37471    9    diag
  134      0.186D-04      0.529D-02       -61.84824596    112.567769    0.00000    0.00000   -2.37473    9    diag
  135      0.613D-04      0.529D-02       -61.84824501    112.567767    0.00000    0.00000   -2.37471    9    diag
  136      0.713D-04      0.529D-02       -61.84824547    112.567767    0.00000    0.00000   -2.37472    9    diag
  137      0.209D-04      0.529D-02       -61.84824515    112.567768    0.00000    0.00000   -2.37471    9    diag
  138      0.260D-04      0.529D-02       -61.84824501    112.567767    0.00000    0.00000   -2.37471    9    diag
  139      0.136D-04      0.529D-02       -61.84824534    112.567771    0.00000    0.00000   -2.37472    9    diag
  140      0.556D-04      0.529D-02       -61.84824568    112.567766    0.00000    0.00000   -2.37472    9    orth
  141      0.635D-04      0.529D-02       -61.84824592    112.567768    0.00000    0.00000   -2.37473    9    diag
  142      0.460D-04      0.529D-02       -61.84824574    112.567767    0.00000    0.00000   -2.37472    9    diag
  143      0.794D-05      0.529D-02       -61.84824585    112.567766    0.00000    0.00000   -2.37473    9    diag
  144      0.737D-05      0.529D-02       -61.84824614    112.567768    0.00000    0.00000   -2.37473    9    diag
  145      0.227D-04      0.529D-02       -61.84824455    112.567768    0.00000    0.00000   -2.37470    9    diag
  146      0.492D-04      0.529D-02       -61.84824519    112.567771    0.00000    0.00000   -2.37472    9    diag
  147      0.170D-04      0.529D-02       -61.84824564    112.567765    0.00000    0.00000   -2.37472    9    diag
  148      0.552D-04      0.529D-02       -61.84824629    112.567769    0.00000    0.00000   -2.37474    9    diag
  149      0.514D-04      0.529D-02       -61.84824620    112.567768    0.00000    0.00000   -2.37473    9    diag
  150      0.321D-04      0.529D-02       -61.84824496    112.567768    0.00000    0.00000   -2.37471    9    orth
  151      0.513D-04      0.529D-02       -61.84824500    112.567768    0.00000    0.00000   -2.37471    9    diag
  152      0.235D-04      0.529D-02       -61.84824598    112.567768    0.00000    0.00000   -2.37473    9    diag
  153      0.672D-04      0.529D-02       -61.84824542    112.567767    0.00000    0.00000   -2.37472    9    diag
  154      0.544D-04      0.529D-02       -61.84824567    112.567767    0.00000    0.00000   -2.37472    9    diag
  155      0.160D-04      0.529D-02       -61.84824538    112.567767    0.00000    0.00000   -2.37472    9    diag
  156      0.185D-04      0.529D-02       -61.84824519    112.567767    0.00000    0.00000   -2.37471    9    diag
  157      0.103D-04      0.529D-02       -61.84824471    112.567769    0.00000    0.00000   -2.37471    9    diag
  158      0.244D-04      0.529D-02       -61.84824585    112.567771    0.00000    0.00000   -2.37473    9    diag
  159      0.329D-04      0.529D-02       -61.84824594    112.567767    0.00000    0.00000   -2.37473    9    diag
  160      0.699D-04      0.529D-02       -61.84824516    112.567768    0.00000    0.00000   -2.37471    9    orth
  161      0.597D-04      0.529D-02       -61.84824496    112.567769    0.00000    0.00000   -2.37471    9    diag
  162      0.451D-05      0.529D-02       -61.84824705    112.567776    0.00000    0.00000   -2.37477    9    diag
  163      0.359D-04      0.529D-02       -61.84824606    112.567767    0.00000    0.00000   -2.37473    9    diag
  164      0.773D-04      0.529D-02       -61.84824520    112.567767    0.00000    0.00000   -2.37471    9    diag
  165      0.495D-04      0.529D-02       -61.84824470    112.567768    0.00000    0.00000   -2.37470    9    diag
  166      0.116D-04      0.529D-02       -61.84824580    112.567771    0.00000    0.00000   -2.37474    9    diag
  167      0.906D-05      0.529D-02       -61.84824616    112.567768    0.00000    0.00000   -2.37473    9    diag
  168      0.801D-04      0.529D-02       -61.84824486    112.567767    0.00000    0.00000   -2.37471    9    diag
  169      0.646D-04      0.529D-02       -61.84824471    112.567767    0.00000    0.00000   -2.37470    9    diag
  170      0.317D-05      0.529D-02       -61.84824612    112.567770    0.00000    0.00000   -2.37474    9    orth
  171      0.119D-04      0.529D-02       -61.84824343    112.567784    0.00000    0.00000   -2.37469    9    diag
  172      0.100D-03      0.529D-02       -61.84824719    112.567771    0.00000    0.00000   -2.37476    9    diag
  173      0.643D-04      0.529D-02       -61.84824722    112.567778    0.00000    0.00000   -2.37478    9    diag
  174      0.904D-04      0.529D-02       -61.84824515    112.567767    0.00000    0.00000   -2.37471    9    diag
  175      0.582D-04      0.529D-02       -61.84824594    112.567766    0.00000    0.00000   -2.37473    9    diag
  176      0.389D-04      0.529D-02       -61.84824600    112.567767    0.00000    0.00000   -2.37473    9    diag
  177      0.307D-04      0.529D-02       -61.84824450    112.567768    0.00000    0.00000   -2.37470    9    diag
  178      0.529D-04      0.529D-02       -61.84824490    112.567769    0.00000    0.00000   -2.37471    9    diag
  179      0.138D-04      0.529D-02       -61.84824597    112.567766    0.00000    0.00000   -2.37473    9    diag
  180      0.612D-04      0.529D-02       -61.84824511    112.567769    0.00000    0.00000   -2.37471    9    orth
  181      0.573D-04      0.529D-02       -61.84824507    112.567769    0.00000    0.00000   -2.37471    9    diag
  182      0.286D-05      0.529D-02       -61.84824647    112.567767    0.00000    0.00000   -2.37474    9    diag
  183      0.673D-04      0.529D-02       -61.84824478    112.567768    0.00000    0.00000   -2.37471    9    diag
  184      0.703D-04      0.529D-02       -61.84824492    112.567768    0.00000    0.00000   -2.37471    9    diag
  185      0.920D-05      0.529D-02       -61.84824535    112.567769    0.00000    0.00000   -2.37472    9    diag
  186      0.397D-04      0.529D-02       -61.84824621    112.567767    0.00000    0.00000   -2.37473    9    diag
  187      0.567D-04      0.529D-02       -61.84824487    112.567768    0.00000    0.00000   -2.37471    9    diag
  188      0.696D-04      0.529D-02       -61.84824512    112.567767    0.00000    0.00000   -2.37471    9    diag
  189      0.171D-04      0.529D-02       -61.84824515    112.567769    0.00000    0.00000   -2.37471    9    diag
  190      0.384D-04      0.529D-02       -61.84824604    112.567768    0.00000    0.00000   -2.37473    9    orth
  191      0.497D-04      0.529D-02       -61.84824504    112.567767    0.00000    0.00000   -2.37471    9    diag
  192      0.707D-04      0.529D-02       -61.84824556    112.567767    0.00000    0.00000   -2.37472    9    diag
  193      0.273D-04      0.529D-02       -61.84824512    112.567768    0.00000    0.00000   -2.37471    9    diag
  194      0.301D-04      0.529D-02       -61.84824493    112.567768    0.00000    0.00000   -2.37471    9    diag
  195      0.156D-04      0.529D-02       -61.84824576    112.567771    0.00000    0.00000   -2.37473    9    diag
  196      0.545D-04      0.529D-02       -61.84824541    112.567767    0.00000    0.00000   -2.37472    9    diag
  197      0.695D-04      0.529D-02       -61.84824593    112.567767    0.00000    0.00000   -2.37473    9    diag
  198      0.403D-04      0.529D-02       -61.84824569    112.567767    0.00000    0.00000   -2.37472    9    diag
  199      0.202D-04      0.529D-02       -61.84824572    112.567767    0.00000    0.00000   -2.37472    9    orth
  200      0.108D-05      0.529D-02       -61.77294584    113.589688    0.00000    0.00000   -5.75792    0    orth

 Final occupancy:   5   2   2   0

 !RHF STATE 1.1 Energy                -61.772945844314
   --><property name="Energy" method="RHF" principal="true" stateSymmetry="1" stateNumber="1"
     value="-61.7729458443138"/><!--
 Nuclear energy                        14.65413815
 One-electron energy                 -133.22192811
 Two-electron energy                   56.79484412
 Virial quotient                       -2.28490155
 !RHF STATE 1.1 Dipole moment           0.00000000     0.00000000    -5.75792451
 Dipole moment /Debye                   0.00000000     0.00000000   -14.63422577
   --><property name="Dipole moment" method="RHF" principal="true" stateSymmetry="1"
     stateNumber="1" value="0.0 0.0 -5.75792450953428"/><!--

 ELECTRON ORBITALS
 =================


   Orb  Occ    Energy  Couls-En    Coefficients

                                   1 1s      1 1s      1 1s      1 1s      1 1s      1 1s      1 1s      1 1s      1 1s      1 1s
                                   1 1s      1 1s      1 1s      1 1s      1 1s      1 1s      1 1s      1 1s      1 1s      1 1s
                                   1 1s      1 1s      1 1s      1 1s      1 1s      1 1s      1 1s      1 1s      1 1s      1 1s
                                   1 1s      1 2pz     1 2pz     1 2pz     1 2pz     1 2pz     1 2pz     1 2pz     1 2pz     1 2pz
                                   1 2pz     1 2pz     1 2pz     1 2pz     1 2pz     1 2pz     1 2pz     1 2pz     1 2pz     1 2pz
                                   1 2pz     1 2pz     1 2pz     1 2pz     1 2pz     1 2pz     1 2pz     1 2pz     1 2pz     1 3d0
                                   1 3d2+    1 3d0     1 3d2+    1 3d0     1 3d2+    1 3d0     1 3d2+    1 3d0     1 3d2+    1 3d0
                                   1 3d2+    1 3d0     1 3d2+    1 3d0     1 3d2+    1 3d0     1 3d2+    1 3d0     1 3d2+    1 3d0
                                   1 3d2+    1 3d0     1 3d2+    1 3d0     1 3d2+    1 3d0     1 3d2+    1 3d0     1 3d2+    1 3d0
                                   1 3d2+    1 3d0     1 3d2+    1 3d0     1 3d2+    1 3d0     1 3d2+    1 3d0     1 3d2+    1 4f0
                                   1 4f2+    1 4f0     1 4f2+    1 4f0     1 4f2+    1 4f0     1 4f2+    1 5g0     1 5g4+    1 5g2+
                                   1 5g0     1 5g4+    1 5g2+    1 5g0     1 5g4+    1 5g2+    2 1s      2 1s      2 1s      2 1s
                                   2 1s      2 1s      2 1s      2 1s      2 1s      2 1s      2 1s      2 1s      2 1s      2 2pz
                                   2 2pz     2 2pz     2 2pz     2 2pz     2 2pz     2 2pz     2 2pz     2 3d0     2 3d2+    2 3d0
                                   2 3d2+    2 3d0     2 3d2+    2 3d0     2 3d2+    2 4f0     2 4f2+    2 4f0     2 4f2+

   1.1   2    -2.8272  -12.4849  0.000000 -0.000000  0.000000 -0.000000  0.000000 -0.000000  0.000000 -0.000001  0.000003 -0.000009
                                 0.000026 -0.000077  0.000272 -0.001688  0.005587 -0.006197  0.005162 -0.009858 -0.003396  0.135086
                                -0.027757 -0.424512 -0.226645  0.034542  0.785796  0.552941 -0.023436  0.039823 -0.026802  0.005018
                                -0.001280  0.000000 -0.000000  0.000000 -0.000000  0.000000 -0.000000  0.000000 -0.000001  0.000004
                                -0.000015  0.000081 -0.001853  0.003123 -0.006034  0.014116 -0.025867  0.032295 -0.026957  0.065044
                                -0.089770  0.050323 -0.031426  0.002965 -0.014560  0.002912 -0.001968  0.000171  0.000093  0.000000
                                 0.000000 -0.000000 -0.000000  0.000000  0.000000 -0.000002 -0.000000  0.000010  0.000000 -0.000179
                                 0.000000  0.000229 -0.000000 -0.000139  0.000000  0.000250 -0.000000 -0.000617 -0.000001  0.006127
                                 0.000004 -0.020374 -0.000003  0.060765  0.000029 -0.056845 -0.000021  0.012403  0.000014 -0.003828
                                 0.000000  0.003297 -0.000001 -0.001023 -0.000000 -0.000304 -0.000000  0.000162  0.000000 -0.000344
                                 0.000000 -0.001186  0.000000  0.000137 -0.000000 -0.000330  0.000000 -0.000040  0.000000 -0.000000
                                -0.000215  0.000000 -0.000002 -0.000023  0.000000 -0.000000  0.000000 -0.000000  0.000000 -0.000000
                                 0.000002  0.000003 -0.000247  0.000039  0.000254  0.000228  0.003767  0.000123  0.000016 -0.000002
                                -0.000017  0.000029  0.000068 -0.000431 -0.001350  0.000013  0.000001 -0.000002 -0.000000  0.000264
                                -0.000000  0.000351 -0.000000  0.000006 -0.000000  0.000004 -0.000000 -0.000256  0.000000

   2.1   2    -1.7991  -10.4434  0.000000 -0.000000  0.000000 -0.000000  0.000000 -0.000000  0.000000 -0.000000  0.000000 -0.000000
                                 0.000001 -0.000003  0.000011 -0.000067  0.000221 -0.000245  0.000205 -0.000397  0.000248  0.003227
                                 0.001159 -0.016190  0.002034 -0.009099  0.035703  0.008271 -0.010064  0.005738 -0.002337  0.000392
                                 0.000151 -0.000000  0.000000 -0.000000  0.000000 -0.000000  0.000001 -0.000003  0.000008 -0.000027
                                 0.000100 -0.000633  0.020440 -0.035894  0.070980 -0.103333  0.143816 -0.293799  0.107558 -0.418888
                                 0.740602 -0.205586  0.608856  0.301179  0.018805  0.031513 -0.007251  0.000628 -0.000125 -0.000000
                                -0.000000  0.000000  0.000000 -0.000000 -0.000000  0.000001  0.000000 -0.000004 -0.000000  0.000049
                                 0.000000 -0.000045 -0.000000  0.000026  0.000000  0.000115 -0.000000  0.000090  0.000000 -0.003868
                                -0.000000  0.012353  0.000001 -0.053482 -0.000001  0.056628  0.000001 -0.025260  0.000000 -0.006981
                                -0.000000 -0.000066 -0.000001 -0.001869 -0.000001 -0.000512 -0.000000  0.000170 -0.000000 -0.002986
                                 0.000001 -0.002810 -0.000001 -0.002166 -0.000007 -0.000361 -0.000000 -0.000244  0.000000 -0.000000
                                -0.001006  0.000000 -0.000000 -0.000091  0.000000 -0.000000 -0.000000  0.000000 -0.000000  0.000002
                                -0.000016  0.000552 -0.000830  0.001785  0.003628  0.004413  0.006517 -0.000634 -0.000901 -0.000039
                                -0.000330 -0.000832 -0.001623 -0.002610 -0.001531  0.000010  0.000011  0.000178 -0.000000  0.001100
                                -0.000000  0.001282 -0.000001  0.000021  0.000000 -0.000074 -0.000000 -0.000340  0.000000

   3.1   2    -0.8275   -8.1087 -0.000000  0.000000 -0.000000  0.000000 -0.000000  0.000000 -0.000000  0.000000 -0.000000  0.000000
                                -0.000000  0.000001 -0.000002  0.000011 -0.000038  0.000042 -0.000036  0.000065  0.000772 -0.005509
                                 0.005090  0.005260  0.029768 -0.024833 -0.017608 -0.042261  0.036152 -0.014191  0.029254 -0.000073
                                 0.000151  0.000000 -0.000000  0.000000 -0.000000  0.000000 -0.000000  0.000000 -0.000000  0.000001
                                -0.000003  0.000019 -0.000724  0.001298 -0.002688  0.003572 -0.004693  0.011604 -0.003995  0.016773
                                -0.029901  0.003986 -0.022306 -0.055789  0.053026 -0.012782  0.013317 -0.000816  0.000075  0.000000
                                -0.000000 -0.000000  0.000000  0.000000 -0.000000 -0.000001  0.000000  0.000008 -0.000000 -0.000105
                                 0.000000  0.000109 -0.000000 -0.000053  0.000000 -0.000142  0.000000 -0.001116  0.000000  0.010288
                                -0.000002 -0.024947  0.000004  0.078105 -0.000016 -0.068006  0.000015  0.017306 -0.000006  0.022792
                                -0.000001 -0.015215 -0.000000  0.006615 -0.000001  0.001154  0.000000 -0.000265 -0.000000  0.000440
                                -0.000001  0.002684 -0.000001 -0.000923 -0.000002  0.000905 -0.000001  0.000027  0.000000 -0.000000
                                 0.000684  0.000000 -0.000000 -0.001300  0.000000 -0.000001 -0.000000  0.000004 -0.000027  0.000167
                                -0.001450  0.055482 -0.103881  0.199117  0.566825  0.375846  0.014587 -0.054245 -0.090225 -0.000524
                                -0.004219 -0.016635 -0.022749 -0.042249 -0.002124 -0.000716  0.000133  0.000470  0.000002  0.003409
                                 0.000005  0.011421  0.000008  0.000203  0.000001  0.000275  0.000000 -0.002464 -0.000000

   4.1   2    -0.3679   -5.0689 -0.000000  0.000000 -0.000000  0.000000 -0.000000  0.000000 -0.000000  0.000000 -0.000001  0.000003
                                -0.000008  0.000025 -0.000089  0.000552 -0.001833  0.002038 -0.001719  0.003392 -0.000315 -0.041305
                                 0.007800  0.151693  0.055423 -0.002094 -0.328581 -0.409805  0.056003  0.405042  0.537493  0.130301
                                -0.004618 -0.000000  0.000000 -0.000000  0.000000 -0.000000  0.000000 -0.000001  0.000002 -0.000006
                                 0.000021 -0.000115  0.002867 -0.004895  0.009685 -0.020722  0.036379 -0.049833  0.037000 -0.094244
                                 0.139702 -0.069797  0.065307  0.010122  0.036774 -0.085340 -0.171342 -0.028820  0.002085 -0.000000
                                -0.000000  0.000001  0.000000 -0.000004 -0.000000  0.000019  0.000000 -0.000112 -0.000000  0.001469
                                 0.000000 -0.001450 -0.000000  0.000684  0.000000  0.003027  0.000001  0.011482  0.000002 -0.128918
                                -0.000027  0.302931  0.000053 -1.136947 -0.000229  1.089030  0.000215 -0.381853 -0.000092 -0.100004
                                -0.000027 -0.081724  0.000010 -0.070160  0.000004 -0.001893  0.000001 -0.000464 -0.000000  0.000432
                                 0.000000  0.005728  0.000002  0.012860 -0.000003  0.005167 -0.000004  0.000843  0.000000 -0.000002
                                 0.001315  0.000000 -0.000005  0.001450  0.000000 -0.000004  0.000000 -0.000000  0.000001 -0.000004
                                 0.000044 -0.002071  0.005282 -0.007648 -0.027634 -0.018305  0.013719  0.001218  0.003281 -0.000112
                                -0.000943 -0.003337 -0.004746 -0.004628 -0.005323 -0.000119  0.000029 -0.000151 -0.000000 -0.000659
                                 0.000000 -0.000372 -0.000002 -0.000018 -0.000000  0.000177 -0.000000  0.000292  0.000001

   5.1   2    -0.1510   -6.7229  0.000000 -0.000000  0.000000 -0.000000  0.000000 -0.000000  0.000000 -0.000000  0.000000 -0.000001
                                 0.000001 -0.000004  0.000016 -0.000096  0.000319 -0.000355  0.000297 -0.000576  0.000059  0.006845
                                -0.001869 -0.022284 -0.025020  0.018160  0.040863  0.079884 -0.051787 -0.024219  0.004693  0.029304
                                -0.007085 -0.000000  0.000000 -0.000000  0.000000 -0.000000  0.000000 -0.000002  0.000006 -0.000018
                                 0.000065 -0.000345  0.007966 -0.013480  0.026718 -0.064771  0.122481 -0.155535  0.137747 -0.350221
                                 0.496869 -0.272121  0.149815 -0.008167  0.012646 -0.043160 -0.020406  0.009044 -0.004515 -0.000000
                                 0.000000  0.000000 -0.000000 -0.000002  0.000000  0.000010 -0.000000 -0.000057  0.000000  0.000799
                                -0.000000 -0.000845  0.000000  0.000421 -0.000000  0.000927 -0.000000  0.008246 -0.000001 -0.080444
                                 0.000006  0.211851 -0.000015 -0.738826  0.000054  0.696030 -0.000051 -0.196284  0.000017 -0.057024
                                 0.000002 -0.014877  0.000001 -0.022830  0.000002  0.010680  0.000000 -0.003356  0.000000 -0.001773
                                 0.000001 -0.006676  0.000002 -0.005844  0.000001  0.003609  0.000001  0.000432 -0.000000 -0.000000
                                -0.003467 -0.000000 -0.000002  0.000695 -0.000000  0.000000 -0.000000  0.000000 -0.000001  0.000005
                                -0.000085  0.005422 -0.018402  0.019573  0.091038  0.041589 -0.043348 -0.000280 -0.008224  0.009930
                                 0.085517  0.283600  0.432953  0.345195  0.054246  0.005755 -0.002609 -0.002026  0.000000 -0.006602
                                 0.000001 -0.021088  0.000002 -0.000207  0.000000 -0.001409 -0.000006  0.003888 -0.000005

   6.1   0    -0.1261   -6.2660 -0.000000  0.000000 -0.000000  0.000000 -0.000000  0.000000 -0.000000  0.000000 -0.000000  0.000000
                                -0.000000  0.000000 -0.000000  0.000000 -0.000000  0.000000 -0.000000  0.000000 -0.000001 -0.000001
                                -0.000003  0.000014 -0.000013  0.000015 -0.000023 -0.000018  0.000045  0.000032 -0.000073 -0.000083
                                -0.000006  0.000000 -0.000000  0.000000 -0.000000  0.000000 -0.000000  0.000000 -0.000000  0.000000
                                -0.000000  0.000000 -0.000005  0.000009 -0.000017  0.000038 -0.000069  0.000093 -0.000073  0.000187
                                -0.000275  0.000140 -0.000116 -0.000008 -0.000016  0.000084  0.000121  0.000050  0.000002 -0.000000
                                 0.000000  0.000000 -0.000002 -0.000000  0.000010  0.000000 -0.000049 -0.000000  0.000289  0.000002
                                -0.003789 -0.000002  0.003750  0.000001 -0.001759  0.000004 -0.007713  0.000013 -0.030695 -0.000146
                                 0.336712  0.000334 -0.790455 -0.001276  2.959930  0.001222 -2.830644 -0.000440  0.978655 -0.000101
                                 0.229475 -0.000103  0.202000 -0.000093  0.170563 -0.000028  0.027810 -0.000004  0.007310  0.000001
                                -0.002159  0.000008 -0.009585  0.000020 -0.032407  0.000010 -0.023857  0.000001  0.000002 -0.000942
                                 0.000004  0.000008 -0.002554  0.000002  0.000006 -0.004413 -0.000000  0.000000 -0.000000  0.000000
                                -0.000000  0.000002  0.000001  0.000006  0.000005  0.000020  0.000021 -0.000004 -0.000003 -0.000001
                                -0.000007 -0.000025 -0.000039 -0.000051 -0.000024 -0.000001  0.000000 -0.000000  0.000119  0.000000
                                 0.000996  0.000004 -0.000365  0.000000  0.000018  0.000000 -0.000179 -0.000001  0.000142

   7.1   0    -0.1116   -5.3117  0.000000 -0.000000  0.000000 -0.000000  0.000000 -0.000000  0.000000 -0.000000  0.000000 -0.000000
                                 0.000000 -0.000001  0.000003 -0.000019  0.000065 -0.000073  0.000062 -0.000117 -0.001059  0.007911
                                -0.006685 -0.009755 -0.032973  0.024183  0.029426  0.041769  0.050694  0.012557 -0.170298 -0.173566
                                -0.018475  0.000000 -0.000000  0.000000 -0.000000  0.000000 -0.000000  0.000002 -0.000006  0.000018
                                -0.000065  0.000352 -0.008827  0.015095 -0.029984  0.064170 -0.113526  0.157005 -0.118180  0.311083
                                -0.464145  0.231796 -0.213671 -0.019472 -0.040399  0.172894  0.271720  0.119719  0.005967 -0.000000
                                -0.000000  0.000001  0.000000 -0.000008 -0.000000  0.000037  0.000000 -0.000218 -0.000000  0.002801
                                 0.000002 -0.002708 -0.000002  0.001249  0.000001  0.006483  0.000004  0.021883  0.000016 -0.251233
                                -0.000180  0.575780  0.000422 -2.185105 -0.001578  2.088787  0.001508 -0.743215 -0.000520 -0.169456
                                -0.000120 -0.172350 -0.000111 -0.163196 -0.000098 -0.059702 -0.000022 -0.011918 -0.000005  0.002855
                                 0.000000  0.013892  0.000003  0.037351  0.000021  0.021810  0.000017  0.001276  0.000000 -0.000000
                                 0.004204  0.000000 -0.000002  0.000305  0.000000 -0.000001 -0.000000  0.000000 -0.000002  0.000013
                                -0.000094  0.002321  0.000723  0.008635  0.007107  0.027551  0.026276 -0.005434 -0.004190 -0.001266
                                -0.010763 -0.036627 -0.056672 -0.074237 -0.036431 -0.000937  0.000330 -0.000447 -0.000000 -0.000604
                                -0.000000  0.004968  0.000000 -0.000003  0.000000  0.000579  0.000001 -0.001504  0.000000

                                   1 2px     1 2px     1 2px     1 2px     1 2px     1 2px     1 2px     1 2px     1 2px     1 2px
                                   1 2px     1 2px     1 2px     1 2px     1 2px     1 2px     1 2px     1 2px     1 2px     1 2px
                                   1 2px     1 2px     1 2px     1 2px     1 2px     1 2px     1 2px     1 2px     1 3d1+    1 3d1+
                                   1 3d1+    1 3d1+    1 3d1+    1 3d1+    1 3d1+    1 3d1+    1 3d1+    1 3d1+    1 3d1+    1 3d1+
                                   1 3d1+    1 3d1+    1 3d1+    1 3d1+    1 3d1+    1 3d1+    1 3d1+    1 3d1+    1 4f1+    1 4f3+
                                   1 4f1+    1 4f3+    1 4f1+    1 4f3+    1 4f1+    1 4f3+    1 5g1+    1 5g3+    1 5g1+    1 5g3+
                                   1 5g1+    1 5g3+    2 2px     2 2px     2 2px     2 2px     2 2px     2 2px     2 2px     2 2px
                                   2 3d1+    2 3d1+    2 3d1+    2 3d1+    2 4f1+    2 4f3+    2 4f1+    2 4f3+

   1.2   2    -1.8054  -10.3648 -0.000000  0.000000 -0.000000  0.000000 -0.000000  0.000001 -0.000003  0.000009 -0.000029  0.000107
                                -0.000664  0.021032 -0.036855  0.072731 -0.108677  0.154769 -0.304785  0.118674 -0.444369  0.770791
                                -0.222854  0.608022  0.292337  0.030077  0.040390 -0.001275  0.001024 -0.000287 -0.000000  0.000000
                                -0.000000  0.000001 -0.000005  0.000084 -0.000105  0.000062 -0.000125  0.000550 -0.004199  0.014966
                                -0.049781  0.050469 -0.016056 -0.003811 -0.001744 -0.001334  0.000111 -0.000033 -0.002138  0.000007
                                -0.001705  0.000010 -0.000700  0.000001  0.000069 -0.000000 -0.000128  0.000000 -0.000435 -0.000000
                                 0.000190 -0.000000  0.000008  0.000070  0.000159  0.000316  0.000351 -0.000395 -0.000007 -0.000002
                                -0.000089 -0.000548 -0.000726 -0.000010  0.000006  0.000000  0.000351 -0.000000

   2.2   2    -0.1163   -6.4348  0.000000 -0.000000  0.000000 -0.000000  0.000000 -0.000000  0.000000 -0.000000  0.000001 -0.000003
                                 0.000019 -0.000657  0.001163 -0.002362  0.003299 -0.004187  0.009379 -0.002560  0.009505 -0.018588
                                 0.000468 -0.020374 -0.026678  0.010752  0.026615  0.040121 -0.000987  0.000489  0.000000 -0.000000
                                 0.000002 -0.000011  0.000063 -0.000791  0.000740 -0.000331 -0.002101 -0.006364  0.073991 -0.167279
                                 0.636049 -0.605335  0.218979  0.068510  0.056788  0.061874  0.001693 -0.000364  0.002448 -0.000000
                                 0.005765 -0.000000  0.016685  0.000002  0.008202  0.000000 -0.000445  0.000001  0.002747  0.000003
                                 0.002659  0.000002  0.009319  0.080016  0.266223  0.412559  0.339724  0.072887  0.005572 -0.002447
                                -0.001954 -0.006541 -0.018045 -0.000200 -0.001122 -0.000007  0.003688 -0.000006

   3.2   0    -0.1045   -5.6671  0.000000 -0.000000  0.000000 -0.000000  0.000000 -0.000000  0.000001 -0.000003  0.000011 -0.000040
                                 0.000226 -0.005973  0.010282 -0.020496  0.040637 -0.068757  0.101449 -0.067818  0.184139 -0.283993
                                 0.127188 -0.157906 -0.038446 -0.021569  0.161297  0.251781  0.100166  0.006880 -0.000000  0.000002
                                -0.000009  0.000043 -0.000252  0.003336 -0.003330  0.001572  0.006470  0.026914 -0.293399  0.691978
                                -2.581431  2.469439 -0.846896 -0.181293 -0.183597 -0.160891 -0.053599 -0.009735  0.002920 -0.000001
                                 0.012886 -0.000002  0.042371  0.000005  0.028927  0.000006  0.001186 -0.000001  0.004539 -0.000004
                                 0.003255 -0.000002  0.001966  0.016677  0.056448  0.089181  0.098706  0.057657  0.001451 -0.000514
                                -0.000013  0.000636 -0.006009 -0.000003 -0.000509 -0.000001  0.001406 -0.000001

   4.2   0    -0.0148   -3.7084 -0.000000  0.000000 -0.000000  0.000000 -0.000000  0.000000 -0.000000  0.000001 -0.000004  0.000014
                                -0.000048 -0.000224  0.000718 -0.002065 -0.008579  0.026343 -0.006958  0.034602 -0.049562  0.025479
                                -0.052054 -0.092094 -0.124608  0.049652  0.107835  0.328556  0.267576  0.334640  0.000000 -0.000001
                                 0.000006 -0.000027  0.000158 -0.002107  0.002123 -0.001011 -0.003877 -0.016763  0.182466 -0.431864
                                 1.607418 -1.538571  0.528145  0.123392  0.076722 -0.006458 -0.109020 -0.193291 -0.003520 -0.000000
                                -0.013488 -0.000000 -0.045859  0.000008 -0.040788  0.000015 -0.000589  0.000001 -0.002260  0.000003
                                -0.007609 -0.000001 -0.001751 -0.014831 -0.050681 -0.079580 -0.089870 -0.045797 -0.001372  0.000456
                                -0.000162 -0.001234  0.002674 -0.000011  0.000352  0.000001 -0.000625  0.000000

                                   1 2py     1 2py     1 2py     1 2py     1 2py     1 2py     1 2py     1 2py     1 2py     1 2py
                                   1 2py     1 2py     1 2py     1 2py     1 2py     1 2py     1 2py     1 2py     1 2py     1 2py
                                   1 2py     1 2py     1 2py     1 2py     1 2py     1 2py     1 2py     1 2py     1 3d1-    1 3d1-
                                   1 3d1-    1 3d1-    1 3d1-    1 3d1-    1 3d1-    1 3d1-    1 3d1-    1 3d1-    1 3d1-    1 3d1-
                                   1 3d1-    1 3d1-    1 3d1-    1 3d1-    1 3d1-    1 3d1-    1 3d1-    1 3d1-    1 4f1-    1 4f3-
                                   1 4f1-    1 4f3-    1 4f1-    1 4f3-    1 4f1-    1 4f3-    1 5g1-    1 5g3-    1 5g1-    1 5g3-
                                   1 5g1-    1 5g3-    2 2py     2 2py     2 2py     2 2py     2 2py     2 2py     2 2py     2 2py
                                   2 3d1-    2 3d1-    2 3d1-    2 3d1-    2 4f1-    2 4f3-    2 4f1-    2 4f3-

   1.3   2    -1.8054  -10.3647 -0.000000  0.000000 -0.000000  0.000000 -0.000000  0.000001 -0.000003  0.000009 -0.000029  0.000107
                                -0.000664  0.021031 -0.036855  0.072729 -0.108674  0.154764 -0.304778  0.118669 -0.444352  0.770769
                                -0.222842  0.608003  0.292324  0.030096  0.040406 -0.001273  0.001024 -0.000286 -0.000000  0.000000
                                -0.000000  0.000001 -0.000005  0.000084 -0.000105  0.000062 -0.000125  0.000550 -0.004204  0.014977
                                -0.049825  0.050512 -0.016073 -0.003816 -0.001745 -0.001336  0.000110 -0.000033 -0.002129  0.000007
                                -0.001689  0.000010 -0.000690  0.000000  0.000069 -0.000000 -0.000128  0.000000 -0.000434  0.000000
                                 0.000191 -0.000000  0.000008  0.000071  0.000160  0.000318  0.000352 -0.000396 -0.000007 -0.000002
                                -0.000089 -0.000549 -0.000727 -0.000010  0.000006  0.000000  0.000351 -0.000000

   2.3   2    -0.1163   -6.4340  0.000000 -0.000000  0.000000 -0.000000  0.000000 -0.000000  0.000000 -0.000000  0.000001 -0.000003
                                 0.000019 -0.000657  0.001163 -0.002362  0.003297 -0.004180  0.009374 -0.002552  0.009490 -0.018576
                                 0.000456 -0.020387 -0.026692  0.010755  0.026633  0.040198 -0.000970  0.000490  0.000000 -0.000000
                                 0.000002 -0.000011  0.000064 -0.000795  0.000744 -0.000333 -0.002111 -0.006399  0.074387 -0.168206
                                 0.639545 -0.608684  0.220146  0.068792  0.057050  0.062128  0.001717 -0.000358  0.002453 -0.000000
                                 0.005771 -0.000000  0.016696  0.000001  0.008219  0.000000 -0.000446  0.000001  0.002746  0.000003
                                 0.002667  0.000002  0.009311  0.079948  0.266001  0.412252  0.339610  0.072966  0.005568 -0.002445
                                -0.001956 -0.006552 -0.018056 -0.000200 -0.001124 -0.000007  0.003685 -0.000006

   3.3   0    -0.1044   -5.6651  0.000000 -0.000000  0.000000 -0.000000  0.000000 -0.000000  0.000001 -0.000003  0.000011 -0.000041
                                 0.000226 -0.005980  0.010294 -0.020521  0.040681 -0.068828  0.101565 -0.067885  0.184333 -0.284307
                                 0.127312 -0.158114 -0.038528 -0.021589  0.161475  0.252174  0.100435  0.006916 -0.000000  0.000002
                                -0.000009  0.000043 -0.000252  0.003334 -0.003328  0.001571  0.006465  0.026896 -0.293206  0.691526
                                -2.579727  2.467805 -0.846321 -0.181136 -0.183464 -0.160760 -0.053605 -0.009731  0.002922 -0.000001
                                 0.012887 -0.000002  0.042377  0.000005  0.028940  0.000006  0.001185 -0.000001  0.004536 -0.000004
                                 0.003253 -0.000002  0.001972  0.016729  0.056619  0.089464  0.099007  0.057847  0.001454 -0.000515
                                -0.000015  0.000628 -0.006023 -0.000004 -0.000509 -0.000001  0.001407 -0.000001

   4.3   0    -0.0147   -3.7081 -0.000000  0.000000 -0.000000  0.000000 -0.000000  0.000000 -0.000000  0.000001 -0.000004  0.000014
                                -0.000050 -0.000186  0.000653 -0.001939 -0.008887  0.026919 -0.007660  0.035210 -0.051010  0.027481
                                -0.053147 -0.091470 -0.124975  0.050133  0.107392  0.328149  0.266953  0.335503  0.000000 -0.000001
                                 0.000006 -0.000027  0.000158 -0.002111  0.002128 -0.001014 -0.003877 -0.016797  0.182750 -0.432611
                                 1.609897 -1.540921  0.528788  0.123355  0.076909 -0.006494 -0.108959 -0.193810 -0.003524 -0.000000
                                -0.013498 -0.000000 -0.045889  0.000008 -0.040804  0.000016 -0.000589  0.000001 -0.002262  0.000003
                                -0.007612 -0.000001 -0.001755 -0.014867 -0.050804 -0.079782 -0.090100 -0.045913 -0.001375  0.000457
                                -0.000160 -0.001228  0.002679 -0.000011  0.000353  0.000001 -0.000627  0.000000

                                   1 3d2-    1 3d2-    1 3d2-    1 3d2-    1 3d2-    1 3d2-    1 3d2-    1 3d2-    1 3d2-    1 3d2-
                                   1 3d2-    1 3d2-    1 3d2-    1 3d2-    1 3d2-    1 3d2-    1 3d2-    1 3d2-    1 3d2-    1 3d2-
                                   1 4f2-    1 4f2-    1 4f2-    1 4f2-    1 5g2-    1 5g4-    1 5g2-    1 5g4-    1 5g2-    1 5g4-
                                   2 3d2-    2 3d2-    2 3d2-    2 3d2-    2 4f2-    2 4f2-

   1.4   0    -0.1261   -6.2660  0.000000 -0.000002  0.000010 -0.000049  0.000289 -0.003789  0.003750 -0.001759 -0.007713 -0.030695
                                 0.336712 -0.790455  2.959930 -2.830644  0.978655  0.229475  0.202000  0.170563  0.027810  0.007310
                                -0.002159 -0.009585 -0.032407 -0.023857 -0.000942  0.000002 -0.002554  0.000008 -0.004413  0.000006
                                 0.000119  0.000996 -0.000365  0.000018 -0.000179  0.000142

   2.4   0     0.0377   -1.6053 -0.000001  0.000005 -0.000025  0.000115 -0.000591  0.010412 -0.013183  0.007071 -0.012273  0.091638
                                -0.620976  1.774905 -5.414191  5.108856 -1.119808  0.410809 -0.486495  0.361620 -0.465912  1.202579
                                 0.000796 -0.002430  0.013378 -0.070475  0.000074 -0.000000  0.000381 -0.000001 -0.000221  0.000002
                                 0.000058  0.000116  0.001192  0.000003  0.000104 -0.000471

 HOMO      2.2    -0.116325 =      -3.1654eV
 LUMO      6.1    -0.126139 =      -3.4324eV
 LUMO-HOMO        -0.009814 =      -0.2670eV

 No convergence



 **********************************************************************************************************************************
 DATASETS  * FILE   NREC   LENGTH (MB)   RECORD NAMES
              1      19       21.49       500      610      700      900      950      970     1000      129      960     1100
                                          VAR    BASINP    GEOM    SYMINP    ZMAT    AOBASIS   BASIS     P2S    ABASIS      S
                                         1400     1410     1420     1200     1210     1080     1600     1650     1700
                                           T        V       ECP      H0       H01     AOSYM     SMH    MOLCAS    OPER

              2       4        3.53       700     1000      520     2100
                                         GEOM     BASIS   MCVARS     RHF

 PROGRAMS   *        TOTAL       RHF       INT
 CPU TIMES  *       100.64     38.55     61.76
 REAL TIME  *       107.25 SEC
 DISK USED  *         4.26 GB
 SF USED    *         0.14 MB
 GA USED    *         0.00 MB       (max)       0.00 MB       (current)
 **********************************************************************************************************************************
   -->
   <time start="16:45:01" end="16:46:48" cpu="100.64" system="5.8" real="107.25"/>
   <storage units="megabyte" memory="8001.84" sf="0.14" df="304.71" eaf="3956.72" ga="0.0"/>
  </jobstep><!--
 SETTING SCF            =       -61.77294584  AU
 SETTING _CC_NORM_MAX   =         2.00000000
  --><jobstep command="RCCSD(T)" commandset="CCSD">
   <!--


 PROGRAM * CCSD (Restricted open-shell coupled cluster)     Authors: C. Hampel, H.-J. Werner, 1991, M. Deegan, P.J. Knowles, 1992


 Convergence thresholds:  THRVAR = 1.00D-08  THRDEN = 1.00D-06

 CCSD(T)     terms to be evaluated (factor= 1.000)


 Number of closed-shell orbitals:   9 (   5   2   2   0 )
 Number of external orbitals:     332 ( 144  76  76  36 )

 Memory could be reduced to 159.67 Mwords without degradation in triples

 Number of N-1 electron functions:              18
 Number of N-2 electron functions:             153
 Number of singly external CSFs:              2048
 Number of doubly external CSFs:           3411936
 Total number of CSFs:                     3413984

 Molecular orbitals read from record     2100.2  Type=RHF/CANONICAL (state 1.1)

 ?Error: RHF not converged. This error exit can be avoided using the IGNORE_ERROR option on the ORBITAL directive
   --><error/><!--
  --></jobstep><!--
  -->
  <input>
  <!--
 --></job><!--
--></molpro>
