<?xml version="1.0"?>
<molpro xmlns="http://www.molpro.net/schema/molpro-output"
  xmlns:xsd="http://www.w3.org/1999/XMLSchema"
  xmlns:cml="http://www.xml-cml.org/schema"
  xmlns:stm="http://www.xml-cml.org/schema"
  xmlns:xhtml="http://www.w3.org/1999/xhtml">
 <!--

 Nodes     nprocs
 nid01825    11
 Number of processes for MPI-2 version of Molpro:   nprocs(total)=   12   nprocs(compute)=   11   nprocs(helper)=    1

 Using customized tuning parameters: mindgm=7; mindgv=16; mindgc=1; mindgr=1; noblas=0; minvec=7
 default implementation of scratch files=sf

 --><job>
  <!--

 Variables initialized (889), CPU time= 0.02 sec
 Commands  initialized (702), CPU time= 0.01 sec, 572 directives.
 Default parameters read. Elapsed time= 0.13 sec

 Checking input...
 Passed
1


                                         ***  PROGRAM SYSTEM MOLPRO  ***
                                       Copyright, TTI GmbH Stuttgart, 2015
                                    Version 2015.1 linked Dec 29 2018 15:55:43


 **********************************************************************************************************************************
 LABEL *   Calculation for Lu atom, singlet and triplet
  64 bit mpp version                                                                     DATE: 31-Mar-23          TIME: 18:09:01
 **********************************************************************************************************************************

 SHA1:             19cd028119e0e09f93f0674bd8af7968d9b3eff6
 **********************************************************************************************************************************
  -->
  <!--

 THRESHOLDS:

 ZERO    =  1.00D-12  ONEINT  =  1.00D-12  TWOINT  =  1.00D-15  PREFAC  =  1.00D-14  LOCALI  =  1.00D-09  EORDER  =  1.00D-04
 ENERGY  =  0.00D+00  ETEST   =  0.00D+00  EDENS   =  0.00D+00  THRDEDEF=  1.00D-06  GRADIENT=  1.00D-02  STEP    =  1.00D-03
 ORBITAL =  1.00D-05  CIVEC   =  1.00D-05  COEFF   =  1.00D-04  PRINTCI =  5.00D-02  PUNCHCI =  9.90D+01  OPTGRAD =  3.00D-04
 OPTENERG=  1.00D-06  OPTSTEP =  3.00D-04  THRGRAD =  1.00D-10  COMPRESS=  1.00D-11  VARMIN  =  1.00D-07  VARMAX  =  1.00D-03
 THRDOUB =  0.00D+00  THRDIV  =  1.00D-05  THRRED  =  1.00D-07  THRPSP  =  1.00D+00  THRDC   =  1.00D-10  THRCS   =  1.00D-10
 THRNRM  =  1.00D-08  THREQ   =  0.00D+00  THRDE   =  1.00D+00  THRREF  =  1.00D-05  SPARFAC =  1.00D+00  THRDLP  =  1.00D-07
 THRDIA  =  1.00D-10  THRDLS  =  1.00D-07  THRGPS  =  0.00D+00  THRKEX  =  0.00D+00  THRDIS  =  2.00D-01  THRVAR  =  1.00D-10
 THRLOC  =  1.00D-06  THRGAP  =  1.00D-06  THRLOCT = -1.00D+00  THRGAPT = -1.00D+00  THRORB  =  1.00D-06  THRMLTP =  0.00D+00
 THRCPQCI=  1.00D-10  KEXTA   =  0.00D+00  THRCOARS=  0.00D+00  SYMTOL  =  1.00D-06  GRADTOL =  1.00D-06  THROVL  =  1.00D-08
 THRORTH =  1.00D-08  GRID    =  1.00D-06  GRIDMAX =  1.00D-03  DTMAX   =  0.00D+00  THROCCDE=  1.00D-01  THROCCDE=  1.00D-01



 THRESHOLDS:

 ZERO    =  1.00D-12  ONEINT  =  1.00D-15  TWOINT  =  1.00D-15  PREFAC  =  1.00D-14  LOCALI  =  1.00D-09  EORDER  =  1.00D-04
 ENERGY  =  0.00D+00  ETEST   =  0.00D+00  EDENS   =  0.00D+00  THRDEDEF=  1.00D-06  GRADIENT=  1.00D-02  STEP    =  1.00D-03
 ORBITAL =  1.00D-05  CIVEC   =  1.00D-05  COEFF   =  1.00D-04  PRINTCI =  5.00D-02  PUNCHCI =  9.90D+01  OPTGRAD =  3.00D-04
 OPTENERG=  1.00D-06  OPTSTEP =  3.00D-04  THRGRAD =  1.00D-10  COMPRESS=  1.00D-11  VARMIN  =  1.00D-07  VARMAX  =  1.00D-03
 THRDOUB =  0.00D+00  THRDIV  =  1.00D-05  THRRED  =  1.00D-07  THRPSP  =  1.00D+00  THRDC   =  1.00D-10  THRCS   =  1.00D-10
 THRNRM  =  1.00D-08  THREQ   =  0.00D+00  THRDE   =  1.00D+00  THRREF  =  1.00D-05  SPARFAC =  1.00D+00  THRDLP  =  1.00D-07
 THRDIA  =  1.00D-10  THRDLS  =  1.00D-07  THRGPS  =  0.00D+00  THRKEX  =  0.00D+00  THRDIS  =  2.00D-01  THRVAR  =  1.00D-10
 THRLOC  =  1.00D-06  THRGAP  =  1.00D-06  THRLOCT = -1.00D+00  THRGAPT = -1.00D+00  THRORB  =  1.00D-06  THRMLTP =  0.00D+00
 THRCPQCI=  1.00D-10  KEXTA   =  0.00D+00  THRCOARS=  0.00D+00  SYMTOL  =  1.00D-06  GRADTOL =  1.00D-06  THROVL  =  1.00D-08
 THRORTH =  1.00D-08  GRID    =  1.00D-06  GRIDMAX =  1.00D-03  DTMAX   =  0.00D+00  THROCCDE=  1.00D-01  THROCCDE=  1.00D-01



Geometry recognized as XYZ


 Variable memory set to 1000000000 words,  buffer space   230000 words

 SETTING BASIS          =    USERDEF

 DO I                   =         2.00000000

 Running procedure=IP1S2
  --><jobstep command="RHF-SCF" commandset="SCFPRO">
   <!--


 Recomputing integrals since basis changed


 Using spherical harmonics



 PROGRAM * SEWARD (Integral evaluation for generally contracted gaussian basis sets)     Author: Roland Lindh, 1990

 Geometry written to block  1 of record 700

 Orientation using atomic masses
 Molecule type: Atom
 Symmetry elements: X,Y,Z
 Rotational constants:       0.0000000      0.0000000      0.0000000 GHz  (calculated with average atomic masses)

 Point group  D2h


   --><cml:molecule>
    <cml:symmetry pointGroup="D2h"/>
    <cml:atomArray>
     <cml:atom id="a1" elementType="Lu" x3="0.0" y3="0.0" z3="0.0"/>
    </cml:atomArray>
    <cml:bondArray>
    </cml:bondArray>
   </cml:molecule><!--

 ATOMIC COORDINATES

 NR  ATOM    CHARGE       X              Y              Z

   1  LU     25.00    0.000000000    0.000000000    0.000000000

 NUCLEAR CHARGE:                   25
 NUMBER OF PRIMITIVE AOS:         581
 NUMBER OF SYMMETRY AOS:          442
 NUMBER OF CONTRACTIONS:          442   ( 103Ag  +  70B3u +  70B2u +  36B1g +  70B1u +  36B2g +  36B3g +  21Au  )
 NUMBER OF CORE ORBITALS:           0   (   0Ag  +   0B3u +   0B2u +   0B1g +   0B1u +   0B2g +   0B3g +   0Au  )
 NUMBER OF VALENCE ORBITALS:       17   (   4Ag  +   3B3u +   3B2u +   1B1g +   3B1u +   1B2g +   1B3g +   1Au  )


 NUCLEAR REPULSION ENERGY    0.00000000

 EXTRA SYMMETRY OF AOS IN SYMMETRY 1:   1 1 1 1 1 1 1 1 1 1   1 1 1 1 1 1 1 1 1 1   1 1 1 1 1 1 1 1 1 1   1 1 1 1 1 1 1 1 2 3
                                        2 3 2 3 2 3 2 3 2 3   2 3 2 3 2 3 2 3 2 3   2 3 2 3 2 3 2 3 2 3   2 3 2 3 2 3 2 3 2 3
                                        2 3 4 5 6 4 5 6 4 5   6 4 5 6 4 5 6 4 5 6   4 5 6
 EXTRA SYMMETRY OF AOS IN SYMMETRY 2:   1 1 1 1 1 1 1 1 1 1   1 1 1 1 1 1 1 1 1 1   1 1 1 1 1 1 1 1 1 1   1 2 3 2 3 2 3 2 3 2
                                        3 2 3 2 3 2 3 2 3 2   3 2 3 2 3 2 3 2 3 2   3 4 5 6 4 5 6 4 5 6
 EXTRA SYMMETRY OF AOS IN SYMMETRY 3:   1 1 1 1 1 1 1 1 1 1   1 1 1 1 1 1 1 1 1 1   1 1 1 1 1 1 1 1 1 1   1 2 3 2 3 2 3 2 3 2
                                        3 2 3 2 3 2 3 2 3 2   3 2 3 2 3 2 3 2 3 2   3 4 5 6 4 5 6 4 5 6
 EXTRA SYMMETRY OF AOS IN SYMMETRY 4:   1 1 1 1 1 1 1 1 1 1   1 1 1 1 1 1 1 1 1 1   1 1 2 3 2 3 2 3 2 3   2 3 2 3 2 3
 EXTRA SYMMETRY OF AOS IN SYMMETRY 5:   1 1 1 1 1 1 1 1 1 1   1 1 1 1 1 1 1 1 1 1   1 1 1 1 1 1 1 1 1 1   1 2 3 2 3 2 3 2 3 2
                                        3 2 3 2 3 2 3 2 3 2   3 2 3 2 3 2 3 2 3 2   3 4 5 6 4 5 6 4 5 6
 EXTRA SYMMETRY OF AOS IN SYMMETRY 6:   1 1 1 1 1 1 1 1 1 1   1 1 1 1 1 1 1 1 1 1   1 1 2 3 2 3 2 3 2 3   2 3 2 3 2 3
 EXTRA SYMMETRY OF AOS IN SYMMETRY 7:   1 1 1 1 1 1 1 1 1 1   1 1 1 1 1 1 1 1 1 1   1 1 2 3 2 3 2 3 2 3   2 3 2 3 2 3
 EXTRA SYMMETRY OF AOS IN SYMMETRY 8:   1 1 1 1 1 1 1 1 1 1   1 1 1 1 1 2 3 2 3 2   3

 Eigenvalues of metric

         1 0.333E-06 0.964E-06 0.340E-05 0.186E-04 0.475E-04 0.703E-04 0.799E-04 0.799E-04
         2 0.960E-06 0.179E-05 0.251E-04 0.110E-03 0.525E-03 0.525E-03 0.534E-03 0.156E-02
         3 0.960E-06 0.179E-05 0.251E-04 0.110E-03 0.525E-03 0.525E-03 0.534E-03 0.156E-02
         4 0.799E-04 0.144E-03 0.223E-02 0.632E-02 0.897E-02 0.238E-01 0.240E-01 0.240E-01
         5 0.960E-06 0.179E-05 0.251E-04 0.110E-03 0.525E-03 0.525E-03 0.534E-03 0.156E-02
         6 0.799E-04 0.144E-03 0.223E-02 0.632E-02 0.897E-02 0.238E-01 0.240E-01 0.240E-01
         7 0.799E-04 0.144E-03 0.223E-02 0.632E-02 0.897E-02 0.238E-01 0.240E-01 0.240E-01
         8 0.525E-03 0.142E-01 0.219E-01 0.528E-01 0.103E+00 0.167E+00 0.268E+00 0.268E+00


 Contracted 2-electron integrals neglected if value below      1.0D-15
 AO integral compression algorithm  1   Integral accuracy      1.0D-15

     3531.604 MB (compressed) written to integral file ( 42.0%)

     Node minimum: 184.287 MB, node maximum: 419.955 MB


 NUMBER OF SORTED TWO-ELECTRON INTEGRALS:   55865977.     BUFFER LENGTH:  32768
 NUMBER OF SEGMENTS:   2  SEGMENT LENGTH:   31980199      RECORD LENGTH: 524288

 Memory used in sort:      32.54 MW

 SORT1 READ  1050599776. AND WROTE    31907181. INTEGRALS IN     92 RECORDS. CPU TIME:    25.64 SEC, REAL TIME:    30.16 SEC
 SORT2 READ   352987961. AND WROTE   613618504. INTEGRALS IN  15554 RECORDS. CPU TIME:     2.98 SEC, REAL TIME:     5.43 SEC

 Node minimum:    55639389.  Node maximum:    55868715. integrals

 OPERATOR DM      FOR CENTER  0  COORDINATES:    0.000000    0.000000    0.000000


 **********************************************************************************************************************************
 DATASETS  * FILE   NREC   LENGTH (MB)   RECORD NAMES
              1      19       21.26       500      610      700      900      950      970     1000      129      960     1100
                                          VAR    BASINP    GEOM    SYMINP    ZMAT    AOBASIS   BASIS     P2S    ABASIS      S
                                         1400     1410     1420     1200     1210     1080     1600     1650     1700
                                           T        V       ECP      H0       H01     AOSYM     SMH    MOLCAS    OPER

 PROGRAMS   *        TOTAL       INT
 CPU TIMES  *       160.26    159.88
 REAL TIME  *       169.66 SEC
 DISK USED  *         7.77 GB
 GA USED    *         0.00 MB       (max)       0.00 MB       (current)
 **********************************************************************************************************************************


 PROGRAM * RHF-SCF (CLOSED SHELL)       Authors: W. Meyer, H.-J. Werner


 NUMBER OF ELECTRONS:      12+   12-    SPACE SYMMETRY=1    SPIN SYMMETRY: Singlet
 CONVERGENCE THRESHOLDS:    1.00E-05 (Density)    1.00E-07 (Energy)
 MAX. NUMBER OF ITERATIONS:      150
 INTERPOLATION TYPE:            DIIS
 INTERPOLATION STEPS:              2 (START)      1 (STEP)
 LEVEL SHIFTS:                 -5.00 (CLOSED) -3.00 (OPEN)

 Number of closed-shell orbitals:   12 (   2   3   3   0   3   0   0   1 )



 Extra symmetries of mos in symmetry 2:   3   2   1   1
 Extra symmetries of mos in symmetry 3:   3   2   1   1
 Extra symmetries of mos in symmetry 5:   3   2   1   1
 Guess basis ATOMIC-GUESS,LU=ECP46_GUESS not found. No density guess!


 Molecular orbital dump at record        3202.2

 ITERATION    DDIFF          GRAD             ENERGY        2-EL.EN.            DIPOLE MOMENTS         DIIS   ORB.
    1      0.000D+00      0.000D+00      -143.14051085    479.907764    0.00000    0.00000    0.00000    0    start
    2      0.000D+00      0.352D+00      -177.63826491    372.479819    0.00000    0.00000    0.00000    0    diag
    3      0.191D+00      0.994D-01      -180.83691551    343.563762    0.00000    0.00000    0.00000    1    diag
    4      0.688D-01      0.420D-01      -181.61197287    328.071921    0.00000    0.00000    0.00000    2    diag
    5      0.257D-01      0.189D-01      -181.83685514    321.877541    0.00000    0.00000    0.00000    3    diag
    6      0.277D-01      0.883D-02      -181.91167062    318.015290    0.00000    0.00000    0.00000    4    diag
    7      0.224D-01      0.464D-02      -181.93138657    317.874269    0.00000    0.00000    0.00000    5    diag
    8      0.101D-01      0.332D-02      -181.95088809    315.149050    0.00000    0.00000    0.00000    6    diag
    9      0.979D-02      0.173D-02      -181.95154529    316.354564    0.00000    0.00000    0.00000    7    diag
   10      0.105D-01      0.153D-02      -181.95518321    315.420892    0.00000    0.00000    0.00000    8    orth
   11      0.636D-02      0.816D-03      -181.95600252    315.465988    0.00000    0.00000    0.00000    9    diag
   12      0.408D-02      0.718D-03      -181.95720061    315.140344    0.00000    0.00000    0.00000   10    diag
   13      0.447D-02      0.468D-03      -181.95769855    314.814440    0.00000    0.00000    0.00000   11    diag
   14      0.313D-02      0.288D-03      -181.95790928    314.762572    0.00000    0.00000    0.00000   12    diag
   15      0.335D-02      0.234D-03      -181.95806996    314.775168    0.00000    0.00000    0.00000   13    diag
   16      0.237D-02      0.197D-03      -181.95817395    314.801236    0.00000    0.00000    0.00000   14    diag
   17      0.948D-03      0.181D-03      -181.95831483    314.744317    0.00000    0.00000    0.00000   15    diag
   18      0.111D-02      0.162D-03      -181.95844730    314.775022    0.00000    0.00000    0.00000   16    diag
   19      0.145D-02      0.154D-03      -181.95853322    314.709793    0.00000    0.00000    0.00000   17    fixocc
   20      0.326D-03      0.142D-03      -181.95866553    314.782487    0.00000    0.00000    0.00000   18    orth
   21      0.307D-02      0.158D-03      -181.95872633    314.771112    0.00000    0.00000    0.00000   19    diag
   22      0.165D-03      0.147D-03      -181.95903359    314.664013    0.00000    0.00000    0.00000   20    diag
   23      0.197D-02      0.888D-04      -181.95911707    314.741457    0.00000    0.00000    0.00000   21    diag
   24      0.872D-03      0.122D-03      -181.95920256    314.658104    0.00000    0.00000    0.00000   22    diag
   25      0.500D-03      0.690D-04      -181.95920534    314.651643    0.00000    0.00000    0.00000   23    diag
   26      0.140D-02      0.642D-04      -181.95922220    314.631198    0.00000    0.00000    0.00000   24    diag
   27      0.168D-03      0.476D-04      -181.95923399    314.598924    0.00000    0.00000    0.00000   25    diag
   28      0.464D-03      0.316D-04      -180.86605025    270.381447    0.00000    0.00000    0.00000   26    diag
   29      0.226D-01      0.307D-01      -180.86601665    270.380746    0.00000    0.00000    0.00000   27    diag
   30      0.482D-04      0.307D-01      -181.95923977    314.605547    0.00000    0.00000    0.00000   28    orth
   31      0.226D-01      0.394D-04      -181.95924437    314.588092    0.00000    0.00000    0.00000   29    diag
   32      0.182D-03      0.239D-04      -181.95924776    314.571914    0.00000    0.00000    0.00000   30    diag
   33      0.139D-03      0.223D-04      -181.95925066    314.578980    0.00000    0.00000    0.00000   31    diag
   34      0.189D-03      0.193D-04      -181.95925360    314.583141    0.00000    0.00000    0.00000   32    diag
   35      0.231D-03      0.180D-04      -181.95925617    314.580062    0.00000    0.00000    0.00000   33    diag
   36      0.181D-03      0.157D-04      -181.95925825    314.572355    0.00000    0.00000    0.00000   34    diag
   37      0.164D-03      0.115D-04      -181.95925953    314.562429    0.00000    0.00000    0.00000   35    diag
   38      0.127D-03      0.753D-05      -181.95926004    314.561086    0.00000    0.00000    0.00000   36    diag
   39      0.173D-03      0.477D-05      -181.95926010    314.558216    0.00000    0.00000    0.00000   37    diag
   40      0.732D-04      0.534D-05      -181.95926013    314.560156    0.00000    0.00000    0.00000   38    orth
   41      0.321D-04      0.318D-05      -181.95926017    314.561588    0.00000    0.00000    0.00000   39    diag
   42      0.580D-04      0.185D-05      -181.95926018    314.561053    0.00000    0.00000    0.00000   40    diag
   43      0.422D-04      0.199D-05      -181.95926019    314.562402    0.00000    0.00000    0.00000   41    diag
   44      0.285D-04      0.112D-05      -181.95926019    314.563226    0.00000    0.00000    0.00000   42    diag
   45      0.143D-04      0.155D-05      -181.95926020    314.563173    0.00000    0.00000    0.00000   43    diag
   46      0.776D-05      0.127D-05      -181.95926020    314.562864    0.00000    0.00000    0.00000    0    orth

 Final occupancy:   2   3   3   0   3   0   0   1

 !RHF STATE 1.1 Energy               -181.959260198365
   --><property name="Energy" method="RHF" principal="true" stateSymmetry="1" stateNumber="1"
     value="-181.959260198365"/><!--
 Nuclear energy                         0.00000000
 One-electron energy                 -339.24069231
 Two-electron energy                  157.28143211
 Virial quotient                       -1.87377705
 !RHF STATE 1.1 Dipole moment           0.00000000     0.00000000     0.00000000
 Dipole moment /Debye                   0.00000000     0.00000000     0.00000000
   --><property name="Dipole moment" method="RHF" principal="true" stateSymmetry="1"
     stateNumber="1" value="0.0 0.0 0.0"/><!--

 ELECTRON ORBITALS
 =================


   Orb  Occ    Energy  Couls-En    Coefficients

                                   1 1s      1 1s      1 1s      1 1s      1 1s      1 1s      1 1s      1 1s      1 1s      1 1s
                                   1 1s      1 1s      1 1s      1 1s      1 1s      1 1s      1 1s      1 1s      1 1s      1 1s
                                   1 1s      1 1s      1 1s      1 1s      1 1s      1 1s      1 1s      1 1s      1 1s      1 1s
                                   1 1s      1 1s      1 1s      1 1s      1 1s      1 1s      1 1s      1 1s      1 3d0     1 3d2+
                                   1 3d0     1 3d2+    1 3d0     1 3d2+    1 3d0     1 3d2+    1 3d0     1 3d2+    1 3d0     1 3d2+
                                   1 3d0     1 3d2+    1 3d0     1 3d2+    1 3d0     1 3d2+    1 3d0     1 3d2+    1 3d0     1 3d2+
                                   1 3d0     1 3d2+    1 3d0     1 3d2+    1 3d0     1 3d2+    1 3d0     1 3d2+    1 3d0     1 3d2+
                                   1 3d0     1 3d2+    1 3d0     1 3d2+    1 3d0     1 3d2+    1 3d0     1 3d2+    1 3d0     1 3d2+
                                   1 3d0     1 3d2+    1 5g0     1 5g4+    1 5g2+    1 5g0     1 5g4+    1 5g2+    1 5g0     1 5g4+
                                   1 5g2+    1 5g0     1 5g4+    1 5g2+    1 5g0     1 5g4+    1 5g2+    1 5g0     1 5g4+    1 5g2+
                                   1 5g0     1 5g4+    1 5g2+

   1.1   2    -2.9361  -19.3238 -0.000000  0.000000 -0.000000  0.000000 -0.000000  0.000000 -0.000000  0.000000 -0.000000  0.000000
                                -0.000000  0.000001 -0.000002  0.000009 -0.000062 -0.000285  0.000317 -0.000808  0.002841  0.000232
                                -0.015500  0.168211 -0.256183  0.069998  0.455368 -0.886165 -0.370850  1.127370  0.408121  0.100719
                                -0.072072  0.105115 -0.158091  0.118437 -0.046715  0.018030 -0.004662  0.000831  0.000000 -0.000000
                                -0.000000  0.000000  0.000000 -0.000000 -0.000000  0.000000  0.000001 -0.000001 -0.000002  0.000003
                                 0.000005 -0.000009 -0.000017  0.000031  0.000098 -0.000164 -0.000265  0.000423  0.000256 -0.000405
                                 0.000065  0.000084 -0.002429  0.001692  0.010039 -0.007415  0.002745 -0.001802 -0.001753  0.001139
                                 0.005202 -0.003329 -0.007401  0.004728  0.003683 -0.002350 -0.000735  0.000468  0.000266 -0.000169
                                -0.000071  0.000045  0.000005  0.000014 -0.000007 -0.000041 -0.000136  0.000063  0.000186  0.000425
                                -0.000236  0.001454  0.004829 -0.002201 -0.001265 -0.004124  0.001896  0.000502  0.001630 -0.000751
                                -0.000164 -0.000532  0.000245

   2.1   2    -0.8258  -13.0642  0.000000 -0.000000  0.000000 -0.000000  0.000000 -0.000000  0.000000 -0.000000  0.000000 -0.000000
                                 0.000000 -0.000001  0.000001 -0.000005  0.000027  0.000087 -0.000060  0.000084 -0.000137 -0.000083
                                 0.000212  0.000456 -0.001282 -0.001155  0.012792 -0.024752 -0.002369  0.033317  0.003208 -0.007191
                                -0.011128  0.000073 -0.004001  0.003370 -0.001502  0.000617 -0.000167  0.000030  0.000000 -0.000000
                                -0.000000  0.000001  0.000001 -0.000003 -0.000004  0.000012  0.000015 -0.000044 -0.000047  0.000137
                                 0.000138 -0.000408 -0.000431  0.001270  0.002082 -0.006134 -0.005052  0.014886  0.004817 -0.014190
                                -0.006124  0.018041  0.041282 -0.121617 -0.150153  0.442584 -0.186854  0.548932 -0.052575  0.153740
                                -0.004585  0.016158  0.011687 -0.037886 -0.009343  0.029239  0.002753 -0.008449 -0.001139  0.003480
                                 0.000324 -0.000987 -0.000048 -0.000079  0.000083  0.000149  0.000250 -0.000260 -0.001862 -0.003081
                                 0.003226 -0.008577 -0.013558  0.014942  0.007807  0.012445 -0.013578 -0.003518 -0.005618  0.006128
                                 0.001243  0.001984 -0.002163

   3.1   0    -0.4448  -12.3800  0.000000 -0.000000  0.000000 -0.000000  0.000000 -0.000000  0.000000 -0.000000  0.000000 -0.000000
                                 0.000000 -0.000000  0.000001 -0.000003  0.000016  0.000050 -0.000034  0.000047 -0.000073 -0.000048
                                 0.000088  0.000643 -0.001324 -0.000505  0.008446 -0.016354 -0.002546  0.022361  0.004289 -0.003415
                                -0.009439 -0.002646 -0.002034  0.001720 -0.000882  0.000382 -0.000107  0.000020  0.000000  0.000000
                                -0.000001 -0.000000  0.000003  0.000001 -0.000013 -0.000004  0.000045  0.000015 -0.000143 -0.000049
                                 0.000427  0.000146 -0.001336 -0.000456  0.006525  0.002226 -0.015993 -0.005455  0.015366  0.005240
                                -0.018613 -0.006348  0.115969  0.039565 -0.406876 -0.138902 -0.535793 -0.182283 -0.204915 -0.069301
                                -0.017370 -0.006928  0.011276  0.005272 -0.015698 -0.006093  0.005481  0.002023 -0.002458 -0.000897
                                 0.000730  0.000265 -0.000102  0.000038  0.000034  0.000330 -0.000127 -0.000108 -0.004142  0.001758
                                 0.001443 -0.021601  0.008722  0.006811  0.018493 -0.007031 -0.005831 -0.009418  0.003769  0.002995
                                 0.003387 -0.001323 -0.001074

   4.1   0    -0.1864   -6.6005  0.000000 -0.000000  0.000000 -0.000000  0.000000 -0.000000  0.000000 -0.000000  0.000000 -0.000001
                                 0.000002 -0.000004  0.000011 -0.000037  0.000205  0.000648 -0.000432  0.000559 -0.000711 -0.000624
                                -0.000344  0.026090 -0.045095  0.003395  0.155658 -0.311233 -0.083879  0.435835  0.236364  0.141386
                                -0.266769 -0.450711 -0.273327 -0.202115 -0.080163  0.010274 -0.003279  0.000621 -0.000000  0.000000
                                 0.000000 -0.000000 -0.000000  0.000000  0.000001 -0.000000 -0.000002  0.000001  0.000006 -0.000003
                                -0.000019  0.000009  0.000059 -0.000027 -0.000281  0.000121  0.000668 -0.000277 -0.000618  0.000248
                                 0.000714 -0.000356 -0.004787  0.003003  0.018614 -0.012341  0.015776 -0.008940 -0.014293  0.011203
                                 0.000563 -0.001366 -0.021703  0.016583  0.007278 -0.005890 -0.004028  0.002955  0.001403 -0.001045
                                -0.000407  0.000303 -0.000006 -0.000033  0.000012  0.000001  0.000033 -0.000008 -0.000269 -0.001558
                                 0.000571 -0.000646 -0.004471  0.001599  0.000697  0.005057 -0.001761 -0.000392 -0.002262  0.000852
                                 0.000130  0.001043 -0.000354

                                   1 2px     1 2px     1 2px     1 2px     1 2px     1 2px     1 2px     1 2px     1 2px     1 2px
                                   1 2px     1 2px     1 2px     1 2px     1 2px     1 2px     1 2px     1 2px     1 2px     1 2px
                                   1 2px     1 2px     1 2px     1 2px     1 2px     1 2px     1 2px     1 2px     1 2px     1 2px
                                   1 2px     1 4f1+    1 4f3+    1 4f1+    1 4f3+    1 4f1+    1 4f3+    1 4f1+    1 4f3+    1 4f1+
                                   1 4f3+    1 4f1+    1 4f3+    1 4f1+    1 4f3+    1 4f1+    1 4f3+    1 4f1+    1 4f3+    1 4f1+
                                   1 4f3+    1 4f1+    1 4f3+    1 4f1+    1 4f3+    1 4f1+    1 4f3+    1 4f1+    1 4f3+    1 4f1+
                                   1 4f3+    1 6h1+    1 6h3+    1 6h5+    1 6h1+    1 6h3+    1 6h5+    1 6h1+    1 6h3+    1 6h5+


   1.2   2    -0.3692  -14.1508 -0.000000  0.000000 -0.000000  0.000000 -0.000000  0.000000 -0.000000  0.000000 -0.000000  0.000001
                                -0.000003  0.000007 -0.000020  0.000061 -0.000228  0.001906 -0.004645  0.008995 -0.016868  0.017987
                                -0.000369 -0.024938  0.004307 -0.014857 -0.035709  0.013750  0.025463  0.039752 -0.001568  0.000722
                                -0.000165  0.000009  0.000009 -0.000059 -0.000064  0.000289  0.000312 -0.001401 -0.001512  0.014463
                                 0.015597 -0.022994 -0.024825  0.081090  0.087109  0.131567  0.140945  0.222611  0.238720  0.265353
                                 0.287191  0.175052  0.191740  0.089882  0.098366 -0.011923 -0.013126  0.015277  0.016654 -0.004641
                                -0.005057  0.000414  0.000024 -0.000336  0.001945  0.000091 -0.001452  0.003234  0.000490 -0.002390

   2.2   2    -0.3875  -14.0851 -0.000000  0.000000 -0.000000  0.000000 -0.000000  0.000000 -0.000000  0.000000 -0.000001  0.000002
                                -0.000005  0.000014 -0.000038  0.000116 -0.000431  0.003616 -0.008801  0.016703 -0.030830  0.033638
                                -0.004861 -0.041992  0.003007 -0.018521 -0.109105  0.035262  0.049806  0.114797 -0.003641  0.001631
                                -0.000370 -0.000009  0.000009  0.000064 -0.000059 -0.000311  0.000286  0.001510 -0.001386 -0.015561
                                 0.014264  0.024796 -0.022754 -0.086615  0.079091 -0.139858  0.127374 -0.237318  0.216320 -0.288983
                                 0.265697 -0.194211  0.181868 -0.096700  0.091602  0.014382 -0.013538 -0.015857  0.015007  0.004900
                                -0.004635 -0.000567  0.000479 -0.000414 -0.002668  0.002243 -0.001901 -0.004610  0.003794 -0.003204

   3.2   2    -1.9640  -16.8576  0.000000 -0.000000  0.000000 -0.000000  0.000000 -0.000000  0.000001 -0.000003  0.000011 -0.000035
                                 0.000102 -0.000284  0.000786 -0.002390  0.008825 -0.073154  0.177672 -0.338677  0.604046 -0.600507
                                -0.058867  0.756296 -0.058265  0.466943  0.005824  0.047538 -0.001553 -0.005285 -0.000144  0.000096
                                -0.000025  0.000000 -0.000000 -0.000002  0.000000  0.000009 -0.000002 -0.000040  0.000007  0.000355
                                -0.000030 -0.000653  0.000090  0.000845  0.000487  0.000041  0.001556  0.001676  0.002076  0.002312
                                 0.006479 -0.003151  0.008522 -0.000624  0.000888  0.000112  0.000029 -0.000024 -0.000069  0.000003
                                 0.000031 -0.000008  0.000012 -0.000020 -0.000358  0.000482 -0.000978 -0.000086  0.000120 -0.000129

   4.2   0    -0.1025   -4.5384 -0.000000  0.000000 -0.000000  0.000000 -0.000000  0.000000 -0.000000  0.000001 -0.000002  0.000006
                                -0.000017  0.000046 -0.000128  0.000389 -0.001443  0.012016 -0.029202  0.055486 -0.099934  0.102958
                                 0.001149 -0.139369  0.020110 -0.105928  0.962294  0.005659  0.266085 -0.380913  0.275691 -0.024034
                                 0.008011  0.000000 -0.000001 -0.000001  0.000005  0.000007 -0.000023 -0.000033  0.000113  0.000329
                                -0.001160 -0.000525  0.001847  0.001760 -0.006416  0.002830 -0.010360  0.004786 -0.017608  0.004663
                                -0.020020  0.007581 -0.016546  0.013577 -0.016596  0.006438 -0.004577  0.010117 -0.009402  0.001660
                                -0.000848  0.000014 -0.000021  0.000022  0.000227 -0.000325  0.000593  0.000040 -0.000044 -0.000154

   5.2   0    -0.0478   -2.1607  0.000000 -0.000000  0.000000 -0.000000  0.000000 -0.000000  0.000000 -0.000000  0.000001 -0.000003
                                 0.000009 -0.000026  0.000072 -0.000220  0.000817 -0.006802  0.016528 -0.031367  0.056405 -0.058129
                                -0.000316  0.078407 -0.011144  0.060420 -1.356037 -0.001075 -0.184371  0.871199  0.013895  0.896596
                                 0.214812 -0.000000  0.000000  0.000000 -0.000002 -0.000002  0.000008  0.000010 -0.000041 -0.000104
                                 0.000418  0.000164 -0.000665 -0.000549  0.002307 -0.000894  0.003728 -0.001491  0.006339 -0.001179
                                 0.006947 -0.003386  0.006536 -0.008023  0.008453 -0.002739  0.002285 -0.007041  0.006024  0.005699
                                -0.002302 -0.000004  0.000006 -0.000006 -0.000111  0.000160 -0.000308  0.000011 -0.000025  0.000155

                                   1 2py     1 2py     1 2py     1 2py     1 2py     1 2py     1 2py     1 2py     1 2py     1 2py
                                   1 2py     1 2py     1 2py     1 2py     1 2py     1 2py     1 2py     1 2py     1 2py     1 2py
                                   1 2py     1 2py     1 2py     1 2py     1 2py     1 2py     1 2py     1 2py     1 2py     1 2py
                                   1 2py     1 4f1-    1 4f3-    1 4f1-    1 4f3-    1 4f1-    1 4f3-    1 4f1-    1 4f3-    1 4f1-
                                   1 4f3-    1 4f1-    1 4f3-    1 4f1-    1 4f3-    1 4f1-    1 4f3-    1 4f1-    1 4f3-    1 4f1-
                                   1 4f3-    1 4f1-    1 4f3-    1 4f1-    1 4f3-    1 4f1-    1 4f3-    1 4f1-    1 4f3-    1 4f1-
                                   1 4f3-    1 6h1-    1 6h3-    1 6h5-    1 6h1-    1 6h3-    1 6h5-    1 6h1-    1 6h3-    1 6h5-


   1.3   2    -0.3734  -14.0387  0.000000 -0.000000  0.000000 -0.000000  0.000000 -0.000000  0.000000 -0.000000  0.000001 -0.000002
                                 0.000006 -0.000017  0.000047 -0.000144  0.000536 -0.004494  0.010967 -0.021461  0.040658 -0.043127
                                -0.001099  0.062953 -0.012637  0.040379  0.101440 -0.034392 -0.064986 -0.111236  0.004186 -0.001916
                                 0.000438 -0.000004  0.000012  0.000030 -0.000081 -0.000146  0.000395  0.000707 -0.001916 -0.007289
                                 0.019738  0.011597 -0.031447 -0.040752  0.109860 -0.066015  0.177395 -0.111798  0.300747 -0.134251
                                 0.365258 -0.090317  0.249562 -0.046974  0.129535  0.006292 -0.017471 -0.007935  0.021788  0.002419
                                -0.006645 -0.000171  0.000389 -0.000523 -0.000808  0.001833 -0.002609 -0.001423  0.003104 -0.003688

   2.3   2    -0.3933  -14.1987  0.000000 -0.000000  0.000000 -0.000000  0.000000 -0.000000  0.000000 -0.000000  0.000000 -0.000000
                                 0.000001 -0.000002  0.000006 -0.000019  0.000073 -0.000612  0.001492 -0.002835  0.005288 -0.005883
                                 0.001079  0.007477 -0.000438  0.003091  0.026305 -0.008352 -0.011248 -0.027496  0.000849 -0.000380
                                 0.000086  0.000012  0.000004 -0.000082 -0.000030  0.000400  0.000146 -0.001940 -0.000708  0.020008
                                 0.007293 -0.031855 -0.011625  0.111721  0.040543  0.180839  0.065429  0.306864  0.111126  0.369975
                                 0.135355  0.244092  0.091495  0.119810  0.045606 -0.018391 -0.006945  0.019569  0.007443 -0.006086
                                -0.002315  0.000348 -0.000058 -0.000104  0.001642 -0.000142 -0.000422  0.003026 -0.000252 -0.000721

   3.3   2    -1.9704  -16.8768  0.000000 -0.000000  0.000000 -0.000000  0.000000 -0.000000  0.000001 -0.000003  0.000011 -0.000035
                                 0.000103 -0.000287  0.000793 -0.002412  0.008905 -0.073839  0.179408 -0.341926  0.608391 -0.603173
                                -0.060114  0.758064 -0.050820  0.460653  0.000017  0.044305 -0.001348  0.000481 -0.000277  0.000153
                                -0.000038  0.000000 -0.000000 -0.000002  0.000003  0.000008 -0.000015 -0.000040  0.000073  0.000372
                                -0.000687 -0.000662  0.001205  0.001246 -0.002560  0.001049 -0.002653  0.003192 -0.007111  0.006736
                                -0.015685  0.002001 -0.008626 -0.000114 -0.000430  0.000136 -0.000194 -0.000069  0.000131  0.000023
                                -0.000047  0.000003 -0.000005 -0.000007 -0.000035  0.000132 -0.000893  0.000038 -0.000106  0.000144

   4.3   0    -0.1079   -4.7331 -0.000000  0.000000 -0.000000  0.000000 -0.000000  0.000000 -0.000000  0.000001 -0.000002  0.000006
                                -0.000017  0.000047 -0.000131  0.000400 -0.001482  0.012368 -0.030085  0.057490 -0.104701  0.108668
                                 0.002446 -0.152739  0.025814 -0.119083  1.230683  0.018290  0.305935 -0.654194  0.238502 -0.026858
                                 0.007515 -0.000000  0.000001  0.000002 -0.000007 -0.000007  0.000034  0.000036 -0.000162 -0.000372
                                 0.001673  0.000592 -0.002671 -0.002112  0.009273 -0.003411  0.014874 -0.005848  0.025516 -0.007572
                                 0.030708 -0.002050  0.017683  0.004522  0.006454  0.003837 -0.002371  0.004681  0.000046  0.000916
                                -0.000962 -0.000010  0.000031 -0.000051 -0.000024  0.000052  0.000293 -0.000080  0.000293 -0.000709

   5.3   0    -0.0491   -2.2056  0.000000 -0.000000  0.000000 -0.000000  0.000000 -0.000000  0.000000 -0.000000  0.000001 -0.000003
                                 0.000009 -0.000026  0.000072 -0.000220  0.000817 -0.006818  0.016583 -0.031640  0.057483 -0.059634
                                -0.000998  0.083410 -0.013805  0.066018 -1.597216 -0.008322 -0.208221  1.130203  0.105800  0.863572
                                 0.177743  0.000000 -0.000000 -0.000001  0.000002  0.000003 -0.000012 -0.000014  0.000058  0.000144
                                -0.000600 -0.000230  0.000959  0.000814 -0.003301  0.001302 -0.005263  0.002258 -0.009101  0.002978
                                -0.010866  0.000307 -0.005698 -0.003445 -0.001118 -0.001260  0.000324 -0.003314  0.000737  0.005145
                                -0.005045  0.000004 -0.000012  0.000020  0.000005 -0.000001 -0.000202  0.000030 -0.000119  0.000358

                                   1 3d2-    1 3d2-    1 3d2-    1 3d2-    1 3d2-    1 3d2-    1 3d2-    1 3d2-    1 3d2-    1 3d2-
                                   1 3d2-    1 3d2-    1 3d2-    1 3d2-    1 3d2-    1 3d2-    1 3d2-    1 3d2-    1 3d2-    1 3d2-
                                   1 3d2-    1 3d2-    1 5g2-    1 5g4-    1 5g2-    1 5g4-    1 5g2-    1 5g4-    1 5g2-    1 5g4-
                                   1 5g2-    1 5g4-    1 5g2-    1 5g4-    1 5g2-    1 5g4-

   1.4   0    -0.3919  -12.2681  0.000000 -0.000001  0.000003 -0.000012  0.000042 -0.000134  0.000398 -0.001243  0.006048 -0.014787
                                 0.014226 -0.018203  0.119681 -0.425543 -0.558585 -0.226891 -0.022193  0.006866 -0.014311  0.005043
                                -0.002317  0.000696 -0.000071  0.000081  0.000218 -0.000242 -0.002864  0.003259 -0.015038  0.016057
                                 0.012903 -0.014204 -0.006696  0.007222  0.002421 -0.002647

   2.4   0    -0.0527   -2.5305  0.000000 -0.000000  0.000000 -0.000001  0.000002 -0.000007  0.000021 -0.000065  0.000309 -0.000746
                                 0.000726 -0.001270  0.010366 -0.038721 -0.052850 -0.023575  0.046791 -0.033122  0.178238  0.423407
                                 0.434016  0.090681 -0.000006  0.000007  0.000018 -0.000021 -0.000231  0.000285 -0.001431  0.001596
                                 0.002330 -0.002601 -0.000582  0.000548  0.004787 -0.004804

                                   1 2pz     1 2pz     1 2pz     1 2pz     1 2pz     1 2pz     1 2pz     1 2pz     1 2pz     1 2pz
                                   1 2pz     1 2pz     1 2pz     1 2pz     1 2pz     1 2pz     1 2pz     1 2pz     1 2pz     1 2pz
                                   1 2pz     1 2pz     1 2pz     1 2pz     1 2pz     1 2pz     1 2pz     1 2pz     1 2pz     1 2pz
                                   1 2pz     1 4f0     1 4f2+    1 4f0     1 4f2+    1 4f0     1 4f2+    1 4f0     1 4f2+    1 4f0
                                   1 4f2+    1 4f0     1 4f2+    1 4f0     1 4f2+    1 4f0     1 4f2+    1 4f0     1 4f2+    1 4f0
                                   1 4f2+    1 4f0     1 4f2+    1 4f0     1 4f2+    1 4f0     1 4f2+    1 4f0     1 4f2+    1 4f0
                                   1 4f2+    1 6h2+    1 6h4+    1 6h0     1 6h2+    1 6h4+    1 6h0     1 6h2+    1 6h4+    1 6h0


   1.5   2    -0.3932  -14.1983  0.000000 -0.000000  0.000000 -0.000000  0.000000 -0.000000  0.000000 -0.000000  0.000000 -0.000000
                                 0.000000 -0.000001  0.000003 -0.000008  0.000030 -0.000251  0.000611 -0.001156  0.002204 -0.002583
                                 0.000749  0.003340 -0.000129  0.001167  0.016626 -0.005448 -0.007172 -0.017386  0.000540 -0.000242
                                 0.000055  0.000009  0.000009 -0.000061 -0.000062  0.000299  0.000303 -0.001450 -0.001470  0.014963
                                 0.015152 -0.023819 -0.024136  0.083617  0.084444  0.135420  0.136510  0.229760  0.231726  0.276512
                                 0.280597  0.181637  0.187183  0.088914  0.092557 -0.013667 -0.014153  0.014525  0.015116 -0.004517
                                -0.004702  0.000174 -0.000167  0.000282  0.000895 -0.000659  0.001303  0.001636 -0.001167  0.002410

   2.5   2    -0.3822  -14.1050  0.000000 -0.000000  0.000000 -0.000000  0.000000 -0.000000  0.000000 -0.000000  0.000000 -0.000001
                                 0.000004 -0.000011  0.000030 -0.000091  0.000337 -0.002822  0.006891 -0.013595  0.025824 -0.026993
                                -0.002260  0.040632 -0.008937  0.027752  0.068560 -0.018123 -0.035775 -0.073369  0.002520 -0.001138
                                 0.000259 -0.000009  0.000009  0.000062 -0.000061 -0.000302  0.000296  0.001463 -0.001436 -0.015084
                                 0.014797  0.024019 -0.023580 -0.084146  0.082321 -0.136100  0.132891 -0.230735  0.225424 -0.279023
                                 0.274399 -0.188072  0.187196 -0.095728  0.095613  0.013664 -0.013639 -0.015896  0.015852  0.004894
                                -0.004882  0.000569 -0.000343 -0.000508  0.002734 -0.001722 -0.002431  0.004462 -0.002463 -0.004104

   3.5   2    -1.9746  -16.8920  0.000000 -0.000000  0.000000 -0.000000  0.000000 -0.000000  0.000001 -0.000003  0.000011 -0.000035
                                 0.000104 -0.000289  0.000798 -0.002426  0.008959 -0.074292  0.180540 -0.344026  0.611332 -0.605206
                                -0.060822  0.759263 -0.045166  0.456464 -0.003900  0.041669 -0.001268  0.004375 -0.000369  0.000193
                                -0.000047  0.000000 -0.000000 -0.000003  0.000002  0.000014 -0.000010 -0.000068  0.000049  0.000630
                                -0.000454 -0.001118  0.000803  0.002139 -0.001597  0.001859 -0.001485  0.005554 -0.004310  0.011654
                                -0.009159  0.003816 -0.004143 -0.000122 -0.000126  0.000214 -0.000120 -0.000113  0.000073  0.000038
                                -0.000026 -0.000003 -0.000006  0.000005  0.000337 -0.000572 -0.000210 -0.000111  0.000074  0.000097

   4.5   0    -0.1129   -4.8357 -0.000000  0.000000 -0.000000  0.000000 -0.000000  0.000000 -0.000000  0.000001 -0.000002  0.000006
                                -0.000017  0.000049 -0.000135  0.000411 -0.001525  0.012738 -0.031009  0.059563 -0.109597  0.114491
                                 0.003694 -0.165612  0.031349 -0.131728  1.435703  0.028982  0.339624 -0.866221  0.209812 -0.027669
                                 0.007028 -0.000000  0.000000  0.000003 -0.000003 -0.000013  0.000017  0.000062 -0.000080 -0.000641
                                 0.000826  0.001023 -0.001320 -0.003608  0.004573 -0.005793  0.007313 -0.009991  0.012604 -0.012860
                                 0.015401 -0.003586  0.007637  0.006861  0.000483  0.005471 -0.002240  0.006533 -0.001639  0.001024
                                -0.000558  0.000031 -0.000023 -0.000024 -0.000073  0.000243  0.000025  0.000360 -0.000389 -0.000245

   5.5   0    -0.0502   -2.2333  0.000000 -0.000000  0.000000 -0.000000  0.000000 -0.000000  0.000000 -0.000000  0.000001 -0.000003
                                 0.000009 -0.000026  0.000072 -0.000220  0.000815 -0.006809  0.016570 -0.031767  0.058272 -0.060824
                                -0.001598  0.087509 -0.016233  0.070872 -1.790933 -0.013805 -0.226789  1.341617  0.176168  0.832260
                                 0.151826  0.000000 -0.000000 -0.000001  0.000001  0.000005 -0.000006 -0.000023  0.000028  0.000241
                                -0.000291 -0.000387  0.000466  0.001349 -0.001598  0.002144 -0.002534  0.003744 -0.004415  0.004884
                                -0.005380  0.000544 -0.002165 -0.005148  0.001028 -0.001600  0.000498 -0.004351  0.001334  0.008088
                                -0.003850 -0.000012  0.000009  0.000009  0.000064 -0.000146 -0.000032 -0.000163  0.000203  0.000105

                                   1 3d1+    1 3d1+    1 3d1+    1 3d1+    1 3d1+    1 3d1+    1 3d1+    1 3d1+    1 3d1+    1 3d1+
                                   1 3d1+    1 3d1+    1 3d1+    1 3d1+    1 3d1+    1 3d1+    1 3d1+    1 3d1+    1 3d1+    1 3d1+
                                   1 3d1+    1 3d1+    1 5g1+    1 5g3+    1 5g1+    1 5g3+    1 5g1+    1 5g3+    1 5g1+    1 5g3+
                                   1 5g1+    1 5g3+    1 5g1+    1 5g3+    1 5g1+    1 5g3+

   1.6   0    -0.4119  -12.3088  0.000000 -0.000001  0.000003 -0.000012  0.000044 -0.000140  0.000416 -0.001300  0.006333 -0.015499
                                 0.014904 -0.018700  0.120641 -0.426910 -0.561313 -0.223516 -0.019556  0.007050 -0.014220  0.005128
                                -0.002346  0.000703 -0.000118  0.000053  0.000371 -0.000164 -0.004712  0.002071 -0.024493  0.010197
                                 0.021308 -0.009233 -0.010857  0.004576  0.003942 -0.001690

   2.6   0    -0.0534   -2.5672  0.000000 -0.000000  0.000000 -0.000001  0.000002 -0.000008  0.000023 -0.000070  0.000334 -0.000807
                                 0.000784 -0.001331  0.010684 -0.039784 -0.054483 -0.023083  0.053377 -0.036495  0.189751  0.430262
                                 0.422025  0.083104 -0.000010  0.000005  0.000032 -0.000015 -0.000423  0.000218 -0.002578  0.001255
                                 0.004237 -0.002064 -0.000867  0.000324  0.008435 -0.003753

                                   1 3d1-    1 3d1-    1 3d1-    1 3d1-    1 3d1-    1 3d1-    1 3d1-    1 3d1-    1 3d1-    1 3d1-
                                   1 3d1-    1 3d1-    1 3d1-    1 3d1-    1 3d1-    1 3d1-    1 3d1-    1 3d1-    1 3d1-    1 3d1-
                                   1 3d1-    1 3d1-    1 5g1-    1 5g3-    1 5g1-    1 5g3-    1 5g1-    1 5g3-    1 5g1-    1 5g3-
                                   1 5g1-    1 5g3-    1 5g1-    1 5g3-    1 5g1-    1 5g3-

   1.7   0    -0.4427  -12.3758  0.000000 -0.000001  0.000003 -0.000013  0.000048 -0.000151  0.000449 -0.001405  0.006859 -0.016810
                                 0.016152 -0.019609  0.122450 -0.429907 -0.565612 -0.216719 -0.019180  0.012562 -0.016932  0.005850
                                -0.002619  0.000777 -0.000080  0.000071  0.000258 -0.000231 -0.003207  0.003065 -0.016988  0.015121
                                 0.014497 -0.012660 -0.007402  0.006601  0.002659 -0.002348

   2.7   0    -0.0542   -2.6128  0.000000 -0.000000  0.000000 -0.000001  0.000003 -0.000009  0.000026 -0.000079  0.000380 -0.000921
                                 0.000893 -0.001430  0.011102 -0.041124 -0.056385 -0.021544  0.061847 -0.039967  0.203301  0.437440
                                 0.407112  0.074733 -0.000006  0.000004  0.000021 -0.000017 -0.000261  0.000161 -0.001594  0.000684
                                 0.002681 -0.001186 -0.000550  0.000430  0.005590 -0.002301

                                   1 4f2-    1 4f2-    1 4f2-    1 4f2-    1 4f2-    1 4f2-    1 4f2-    1 4f2-    1 4f2-    1 4f2-
                                   1 4f2-    1 4f2-    1 4f2-    1 4f2-    1 4f2-    1 6h4-    1 6h2-    1 6h4-    1 6h2-    1 6h4-
                                   1 6h2-

   1.8   2    -0.3693  -14.1681  0.000013 -0.000087  0.000426 -0.002064  0.021301 -0.033880  0.119259  0.193293  0.327173  0.391351
                                 0.259001  0.132639 -0.017681  0.022501 -0.006835 -0.000367  0.000432 -0.001665  0.002009 -0.002512
                                 0.003514

   2.8   0    -0.0221   -2.1524  0.000000 -0.000002  0.000010 -0.000041  0.000191 -0.000537 -0.002647 -0.007894 -0.008996 -0.017243
                                 0.004765 -0.067916  0.206728 -0.316621  1.171279  0.000010 -0.000011  0.000075 -0.000095  0.000015
                                -0.000024

   3.8   0     0.0451   -2.7491  0.000003 -0.000023  0.000110 -0.000517  0.004674 -0.008106  0.015397  0.014374  0.037175  0.021042
                                 0.055835 -0.229791  0.588435 -2.059019  1.310415 -0.000027  0.000030 -0.000216  0.000275  0.000002
                                 0.000004

 HOMO      1.8    -0.369251 =     -10.0478eV
 LUMO      3.1    -0.444786 =     -12.1032eV
 LUMO-HOMO        -0.075535 =      -2.0554eV


 **********************************************************************************************************************************
 DATASETS  * FILE   NREC   LENGTH (MB)   RECORD NAMES
              1      19       21.31       500      610      700      900      950      970     1000      129      960     1100
                                          VAR    BASINP    GEOM    SYMINP    ZMAT    AOBASIS   BASIS     P2S    ABASIS      S
                                         1400     1410     1420     1200     1210     1080     1600     1650     1700
                                           T        V       ECP      H0       H01     AOSYM     SMH    MOLCAS    OPER

              2       5        6.01       200      700     1000      520     3202
                                        OPTIONS   GEOM     BASIS   MCVARS     RHF

 PROGRAMS   *        TOTAL       RHF       INT
 CPU TIMES  *       167.56      7.31    159.88
 REAL TIME  *       177.89 SEC
 DISK USED  *         8.21 GB
 SF USED    *         0.12 MB
 GA USED    *         0.00 MB       (max)       0.00 MB       (current)
 **********************************************************************************************************************************
   -->
   <time start="18:09:01" end="18:11:59" cpu="167.56" system="8.02" real="177.89"/>
   <storage units="megabyte" memory="8001.84" sf="0.12" df="436.74" eaf="7770.13" ga="0.0"/>
  </jobstep><!--
  --><jobstep command="RHF-SCF" commandset="SCFPRO">
   <!--


 PROGRAM * RHF-SCF (OPEN SHELL)       Authors: W. Meyer, H.-J. Werner


 NUMBER OF ELECTRONS:      13+   12-    SPACE SYMMETRY=2    SPIN SYMMETRY: Doublet
 CONVERGENCE THRESHOLDS:    1.00E-05 (Density)    1.00E-07 (Energy)
 MAX. NUMBER OF ITERATIONS:      150
 INTERPOLATION TYPE:            DIIS
 INTERPOLATION STEPS:              2 (START)      1 (STEP)
 LEVEL SHIFTS:                 -0.60 (CLOSED) -0.30 (OPEN)

 Number of closed-shell orbitals:   12 (   2   3   3   0   3   0   0   1 )
 Number of open-shell orbitals:      1 (   0   1   0   0   0   0   0   0 )


 Molecular orbitals read from record     3202.2  Type=RHF/CANONICAL (state 1.1)

 Molecular orbital dump at record        4202.2

 ITERATION    DDIFF          GRAD             ENERGY        2-EL.EN.            DIPOLE MOMENTS         DIIS   ORB.
    1      0.000D+00      0.000D+00      -182.06177833    323.229615    0.00000    0.00000    0.00000    0    start
    2      0.000D+00      0.616D-03      -182.06229136    322.644171    0.00000    0.00000    0.00000    1    diag,B
    3      0.855D-03      0.559D-03      -182.06248030    322.831862    0.00000    0.00000    0.00000    2    diag,B
    4      0.401D-03      0.238D-03      -182.06271888    322.720164    0.00000    0.00000    0.00000    3    diag,B
    5      0.767D-03      0.171D-03      -182.06294426    322.667628    0.00000    0.00000    0.00000    4    diag,B
    6      0.660D-03      0.127D-03      -182.06313034    322.648150    0.00000    0.00000    0.00000    5    diag,B
    7      0.677D-03      0.109D-03      -182.06335708    322.622739    0.00000    0.00000    0.00000    6    diag,B
    8      0.237D-02      0.967D-04      -182.06363885    322.574007    0.00000    0.00000    0.00000    7    orth
    9      0.483D-02      0.810D-04      -182.06383778    322.505026    0.00000    0.00000    0.00000    8    diag,B
   10      0.942D-03      0.669D-04      -182.06398206    322.434478    0.00000    0.00000    0.00000    9    diag,B
   11      0.379D-02      0.511D-04      -182.06407181    322.333206    0.00000    0.00000    0.00000   10    diag,B
   12      0.823D-03      0.558D-04      -182.06409836    322.357309    0.00000    0.00000    0.00000   11    diag,B
   13      0.122D-02      0.456D-04      -182.06413055    322.304734    0.00000    0.00000    0.00000   12    diag,B
   14      0.227D-02      0.384D-04      -182.06414362    322.304593    0.00000    0.00000    0.00000   13    diag,B
   15      0.866D-03      0.380D-04      -182.06415228    322.303118    0.00000    0.00000    0.00000   14    diag,B
   16      0.114D-03      0.381D-04      -182.06414835    322.304624    0.00000    0.00000    0.00000   15    diag,B
   17      0.113D-03      0.381D-04      -182.06407484    322.315163    0.00000    0.00000    0.00000   16    diag,B
   18      0.126D-02      0.372D-04      -182.06393878    322.314960    0.00000    0.00000    0.00000   17    orth
   19      0.109D-02      0.422D-04      -182.06390207    322.313888    0.00000    0.00000    0.00000   18    diag,B
   20      0.122D-02      0.380D-04      -182.06383353    322.316125    0.00000    0.00000    0.00000   19    diag,B
   21      0.935D-03      0.400D-04      -182.06376084    322.364070    0.00000    0.00000    0.00000   20    diag,B
   22      0.822D-03      0.516D-04      -182.06371512    322.317460    0.00000    0.00000    0.00000   21    diag,B
   23      0.894D-03      0.311D-04      -182.06368215    322.301842    0.00000    0.00000    0.00000   22    diag,B
   24      0.704D-03      0.321D-04      -182.06363750    322.291867    0.00000    0.00000    0.00000   23    diag,B
   25      0.170D-02      0.266D-04      -182.06361784    322.280941    0.00000    0.00000    0.00000   24    diag,B
   26      0.641D-03      0.275D-04      -182.06361666    322.282227    0.00000    0.00000    0.00000   25    diag,B
   27      0.141D-02      0.288D-04      -182.06360977    322.246060    0.00000    0.00000    0.00000   26    diag,B
   28      0.174D-02      0.269D-04      -182.06360302    322.251265    0.00000    0.00000    0.00000   27    orth
   29      0.977D-03      0.230D-04      -182.06362028    322.263590    0.00000    0.00000    0.00000   28    diag,B
   30      0.275D-02      0.583D-04      -182.06362277    322.246403    0.00000    0.00000    0.00000   29    diag,B
   31      0.406D-03      0.247D-04      -182.06362054    322.222993    0.00000    0.00000    0.00000   29    diag,B
   32      0.375D-03      0.402D-04      -182.06362067    322.236023    0.00000    0.00000    0.00000   29    diag,B
   33      0.733D-03      0.318D-04      -182.06362403    322.238636    0.00000    0.00000    0.00000   29    diag,B
   34      0.149D-02      0.167D-04      -182.06362490    322.242636    0.00000    0.00000    0.00000   29    diag,B
   35      0.192D-03      0.831D-05      -182.06362510    322.252386    0.00000    0.00000    0.00000   29    diag,B
   36      0.165D-03      0.148D-04      -182.06362533    322.251398    0.00000    0.00000    0.00000   29    diag,B
   37      0.628D-03      0.337D-05      -182.06362541    322.246308    0.00000    0.00000    0.00000   29    diag,B
   38      0.299D-03      0.223D-05      -182.06362547    322.249276    0.00000    0.00000    0.00000   29    orth
   39      0.955D-04      0.205D-05      -182.06362553    322.247677    0.00000    0.00000    0.00000   29    diag,B
   40      0.238D-03      0.210D-05      -182.06362557    322.246401    0.00000    0.00000    0.00000   29    diag,B
   41      0.853D-04      0.299D-05      -182.06362559    322.246676    0.00000    0.00000    0.00000   29    diag,B
   42      0.433D-04      0.579D-06      -182.06362560    322.247154    0.00000    0.00000    0.00000   29    diag,B
   43      0.132D-03      0.374D-06      -182.06362560    322.247136    0.00000    0.00000    0.00000   29    diag,B
   44      0.831D-05      0.192D-06      -182.06362560    322.247258    0.00000    0.00000    0.00000    0    orth

 Final alpha occupancy:   2   4   3   0   3   0   0   1
 Final beta  occupancy:   2   3   3   0   3   0   0   1

 !RHF STATE 1.2 Energy               -182.063625600253
   --><property name="Energy" method="RHF" principal="true" stateSymmetry="2" stateNumber="1"
     value="-182.063625600253"/><!--
 Nuclear energy                         0.00000000
 One-electron energy                 -343.18725448
 Two-electron energy                  161.12362888
 Virial quotient                       -1.87791597
 !RHF STATE 1.2 Dipole moment           0.00000000     0.00000000     0.00000000
 Dipole moment /Debye                   0.00000000     0.00000000     0.00000000
   --><property name="Dipole moment" method="RHF" principal="true" stateSymmetry="2"
     stateNumber="1" value="0.0 0.0 0.0"/><!--

 ELECTRON ORBITALS
 =================


   Orb  Occ    Energy  Couls-En    Coefficients

                                   1 1s      1 1s      1 1s      1 1s      1 1s      1 1s      1 1s      1 1s      1 1s      1 1s
                                   1 1s      1 1s      1 1s      1 1s      1 1s      1 1s      1 1s      1 1s      1 1s      1 1s
                                   1 1s      1 1s      1 1s      1 1s      1 1s      1 1s      1 1s      1 1s      1 1s      1 1s
                                   1 1s      1 1s      1 1s      1 1s      1 1s      1 1s      1 1s      1 1s      1 3d0     1 3d2+
                                   1 3d0     1 3d2+    1 3d0     1 3d2+    1 3d0     1 3d2+    1 3d0     1 3d2+    1 3d0     1 3d2+
                                   1 3d0     1 3d2+    1 3d0     1 3d2+    1 3d0     1 3d2+    1 3d0     1 3d2+    1 3d0     1 3d2+
                                   1 3d0     1 3d2+    1 3d0     1 3d2+    1 3d0     1 3d2+    1 3d0     1 3d2+    1 3d0     1 3d2+
                                   1 3d0     1 3d2+    1 3d0     1 3d2+    1 3d0     1 3d2+    1 3d0     1 3d2+    1 3d0     1 3d2+
                                   1 3d0     1 3d2+    1 5g0     1 5g4+    1 5g2+    1 5g0     1 5g4+    1 5g2+    1 5g0     1 5g4+
                                   1 5g2+    1 5g0     1 5g4+    1 5g2+    1 5g0     1 5g4+    1 5g2+    1 5g0     1 5g4+    1 5g2+
                                   1 5g0     1 5g4+    1 5g2+

   1.1   2    -2.7788  -19.1717 -0.000000  0.000000 -0.000000  0.000000 -0.000000  0.000000 -0.000000  0.000000 -0.000000  0.000000
                                -0.000000  0.000001 -0.000002  0.000009 -0.000064 -0.000291  0.000321 -0.000815  0.002855  0.000237
                                -0.015553  0.168652 -0.256837  0.070301  0.455934 -0.887619 -0.371858  1.132264  0.406227  0.098637
                                -0.071419  0.105148 -0.158580  0.119097 -0.047111  0.018229 -0.004724  0.000844  0.000000 -0.000000
                                -0.000000  0.000000  0.000000 -0.000000 -0.000000  0.000001  0.000001 -0.000002 -0.000005  0.000008
                                 0.000014 -0.000024 -0.000044  0.000077  0.000229 -0.000397 -0.000583  0.001010  0.000555 -0.000961
                                -0.000200  0.000346 -0.001311  0.002271  0.005951 -0.010310  0.001418 -0.002456 -0.000599  0.001038
                                 0.001855 -0.003214 -0.002653  0.004598  0.001319 -0.002285 -0.000266  0.000460  0.000096 -0.000166
                                -0.000026  0.000045  0.000006  0.000012 -0.000009 -0.000072 -0.000142  0.000107  0.000161  0.000317
                                -0.000239  0.002037  0.004016 -0.003036 -0.001722 -0.003395  0.002567  0.000687  0.001355 -0.001024
                                -0.000225 -0.000443  0.000335

   2.1   2    -0.6621  -12.8903  0.000000 -0.000000  0.000000 -0.000000  0.000000 -0.000000  0.000000 -0.000000  0.000000 -0.000000
                                 0.000000 -0.000001  0.000002 -0.000007  0.000040  0.000129 -0.000089  0.000124 -0.000199 -0.000123
                                 0.000290  0.000970 -0.002370 -0.001517  0.019671 -0.038379 -0.003960  0.050022  0.014210 -0.008461
                                -0.031061 -0.009901  0.000236  0.002009 -0.000847  0.000613 -0.000184  0.000036  0.000000 -0.000000
                                -0.000000  0.000000  0.000002 -0.000003 -0.000007  0.000012  0.000024 -0.000041 -0.000075  0.000130
                                 0.000223 -0.000386 -0.000694  0.001202  0.003356 -0.005812 -0.008146  0.014108  0.007756 -0.013432
                                -0.009679  0.016763  0.064354 -0.111456 -0.233651  0.404661 -0.289578  0.501523 -0.079348  0.137425
                                -0.017669  0.030600  0.030558 -0.052921 -0.021544  0.037310  0.005646 -0.009779 -0.002342  0.004056
                                 0.000666 -0.001154 -0.000052 -0.000103  0.000078  0.000198  0.000391 -0.000295 -0.001992 -0.003928
                                 0.002969 -0.008945 -0.017640  0.013334  0.007844  0.015469 -0.011693 -0.003819 -0.007532  0.005694
                                 0.001354  0.002670 -0.002018

   3.1   0    -0.2851  -12.2139 -0.000000  0.000000 -0.000000  0.000000 -0.000000  0.000000 -0.000000  0.000000 -0.000000  0.000000
                                -0.000000  0.000000 -0.000000  0.000000 -0.000000 -0.000000  0.000000 -0.000000  0.000000  0.000000
                                -0.000000 -0.000000  0.000000  0.000000 -0.000002  0.000004  0.000001 -0.000005 -0.000001  0.000001
                                 0.000002  0.000001  0.000000 -0.000000  0.000000 -0.000000  0.000000 -0.000000  0.000000  0.000000
                                -0.000001 -0.000000  0.000003  0.000002 -0.000012 -0.000007  0.000042  0.000024 -0.000133 -0.000077
                                 0.000397  0.000229 -0.001242 -0.000717  0.006065  0.003502 -0.014859 -0.008580  0.014264  0.008236
                                -0.017163 -0.009910  0.106480  0.061481 -0.374011 -0.215952 -0.488470 -0.282041 -0.182877 -0.105594
                                -0.035826 -0.020686  0.033348  0.019254 -0.028739 -0.016593  0.008012  0.004626 -0.003548 -0.002048
                                 0.001061  0.000612 -0.000060  0.000071  0.000054  0.000214 -0.000254 -0.000192 -0.002523  0.002986
                                 0.002257 -0.012377  0.014648  0.011073  0.010273 -0.012158 -0.009191 -0.005577  0.006600  0.004989
                                 0.002115 -0.002503 -0.001892

   4.1   0    -0.0655   -5.8502  0.000000 -0.000000  0.000000 -0.000000  0.000000 -0.000000  0.000000 -0.000000  0.000000 -0.000001
                                 0.000001 -0.000003  0.000010 -0.000032  0.000174  0.000550 -0.000367  0.000474 -0.000602 -0.000530
                                -0.000306  0.022313 -0.038533  0.002950  0.132535 -0.264768 -0.071972  0.370893  0.198312  0.101186
                                -0.189308 -0.265329 -0.228928 -0.248815 -0.238088 -0.047533 -0.007473  0.000838 -0.000000  0.000000
                                 0.000000 -0.000000 -0.000000  0.000000  0.000000 -0.000000 -0.000001  0.000001  0.000002 -0.000004
                                -0.000007  0.000013  0.000022 -0.000039 -0.000106  0.000183  0.000249 -0.000431 -0.000226  0.000392
                                 0.000255 -0.000441 -0.001671  0.002895  0.006362 -0.011023  0.002915 -0.005053 -0.005354  0.009276
                                 0.026269 -0.045499 -0.025040  0.043374  0.039092 -0.067709  0.013813 -0.023922  0.003418 -0.005921
                                -0.000337  0.000584 -0.000014 -0.000027  0.000021  0.000007  0.000014 -0.000010 -0.000663 -0.001308
                                 0.000989 -0.002235 -0.004409  0.003333  0.002591  0.005110 -0.003863 -0.000862 -0.001701  0.001286
                                 0.001294  0.002553 -0.001929

                                   1 2px     1 2px     1 2px     1 2px     1 2px     1 2px     1 2px     1 2px     1 2px     1 2px
                                   1 2px     1 2px     1 2px     1 2px     1 2px     1 2px     1 2px     1 2px     1 2px     1 2px
                                   1 2px     1 2px     1 2px     1 2px     1 2px     1 2px     1 2px     1 2px     1 2px     1 2px
                                   1 2px     1 4f1+    1 4f3+    1 4f1+    1 4f3+    1 4f1+    1 4f3+    1 4f1+    1 4f3+    1 4f1+
                                   1 4f3+    1 4f1+    1 4f3+    1 4f1+    1 4f3+    1 4f1+    1 4f3+    1 4f1+    1 4f3+    1 4f1+
                                   1 4f3+    1 4f1+    1 4f3+    1 4f1+    1 4f3+    1 4f1+    1 4f3+    1 4f1+    1 4f3+    1 4f1+
                                   1 4f3+    1 6h1+    1 6h3+    1 6h5+    1 6h1+    1 6h3+    1 6h5+    1 6h1+    1 6h3+    1 6h5+


   1.2   2    -1.8035  -16.7092  0.000000 -0.000000  0.000000 -0.000000  0.000000 -0.000000  0.000001 -0.000003  0.000011 -0.000035
                                 0.000103 -0.000286  0.000790 -0.002402  0.008870 -0.073504  0.178476 -0.339981  0.606122 -0.602735
                                -0.058136  0.756914 -0.053204  0.463215 -0.003612  0.044548 -0.001122  0.004138 -0.000359  0.000194
                                -0.000047  0.000000 -0.000000 -0.000001  0.000002  0.000006 -0.000007 -0.000027  0.000035  0.000220
                                -0.000284 -0.000425  0.000549  0.000213 -0.000275 -0.000856  0.001104 -0.000001 -0.000000 -0.002077
                                 0.002679 -0.005441  0.007023 -0.000669  0.000863 -0.000092  0.000119  0.000060 -0.000077 -0.000029
                                 0.000037  0.000013 -0.000014  0.000018 -0.000481  0.000519 -0.000697 -0.000100  0.000108 -0.000145

   2.2   2    -0.2296  -13.9714 -0.000000  0.000000 -0.000000  0.000000 -0.000000  0.000000 -0.000000  0.000000 -0.000001  0.000002
                                -0.000005  0.000014 -0.000038  0.000114 -0.000424  0.003542 -0.008597  0.015923 -0.028111  0.030093
                                -0.006409 -0.031476 -0.004165 -0.005915 -0.027303  0.027078  0.025057  0.030109 -0.002830  0.000801
                                -0.000204 -0.000008  0.000010  0.000053 -0.000069 -0.000259  0.000335  0.001257 -0.001623 -0.012957
                                 0.016728  0.020644 -0.026653 -0.072178  0.093188 -0.116557  0.150485 -0.197480  0.254963 -0.241441
                                 0.311720 -0.161655  0.208709 -0.078919  0.101891  0.009964 -0.012864 -0.015523  0.020042  0.004385
                                -0.005662 -0.000467  0.000505 -0.000677 -0.002092  0.002260 -0.003032 -0.003285  0.003548 -0.004761

   3.2   2    -0.2121  -14.0449  0.000000  0.000000 -0.000000  0.000000 -0.000000  0.000000 -0.000000  0.000000 -0.000000  0.000000
                                -0.000000  0.000000 -0.000000  0.000000 -0.000000  0.000000 -0.000001  0.000002 -0.000004  0.000004
                                 0.000000 -0.000008  0.000003 -0.000007  0.000016  0.000006  0.000020  0.000001  0.000002  0.000002
                                 0.000000  0.000010  0.000008 -0.000069 -0.000054  0.000337  0.000261 -0.001635 -0.001266  0.016885
                                 0.013078 -0.026841 -0.020790  0.094762  0.073397  0.153774  0.119105  0.259972  0.201360  0.310445
                                 0.240453  0.201599  0.156146  0.100617  0.077931 -0.011193 -0.008670  0.020603  0.015956 -0.005722
                                -0.004433  0.000471 -0.000218 -0.000487  0.001975 -0.000915 -0.002045  0.002769 -0.001282 -0.002866

   4.2   +    -0.1078   -4.6677 -0.000000  0.000000 -0.000000  0.000000 -0.000000  0.000000 -0.000000  0.000001 -0.000002  0.000006
                                -0.000017  0.000048 -0.000133  0.000404 -0.001499  0.012494 -0.030373  0.057947 -0.105447  0.109556
                                 0.001579 -0.152153  0.025855 -0.118200  1.251081  0.013956  0.302586 -0.670427  0.241907 -0.027230
                                 0.007673  0.000000 -0.000000 -0.000001  0.000002  0.000007 -0.000009 -0.000034  0.000043  0.000347
                                -0.000450 -0.000545  0.000705  0.001991 -0.002578  0.003327 -0.004306  0.005477 -0.007091  0.005569
                                -0.007214  0.006996 -0.009048  0.008941 -0.011553  0.000870 -0.001125  0.003501 -0.004522 -0.000337
                                 0.000430  0.000005 -0.000005  0.000007  0.000341 -0.000369  0.000495 -0.000119  0.000129 -0.000172

   5.2   0     0.0068   -1.0324  0.000000 -0.000000  0.000000 -0.000000  0.000000 -0.000000  0.000000 -0.000001  0.000002 -0.000006
                                 0.000017 -0.000046  0.000128 -0.000385  0.001394 -0.011274  0.026975 -0.044705  0.055193 -0.038659
                                 0.018086 -0.043446  0.098647 -0.066503 17.122555  0.058644 -0.201746-17.696105  1.703180 -2.409492
                                 2.177793 -0.000000  0.000000  0.000000 -0.000000 -0.000000  0.000000  0.000001 -0.000001 -0.000012
                                 0.000016  0.000014 -0.000018 -0.000142  0.000184 -0.000308  0.000398 -0.000425  0.000548 -0.000553
                                 0.000714 -0.000403  0.000520 -0.002068  0.002670  0.002915 -0.003763 -0.007302  0.009426  0.010134
                                -0.013083 -0.000000  0.000000 -0.000000 -0.000031  0.000034 -0.000045  0.000013 -0.000014  0.000018

   6.2   0     0.0246   -1.4415 -0.000000  0.000000 -0.000000  0.000000 -0.000000  0.000000 -0.000000  0.000001 -0.000004  0.000012
                                -0.000034  0.000095 -0.000261  0.000782 -0.002817  0.022599 -0.053839  0.085423 -0.088462  0.044023
                                -0.047080  0.188257 -0.267019  0.231662-47.025031 -0.159196  0.364883 48.302616 -5.140252  5.960974
                                -2.297464 -0.000000  0.000000  0.000000 -0.000000 -0.000000  0.000001  0.000002 -0.000003 -0.000035
                                 0.000045  0.000043 -0.000056 -0.000382  0.000493 -0.000813  0.001051 -0.001134  0.001465 -0.001426
                                 0.001843 -0.001175  0.001519 -0.005453  0.007041  0.007483 -0.009660 -0.021384  0.027607  0.035465
                                -0.045784 -0.000001  0.000001 -0.000001 -0.000088  0.000095 -0.000127  0.000038 -0.000041  0.000055

                                   1 2py     1 2py     1 2py     1 2py     1 2py     1 2py     1 2py     1 2py     1 2py     1 2py
                                   1 2py     1 2py     1 2py     1 2py     1 2py     1 2py     1 2py     1 2py     1 2py     1 2py
                                   1 2py     1 2py     1 2py     1 2py     1 2py     1 2py     1 2py     1 2py     1 2py     1 2py
                                   1 2py     1 4f1-    1 4f3-    1 4f1-    1 4f3-    1 4f1-    1 4f3-    1 4f1-    1 4f3-    1 4f1-
                                   1 4f3-    1 4f1-    1 4f3-    1 4f1-    1 4f3-    1 4f1-    1 4f3-    1 4f1-    1 4f3-    1 4f1-
                                   1 4f3-    1 4f1-    1 4f3-    1 4f1-    1 4f3-    1 4f1-    1 4f3-    1 4f1-    1 4f3-    1 4f1-
                                   1 4f3-    1 6h1-    1 6h3-    1 6h5-    1 6h1-    1 6h3-    1 6h5-    1 6h1-    1 6h3-    1 6h5-


   1.3   2    -1.8143  -16.7317  0.000000 -0.000000  0.000000 -0.000000  0.000000 -0.000000  0.000001 -0.000003  0.000011 -0.000036
                                 0.000104 -0.000290  0.000800 -0.002432  0.008982 -0.074477  0.180970 -0.344728  0.612385 -0.606324
                                -0.060053  0.760388 -0.045857  0.454854 -0.012475  0.042625 -0.000506  0.012897 -0.000562  0.000276
                                -0.000066  0.000000 -0.000001 -0.000001  0.000004  0.000005 -0.000018 -0.000022  0.000086  0.000204
                                -0.000790 -0.000366  0.001416  0.000653 -0.002529  0.000484 -0.001875  0.001767 -0.006847  0.003883
                                -0.015040  0.001870 -0.007241  0.000124 -0.000479  0.000010 -0.000039 -0.000015  0.000058  0.000005
                                -0.000020 -0.000005  0.000015 -0.000033 -0.000105  0.000341 -0.000763  0.000019 -0.000061  0.000136

   2.3   2    -0.2383  -14.0811 -0.000000  0.000000 -0.000000  0.000000 -0.000000  0.000000 -0.000000  0.000000 -0.000000  0.000000
                                -0.000000  0.000000 -0.000000  0.000000 -0.000000  0.000000 -0.000000  0.000000 -0.000001  0.000001
                                -0.000000 -0.000002  0.000001 -0.000002 -0.000008  0.000003  0.000006  0.000012 -0.000001  0.000001
                                -0.000000  0.000012  0.000003 -0.000085 -0.000022  0.000414  0.000107 -0.002008 -0.000518  0.020712
                                 0.005348 -0.032967 -0.008513  0.115781  0.029898  0.187522  0.048423  0.318143  0.082153  0.382321
                                 0.098725  0.247745  0.063974  0.120452  0.031104 -0.015634 -0.004038  0.022790  0.005885 -0.006745
                                -0.001742  0.000134 -0.000269 -0.000139  0.000523 -0.001049 -0.000542  0.000805 -0.001617 -0.000834

   3.3   2    -0.2064  -13.6358  0.000000 -0.000000  0.000000 -0.000000  0.000000 -0.000000  0.000000 -0.000000  0.000001 -0.000003
                                 0.000008 -0.000022  0.000062 -0.000188  0.000701 -0.005883  0.014366 -0.028288  0.054284 -0.058071
                                -0.002493  0.089750 -0.020701  0.063065 -0.011677 -0.054573 -0.124210 -0.031772  0.003323 -0.002234
                                 0.000566 -0.000003  0.000012  0.000021 -0.000082 -0.000103  0.000399  0.000500 -0.001936 -0.005155
                                 0.019962  0.008209 -0.031792 -0.028744  0.111314 -0.046473  0.179974 -0.078708  0.304807 -0.095966
                                 0.371638 -0.065563  0.253901 -0.034360  0.133064  0.003162 -0.012249 -0.007198  0.027876  0.001953
                                -0.007573 -0.000111  0.000360 -0.000805 -0.000516  0.001673 -0.003741 -0.000733  0.002375 -0.005311

   4.3   0     0.0037   -1.7543  0.000000 -0.000000  0.000000 -0.000000  0.000000 -0.000000  0.000000 -0.000000  0.000000 -0.000001
                                 0.000004 -0.000010  0.000028 -0.000082  0.000286 -0.002200  0.005115 -0.006149 -0.002712  0.012681
                                 0.010469 -0.069799  0.060156 -0.071543  9.047660  0.036915 -0.029381 -9.191482  1.026434 -1.098760
                                 1.390680 -0.000000  0.000001  0.000001 -0.000005 -0.000006  0.000025  0.000031 -0.000119 -0.000318
                                 0.001232  0.000506 -0.001961 -0.001785  0.006910 -0.002889  0.011187 -0.004907  0.018997 -0.006023
                                 0.023319 -0.003709  0.014359 -0.002410  0.009332  0.000783 -0.003035 -0.003495  0.013534  0.004824
                                -0.018684 -0.000007  0.000022 -0.000050 -0.000015  0.000049 -0.000111 -0.000055  0.000177 -0.000395

   5.3   0     0.0108   -2.2788  0.000000 -0.000000  0.000000 -0.000000  0.000000 -0.000000  0.000000 -0.000001  0.000003 -0.000009
                                 0.000025 -0.000070  0.000194 -0.000584  0.002128 -0.017329  0.041626 -0.071364  0.098522 -0.079851
                                 0.020648 -0.005102  0.111455 -0.044021 21.339357  0.064223 -0.313817-22.195951  1.982864 -3.248804
                                 2.055778  0.000000 -0.000001 -0.000002  0.000008  0.000010 -0.000038 -0.000048  0.000184  0.000490
                                -0.001898 -0.000783  0.003031  0.002713 -0.010505  0.004356 -0.016864  0.007443 -0.028818  0.009067
                                -0.035105  0.005686 -0.022014  0.003011 -0.011656  0.000356 -0.001379  0.001941 -0.007514 -0.002697
                                 0.010447  0.000010 -0.000034  0.000075  0.000021 -0.000068  0.000153  0.000084 -0.000272  0.000608

                                   1 3d2-    1 3d2-    1 3d2-    1 3d2-    1 3d2-    1 3d2-    1 3d2-    1 3d2-    1 3d2-    1 3d2-
                                   1 3d2-    1 3d2-    1 3d2-    1 3d2-    1 3d2-    1 3d2-    1 3d2-    1 3d2-    1 3d2-    1 3d2-
                                   1 3d2-    1 3d2-    1 5g2-    1 5g4-    1 5g2-    1 5g4-    1 5g2-    1 5g4-    1 5g2-    1 5g4-
                                   1 5g2-    1 5g4-    1 5g2-    1 5g4-    1 5g2-    1 5g4-

   1.4   0    -0.2386  -12.0945  0.000000 -0.000001  0.000003 -0.000012  0.000044 -0.000139  0.000413 -0.001292  0.006288 -0.015371
                                 0.014760 -0.018526  0.120194 -0.426878 -0.556883 -0.218020 -0.049860  0.035969 -0.037843  0.007455
                                -0.003976  0.001195 -0.000047  0.000125  0.000121 -0.000321 -0.002016  0.005334 -0.009305  0.024622
                                 0.008104 -0.021446 -0.004297  0.011370  0.001697 -0.004492

   2.4   0     0.0114   -1.1034 -0.000000  0.000000 -0.000000  0.000002 -0.000006  0.000019 -0.000057  0.000181 -0.000888  0.002151
                                -0.001964  0.001043 -0.000198 -0.002006 -0.013237  0.040259 -0.568023  1.333593 -1.165504  0.889505
                                -1.241567  1.649611 -0.000000  0.000001  0.000001 -0.000002 -0.000015  0.000040 -0.000254  0.000671
                                 0.000527 -0.001395 -0.000725  0.001918  0.001230 -0.003255

                                   1 2pz     1 2pz     1 2pz     1 2pz     1 2pz     1 2pz     1 2pz     1 2pz     1 2pz     1 2pz
                                   1 2pz     1 2pz     1 2pz     1 2pz     1 2pz     1 2pz     1 2pz     1 2pz     1 2pz     1 2pz
                                   1 2pz     1 2pz     1 2pz     1 2pz     1 2pz     1 2pz     1 2pz     1 2pz     1 2pz     1 2pz
                                   1 2pz     1 4f0     1 4f2+    1 4f0     1 4f2+    1 4f0     1 4f2+    1 4f0     1 4f2+    1 4f0
                                   1 4f2+    1 4f0     1 4f2+    1 4f0     1 4f2+    1 4f0     1 4f2+    1 4f0     1 4f2+    1 4f0
                                   1 4f2+    1 4f0     1 4f2+    1 4f0     1 4f2+    1 4f0     1 4f2+    1 4f0     1 4f2+    1 4f0
                                   1 4f2+    1 6h2+    1 6h4+    1 6h0     1 6h2+    1 6h4+    1 6h0     1 6h2+    1 6h4+    1 6h0


   1.5   2    -1.8143  -16.7317  0.000000 -0.000000  0.000000 -0.000000  0.000000 -0.000000  0.000001 -0.000003  0.000011 -0.000036
                                 0.000104 -0.000290  0.000800 -0.002432  0.008982 -0.074477  0.180970 -0.344727  0.612385 -0.606323
                                -0.060053  0.760387 -0.045859  0.454855 -0.012474  0.042626 -0.000506  0.012897 -0.000562  0.000276
                                -0.000066  0.000000 -0.000000 -0.000002  0.000003  0.000011 -0.000015 -0.000054  0.000070  0.000499
                                -0.000645 -0.000895  0.001156  0.001600 -0.002065  0.001186 -0.001531  0.004330 -0.005591  0.009512
                                -0.012281  0.004580 -0.005912  0.000303 -0.000391  0.000024 -0.000032 -0.000037  0.000047  0.000013
                                -0.000016  0.000024 -0.000021 -0.000017  0.000558 -0.000483 -0.000408 -0.000100  0.000086  0.000073

   2.5   2    -0.2383  -14.0811 -0.000000  0.000000 -0.000000  0.000000 -0.000000  0.000000 -0.000000  0.000000 -0.000000  0.000000
                                -0.000000  0.000000 -0.000000  0.000000 -0.000000  0.000000 -0.000000  0.000000 -0.000000  0.000000
                                -0.000000 -0.000000 -0.000000  0.000000 -0.000015  0.000000 -0.000001  0.000015 -0.000003  0.000001
                                -0.000000  0.000010  0.000008 -0.000069 -0.000054  0.000338  0.000262 -0.001639 -0.001270  0.016912
                                 0.013099 -0.026919 -0.020849  0.094539  0.073222  0.153118  0.118592  0.259775  0.201199  0.312178
                                 0.241786  0.202292  0.156677  0.098353  0.076176 -0.012766 -0.009887  0.018609  0.014413 -0.005509
                                -0.004265 -0.000101 -0.000263  0.000173 -0.000396 -0.001027  0.000675 -0.000610 -0.001583  0.001040

   3.5   2    -0.2064  -13.6359  0.000000 -0.000000  0.000000 -0.000000  0.000000 -0.000000  0.000000 -0.000000  0.000001 -0.000003
                                 0.000008 -0.000022  0.000062 -0.000188  0.000701 -0.005883  0.014366 -0.028288  0.054283 -0.058070
                                -0.002493  0.089745 -0.020698  0.063060 -0.011505 -0.054568 -0.124200 -0.031944  0.003337 -0.002244
                                 0.000568 -0.000008  0.000010  0.000052 -0.000067 -0.000253  0.000326  0.001225 -0.001581 -0.012625
                                 0.016300  0.020106 -0.025959 -0.070397  0.090892 -0.113819  0.146956 -0.192766  0.248887 -0.235031
                                 0.303457 -0.160572  0.207319 -0.084151  0.108651  0.007747 -0.010003 -0.017628  0.022762  0.004790
                                -0.006183  0.000588 -0.000509 -0.000430  0.002732 -0.002366 -0.002000  0.003878 -0.003359 -0.002838

   4.5   0     0.0037   -1.7543  0.000000 -0.000000  0.000000 -0.000000  0.000000 -0.000000  0.000000 -0.000000  0.000000 -0.000001
                                 0.000004 -0.000010  0.000028 -0.000082  0.000286 -0.002200  0.005116 -0.006150 -0.002710  0.012679
                                 0.010470 -0.069798  0.060157 -0.071542  9.047897  0.036915 -0.029386 -9.191733  1.026454 -1.098798
                                 1.390708 -0.000000  0.000001  0.000003 -0.000004 -0.000016  0.000020  0.000075 -0.000097 -0.000779
                                 0.001006  0.001240 -0.001601 -0.004370  0.005642 -0.007074  0.009134 -0.012012  0.015510 -0.014745
                                 0.019039 -0.009080  0.011724 -0.005901  0.007619  0.001919 -0.002478 -0.008560  0.011051  0.011817
                                -0.015256  0.000036 -0.000031 -0.000027  0.000081 -0.000070 -0.000059  0.000289 -0.000250 -0.000211

   5.5   0     0.0108   -2.2787  0.000000 -0.000000  0.000000 -0.000000  0.000000 -0.000000  0.000000 -0.000001  0.000003 -0.000009
                                 0.000025 -0.000070  0.000194 -0.000584  0.002128 -0.017329  0.041626 -0.071365  0.098522 -0.079852
[...]
                                 0.000000  0.000000  0.000000  0.000000  0.000000  0.000000  0.000000  0.000000  0.000000  0.000000
                                 0.000000  0.000000  0.000000  0.000000  0.000000  0.000000  0.000000  0.000000  0.000000  0.000000
                                 0.000000  0.000000  0.000000  0.000000  0.000000  0.000000  0.000000  0.000000  0.000000  0.000000

   2.3  2.00000    -0.210987     0.000000  0.000000  0.000000  0.000000  0.000000  0.000000  0.000000  0.000000  0.000000  0.000000
                                 0.000000  0.000000  0.000000  0.000000  0.000000  0.000000  0.000000  0.000000  0.000000  0.000000
                                 0.000000  0.000000  0.000000  0.000000  0.000000  0.000000  0.000000  0.000000  0.000000  0.000000
                                 0.000000  0.000013  0.000000 -0.000087  0.000000  0.000425  0.000000 -0.002059  0.000000  0.021243
                                 0.000000 -0.033815  0.000000  0.118693  0.000000  0.192182  0.000000  0.325919  0.000000  0.392796
                                 0.000000  0.259019  0.000000  0.131494  0.000000 -0.014006  0.000000  0.027059  0.000000 -0.007467
                                 0.000000  0.000000  0.000000  0.000000  0.000000  0.000000  0.000000  0.000000  0.000000  0.000000

   3.3  2.00000    -0.191265     0.000000  0.000000  0.000000  0.000000  0.000000  0.000000  0.000000  0.000000  0.000000  0.000000
                                 0.000000  0.000000  0.000000  0.000000  0.000000  0.000000  0.000000  0.000000  0.000000  0.000000
                                 0.000000  0.000000  0.000000  0.000000  0.000000  0.000000  0.000000  0.000000  0.000000  0.000000
                                 0.000000  0.000000  0.000013  0.000000 -0.000087  0.000000  0.000422  0.000000 -0.002045  0.000000
                                 0.021077  0.000000 -0.033574  0.000000  0.117388  0.000000  0.189563  0.000000  0.321108  0.000000
                                 0.389847  0.000000  0.265348  0.000000  0.141619  0.000000 -0.012251  0.000000  0.031127  0.000000
                                -0.008058  0.000000  0.000000  0.000000  0.000000  0.000000  0.000000  0.000000  0.000000  0.000000

   4.3  0.33333     0.010028    -0.000000  0.000000 -0.000000  0.000000 -0.000000  0.000000 -0.000000  0.000001 -0.000002  0.000006
                                -0.000017  0.000048 -0.000134  0.000408 -0.001511  0.012596 -0.030624  0.058328 -0.105593  0.109232
                                 0.001401 -0.150053  0.023240 -0.114066  1.089426  0.013957  0.288651 -0.509785  0.256444 -0.025547
                                 0.007740  0.000000  0.000000  0.000000  0.000000  0.000000  0.000000  0.000000  0.000000  0.000000
                                 0.000000  0.000000  0.000000  0.000000  0.000000  0.000000  0.000000  0.000000  0.000000  0.000000
                                 0.000000  0.000000  0.000000  0.000000  0.000000  0.000000  0.000000  0.000000  0.000000  0.000000
                                 0.000000  0.000000  0.000000  0.000000  0.000000  0.000000  0.000000  0.000000  0.000000  0.000000

                                   1 2pz     1 2pz     1 2pz     1 2pz     1 2pz     1 2pz     1 2pz     1 2pz     1 2pz     1 2pz
                                   1 2pz     1 2pz     1 2pz     1 2pz     1 2pz     1 2pz     1 2pz     1 2pz     1 2pz     1 2pz
                                   1 2pz     1 2pz     1 2pz     1 2pz     1 2pz     1 2pz     1 2pz     1 2pz     1 2pz     1 2pz
                                   1 2pz     1 4f0     1 4f2+    1 4f0     1 4f2+    1 4f0     1 4f2+    1 4f0     1 4f2+    1 4f0
                                   1 4f2+    1 4f0     1 4f2+    1 4f0     1 4f2+    1 4f0     1 4f2+    1 4f0     1 4f2+    1 4f0
                                   1 4f2+    1 4f0     1 4f2+    1 4f0     1 4f2+    1 4f0     1 4f2+    1 4f0     1 4f2+    1 4f0
                                   1 4f2+    1 6h2+    1 6h4+    1 6h0     1 6h2+    1 6h4+    1 6h0     1 6h2+    1 6h4+    1 6h0


   1.5  2.00000    -1.803559     0.000000 -0.000000  0.000000 -0.000000  0.000000 -0.000000  0.000001 -0.000003  0.000011 -0.000036
                                 0.000104 -0.000290  0.000802 -0.002440  0.009009 -0.074713  0.181575 -0.345893  0.613933 -0.607103
                                -0.061127  0.760739 -0.041642  0.452900 -0.012586  0.040493 -0.000683  0.013074 -0.000559  0.000281
                                -0.000067  0.000000  0.000000  0.000000  0.000000  0.000000  0.000000  0.000000  0.000000  0.000000
                                 0.000000  0.000000  0.000000  0.000000  0.000000  0.000000  0.000000  0.000000  0.000000  0.000000
                                 0.000000  0.000000  0.000000  0.000000  0.000000  0.000000  0.000000  0.000000  0.000000  0.000000
                                 0.000000  0.000000  0.000000  0.000000  0.000000  0.000000  0.000000  0.000000  0.000000  0.000000

   2.5  2.00000    -0.215122     0.000000 -0.000000  0.000000 -0.000000  0.000000 -0.000000  0.000000 -0.000000  0.000000 -0.000000
                                 0.000000 -0.000000  0.000000 -0.000000  0.000000 -0.000000  0.000000 -0.000000  0.000000 -0.000000
                                -0.000000  0.000000 -0.000000  0.000000 -0.000000  0.000000 -0.000000  0.000000 -0.000000  0.000000
                                -0.000000  0.000013  0.000000 -0.000087  0.000000  0.000425  0.000000 -0.002061  0.000000  0.021259
                                 0.000000 -0.033844  0.000000  0.118783  0.000000  0.192339  0.000000  0.326305  0.000000  0.393363
                                 0.000000  0.258568  0.000000  0.130038  0.000000 -0.014370  0.000000  0.026416  0.000000 -0.007369
                                 0.000000  0.000000  0.000000  0.000000  0.000000  0.000000  0.000000  0.000000  0.000000  0.000000

   3.5  2.00000    -0.211881     0.000000  0.000000  0.000000  0.000000  0.000000  0.000000  0.000000  0.000000  0.000000  0.000000
                                 0.000000  0.000000  0.000000  0.000000  0.000000  0.000000  0.000000  0.000000  0.000000  0.000000
                                 0.000000  0.000000  0.000000  0.000000  0.000000  0.000000  0.000000  0.000000  0.000000  0.000000
                                 0.000000  0.000000  0.000013  0.000000 -0.000087  0.000000  0.000423  0.000000 -0.002053  0.000000
                                 0.021161  0.000000 -0.033715  0.000000  0.117845  0.000000  0.190358  0.000000  0.323032  0.000000
                                 0.392735  0.000000  0.263383  0.000000  0.134409  0.000000 -0.014437  0.000000  0.027529  0.000000
                                -0.007613  0.000000  0.000000  0.000000  0.000000  0.000000  0.000000  0.000000  0.000000  0.000000

   4.5  0.33333     0.002051    -0.000000  0.000000 -0.000000  0.000000 -0.000000  0.000000 -0.000000  0.000001 -0.000002  0.000006
                                -0.000018  0.000050 -0.000139  0.000424 -0.001577  0.013182 -0.032107  0.061890 -0.114648  0.120269
                                 0.004592 -0.177362  0.035724 -0.141807  1.552500  0.039640  0.365389 -0.992383  0.188962 -0.027229
                                 0.006561  0.000000  0.000000 -0.000000  0.000000  0.000000  0.000000 -0.000000  0.000000  0.000000
                                 0.000000 -0.000000  0.000000  0.000000  0.000000  0.000000  0.000000  0.000000  0.000000  0.000000
                                 0.000000  0.000000  0.000000  0.000000  0.000000 -0.000000  0.000000  0.000000  0.000000 -0.000000
                                 0.000000  0.000000  0.000000  0.000000  0.000000  0.000000  0.000000  0.000000  0.000000  0.000000

                                   1 4f2-    1 4f2-    1 4f2-    1 4f2-    1 4f2-    1 4f2-    1 4f2-    1 4f2-    1 4f2-    1 4f2-
                                   1 4f2-    1 4f2-    1 4f2-    1 4f2-    1 4f2-    1 6h4-    1 6h2-    1 6h4-    1 6h2-    1 6h4-
                                   1 6h2-

   1.8  2.00000    -0.189677     0.000013 -0.000087  0.000424 -0.002055  0.021212 -0.033737  0.118790  0.192581  0.325874  0.389922
                                 0.258230  0.136914 -0.011548  0.030394 -0.007818  0.000000  0.000000  0.000000  0.000000  0.000000
                                 0.000000


 EXTRA SYMMETRY OF MOS IN SYMMETRY 1:   1 3 2 1 1 2 3 1 2 3   1 2 3 1 2 3 1 4 6 5   2 3 1 4 2 6 3 5 1 2   3 4 6 5 1 4 6 5 2 3
                                        1 4 6 5 1 2 3 4 6 5   1 2 3 2 3 1 4 6 5 2   3 1 2 3 1 1 2 3 1 2   3 1 1 2 3 1 2 3 1 1
                                        2 3 1 2 3 1 1 2 3 1   1 2 3 1 1 1 1 1 1 1   1 1 1
 EXTRA SYMMETRY OF MOS IN SYMMETRY 2:   1 2 3 1 1 1 2 3 1 1   2 3 1 2 3 2 3 1 2 3   1 4 5 6 2 3 1 4 5 6   1 2 3 1 4 5 6 2 3 1
                                        2 3 1 1 2 3 1 2 3 1   1 2 3 1 2 3 1 1 2 3   1 1 1 1 1 1 1 1 1 1
 EXTRA SYMMETRY OF MOS IN SYMMETRY 3:   1 2 3 1 1 1 2 3 1 1   2 3 1 2 3 2 3 1 2 3   1 4 5 6 2 3 1 4 5 6   1 2 3 1 4 5 6 2 3 1
                                        2 3 1 1 2 3 1 2 3 1   1 2 3 1 2 3 1 1 2 3   1 1 1 1 1 1 1 1 1 1
 EXTRA SYMMETRY OF MOS IN SYMMETRY 4:   1 1 1 1 1 2 3 1 2 3   1 1 2 3 2 3 1 2 3 1   2 3 1 1 2 3 1 1 1 1   1 1 1 1 1 1
 EXTRA SYMMETRY OF MOS IN SYMMETRY 5:   1 2 3 1 1 1 2 3 1 1   2 3 1 2 3 2 3 1 2 3   1 6 4 5 2 3 1 6 4 5   1 2 3 1 6 4 5 2 3 1
                                        2 3 1 1 2 3 1 2 3 1   1 2 3 1 2 3 1 1 2 3   1 1 1 1 1 1 1 1 1 1
 EXTRA SYMMETRY OF MOS IN SYMMETRY 6:   1 1 1 1 1 2 3 1 2 1   3 1 2 3 2 3 1 2 3 1   2 3 1 1 2 3 1 1 1 1   1 1 1 1 1 1

 Natural orbital dump (state averaged) at molpro section  5202.2    (Orbital set 2)


 CI vector for state symmetry 1
 ==============================

 a 0 0           1.0000000

 TOTAL ENERGIES                      -182.05593665

 CI vector for state symmetry 2
 ==============================

 0 a 0           1.0000000

 TOTAL ENERGIES                      -182.05593665

 CI vector for state symmetry 3
 ==============================

 0 0 a           1.0000000

 TOTAL ENERGIES                      -182.06746962



 **********************************************************************************************************************************
 DATASETS  * FILE   NREC   LENGTH (MB)   RECORD NAMES
              1      20       58.28       500      610      700      900      950      970     1000      129      960     1100
                                          VAR    BASINP    GEOM    SYMINP    ZMAT    AOBASIS   BASIS     P2S    ABASIS      S
                                         1400     1410     1420     1200     1210     1080     1600     1650     1700     1380
                                           T        V       ECP      H0       H01     AOSYM     SMH    MOLCAS    OPER     JKOP

              2       7       13.53       200      700     1000      520     3202     4202     5202
                                        OPTIONS   GEOM     BASIS   MCVARS     RHF      RHF     MCSCF

 PROGRAMS   *        TOTAL     MULTI       POP       RHF       RHF       INT
 CPU TIMES  *       187.48     12.31      0.01      7.58      7.31    159.88
 REAL TIME  *       199.43 SEC
 DISK USED  *         8.27 GB
 SF USED    *       153.16 MB
 GA USED    *         0.00 MB       (max)       0.00 MB       (current)
 **********************************************************************************************************************************
   -->
   <time start="18:12:07" end="18:12:20" cpu="12.31" system="0.77" real="13.14"/>
   <storage units="megabyte" memory="8001.84" sf="153.16" df="498.61" eaf="7770.13"
     ga="0.0"/>
  </jobstep><!--
  --><jobstep command="RHF-SCF" commandset="SCFPRO">
   <!--


 PROGRAM * RHF-SCF (OPEN SHELL)       Authors: W. Meyer, H.-J. Werner


 NUMBER OF ELECTRONS:      13+   12-    SPACE SYMMETRY=2    SPIN SYMMETRY: Doublet
 CONVERGENCE THRESHOLDS:    1.00E-05 (Density)    1.00E-07 (Energy)
 MAX. NUMBER OF ITERATIONS:        0
 INTERPOLATION TYPE:            DIIS
 INTERPOLATION STEPS:              2 (START)      1 (STEP)
 LEVEL SHIFTS:                 -0.60 (CLOSED) -0.30 (OPEN)

 Number of closed-shell orbitals:   12 (   2   3   3   0   3   0   0   1 )
 Number of open-shell orbitals:      1 (   0   1   0   0   0   0   0   0 )


 Molecular orbitals read from record     5202.2  Type=MCSCF/NATURAL (state averaged)

 Molecular orbital dump at record        2104.2

 ITERATION    DDIFF          GRAD             ENERGY        2-EL.EN.            DIPOLE MOMENTS         DIIS   ORB.
    1      0.000D+00      0.000D+00      -182.05593665    322.940872    0.00000    0.00000    0.00000    0    start

 Final alpha occupancy:   2   4   3   0   3   0   0   1
 Final beta  occupancy:   2   3   3   0   3   0   0   1

 !RHF STATE 1.2 Energy               -182.055936646143
   --><property name="Energy" method="RHF" principal="true" stateSymmetry="2" stateNumber="1"
     value="-182.055936646143"/><!--
 Nuclear energy                         0.00000000
 One-electron energy                 -343.52637254
 Two-electron energy                  161.47043589
 Virial quotient                       -1.87506575
 !RHF STATE 1.2 Dipole moment           0.00000000     0.00000000     0.00000000
 Dipole moment /Debye                   0.00000000     0.00000000     0.00000000
   --><property name="Dipole moment" method="RHF" principal="true" stateSymmetry="2"
     stateNumber="1" value="0.0 0.0 0.0"/><!--

 Orbital energies:

         1.1          2.1          3.1          4.1
     -2.757754    -0.640368    -0.271631    -0.040920

         1.2          2.2          3.2          4.2          5.2          6.2
     -1.783816    -0.210987    -0.191265     0.010028     0.006548     0.025308

         1.3          2.3          3.3          4.3          5.3
     -1.783816    -0.210987    -0.191265     0.010028     0.006548

         1.4          2.4
     -0.206739     0.011382

         1.5          2.5          3.5          4.5          5.5
     -1.803559    -0.215122    -0.211881     0.002051     0.006182

         1.6          2.6
     -0.255295     0.011228

         1.7          2.7
     -0.255295     0.011228

         1.8          2.8          3.8
     -0.189677     0.058805     0.152371

 HOMO      4.2     0.010028 =       0.2729eV
 LUMO      3.1    -0.271631 =      -7.3915eV
 LUMO-HOMO        -0.281659 =      -7.6643eV


 **********************************************************************************************************************************
 DATASETS  * FILE   NREC   LENGTH (MB)   RECORD NAMES
              1      20       58.28       500      610      700      900      950      970     1000      129      960     1100
                                          VAR    BASINP    GEOM    SYMINP    ZMAT    AOBASIS   BASIS     P2S    ABASIS      S
                                         1400     1410     1420     1200     1210     1080     1600     1650     1700     1380
                                           T        V       ECP      H0       H01     AOSYM     SMH    MOLCAS    OPER     JKOP

              2       8       17.36       200      700     1000      520     3202     4202     5202     2104
                                        OPTIONS   GEOM     BASIS   MCVARS     RHF      RHF     MCSCF     RHF

 PROGRAMS   *        TOTAL       RHF     MULTI       POP       RHF       RHF       INT
 CPU TIMES  *       187.70      0.21     12.31      0.01      7.58      7.31    159.88
 REAL TIME  *       199.67 SEC
 DISK USED  *         8.27 GB
 SF USED    *       153.16 MB
 GA USED    *         0.00 MB       (max)       0.00 MB       (current)
 **********************************************************************************************************************************
   -->
   <time start="18:12:20" end="18:12:20" cpu="0.22" system="0.01" real="0.24"/>
   <storage units="megabyte" memory="8001.84" sf="153.16" df="498.61" eaf="7770.13"
     ga="0.0"/>
  </jobstep><!--
 SETTING SCF(2)         =      -182.05593665  AU
 SETTING _CC_NORM_MAX   =         2.00000000
  --><jobstep command="RCCSD(T)" commandset="CCSD">
   <!--


 PROGRAM * CCSD (Restricted open-shell coupled cluster)     Authors: C. Hampel, H.-J. Werner, 1991, M. Deegan, P.J. Knowles, 1992


 Convergence thresholds:  THRVAR = 1.00D-08  THRDEN = 1.00D-06

 CCSD(T)     terms to be evaluated (factor= 1.000)


 Number of closed-shell orbitals:  12 (   2   3   3   0   3   0   0   1 )
 Number of active  orbitals:        1 (   0   1   0   0   0   0   0   0 )
 Number of external orbitals:     429 ( 101  66  67  36  67  36  36  20 )

 Memory could be reduced to 217.40 Mwords without degradation in triples

 Number of N-1 electron functions:              25
 Number of N-2 electron functions:             300
 Number of singly external CSFs:              1717
 Number of doubly external CSFs:           5359892
 Total number of CSFs:                     5361609

 Molecular orbitals read from record     2104.2  Type=RHF/CANONICAL (state 1.2)

 Integral transformation finished. Total CPU:   6.68 sec, npass=  1  Memory used:  41.76 MW

 Starting RMP2 calculation

 Wavefunction is spin-projected

 ITER.      SQ.NORM     CORR.ENERGY   TOTAL ENERGY   ENERGY CHANGE        DEN1      VAR(S)    VAR(P)  DIIS     TIME
   1      9.68726041    -3.74643641  -185.80237305    -3.74643641    -1.04316669  0.11D-03  0.25D+01  0  0     8.03
   2     24.40863817    -4.78960310  -186.84553974    -1.04316669    -1.52781506  0.28D-04  0.38D+01  0  0     8.49
   3     53.33836885    -6.03006527  -188.08600192    -1.24046217    -2.38250176  0.97D-05  0.59D+01  0  0     8.94

 UNREASONABLE NORM: 53.338369 CALCULATION WILL BE STOPPED

 The threshold can be changed using option CC_NORM_MAX (see manual). The current value is CC_NORM_MAX=2.00

 Norm of t1 vector:      0.05531512      S-energy:    -0.00726492      T1 diagnostic:  0.00763628
 Norm of t2 vector:      7.23431469      P-energy:    -6.02280035
                                         Alpha-Beta:  -3.84226035
                                         Alpha-Alpha: -1.10320724
                                         Beta-Beta:   -1.07733277

 Spin contamination <S**2-Sz**2-Sz>     0.00000000


 RESULTS
 =======

  Reference energy                   -182.055936646143
   --><property name="energy" method="Reference" stateSymmetry="1" stateNumber="1"
     value="-182.055936646143"/><!--
  RCCSD singles energy                 -0.007264915486
   --><property name="energy" method="RCCSD singles" stateSymmetry="1" stateNumber="1"
     value="-0.726491548626651E-02"/><!--
  RCCSD pair energy                    -6.022800354951
   --><property name="energy" method="RCCSD pair" stateSymmetry="1" stateNumber="1"
     value="-6.02280035495078"/><!--
  RCCSD correlation energy             -6.030065270437
   --><property name="energy" method="RCCSD correlation" stateSymmetry="1" stateNumber="1"
     value="-6.03006527043704"/><!--

 !RHF-RCCSD energy                   -188.086001916580
   --><property name="energy" method="RHF-RCCSD" principal="true" stateSymmetry="1"
     stateNumber="1" value="-188.08600191658"/><!--

 Program statistics:

 Available memory in ccsd:               999998418
 Min. memory needed in ccsd:              14861285
 Max. memory used in ccsd:                21561205
 Max. memory used in cckext:                     0 ( 0 integral passes)
 Max. memory used in cckint:              41758378 ( 1 integral passes)


 ? Error
 ? No convergence. This error exit can be avoided using the NOCHECK option
 ? The problem occurs in ccsd
   --><error type="Error" location="ccsd"
     message="No convergence. This error exit can be avoided using the NOCHECK option"/><!--
  --></jobstep><!--
  -->
  <input>
  <!--
 --></job><!--
--></molpro>
